/*--------------------------------*- C++ -*----------------------------------*\
| =========                 |                                                 |
| \\      /  F ield         | OpenFOAM: The Open Source CFD Toolbox           |
|  \\    /   O peration     | Version:  5.x                                   |
|   \\  /    A nd           | Web:      www.OpenFOAM.org                      |
|    \\/     M anipulation  |                                                 |
\*---------------------------------------------------------------------------*/
FoamFile
{
    version     2.0;
    format      ascii;
    class       volScalarField;
    location    "17";
    object      gradTx;
}
// * * * * * * * * * * * * * * * * * * * * * * * * * * * * * * * * * * * * * //

dimensions      [0 -1 0 1 0 0 0];

internalField   nonuniform List<scalar> 
2048
(
0.00630502
0.0187346
0.0306391
0.0417208
0.0517506
0.0605794
0.0681365
0.07442
0.0794793
0.0833975
0.0862743
0.088214
0.0893185
0.0896848
0.0894051
0.0885687
0.0872624
0.0855698
0.0835685
0.0813272
0.0789016
0.0763323
0.0736443
0.0708477
0.0679402
0.0649098
0.0617368
0.0583959
0.054856
0.0510813
0.0470316
0.0426632
0.0379309
0.0327903
0.0271994
0.0211206
0.0145218
0.00737665
-0.000334345
-0.00862288
-0.0174905
-0.0269249
-0.0368948
-0.0473427
-0.0581771
-0.0692633
-0.080414
-0.0913823
-0.101857
-0.111465
-0.119783
-0.12636
-0.130754
-0.13257
-0.131512
-0.127416
-0.120278
-0.110248
-0.0976158
-0.0827653
-0.0661298
-0.0481504
-0.029247
-0.00980741
0.0187887
0.0558187
0.0912581
0.124208
0.153982
0.18014
0.202483
0.221018
0.235906
0.247407
0.255825
0.261475
0.26466
0.265666
0.264766
0.262221
0.258291
0.253222
0.247249
0.240577
0.233373
0.225757
0.217802
0.209536
0.200951
0.192008
0.18265
0.172798
0.162363
0.151238
0.139302
0.126425
0.112472
0.0973094
0.0808122
0.0628684
0.0433822
0.0222754
-0.000510697
-0.0250125
-0.0512378
-0.0791544
-0.108675
-0.139638
-0.171779
-0.204707
-0.237876
-0.270559
-0.301833
-0.330587
-0.355549
-0.375361
-0.388675
-0.394291
-0.391298
-0.379194
-0.357963
-0.328075
-0.290413
-0.246153
-0.196609
-0.14311
-0.0869053
-0.0291383
0.0311404
0.0924844
0.151109
0.205489
0.254478
0.297359
0.333835
0.363962
0.388054
0.406575
0.420054
0.429023
0.433981
0.435394
0.433701
0.429328
0.422699
0.414227
0.404301
0.393266
0.3814
0.368903
0.35589
0.342401
0.328415
0.313863
0.298647
0.282639
0.265691
0.247627
0.228248
0.207337
0.184668
0.160016
0.133175
0.103957
0.0722061
0.0377928
0.000618434
-0.0393819
-0.0822297
-0.127886
-0.176227
-0.227005
-0.279817
-0.334046
-0.38882
-0.442965
-0.49497
-0.542992
-0.584901
-0.618387
-0.641139
-0.651078
-0.646613
-0.626864
-0.591803
-0.542255
-0.47977
-0.40639
-0.324374
-0.235962
-0.143224
-0.0480092
0.0436003
0.129428
0.211278
0.286945
0.354803
0.413881
0.463833
0.50483
0.5374
0.562269
0.580221
0.592017
0.598349
0.599847
0.5971
0.590688
0.581193
0.569196
0.555251
0.53985
0.52339
0.506145
0.488268
0.4698
0.450695
0.430849
0.410118
0.388327
0.365271
0.340709
0.314364
0.285927
0.255077
0.221496
0.18489
0.145001
0.101611
0.0545413
0.00365283
-0.0511532
-0.109924
-0.172631
-0.239137
-0.309146
-0.382149
-0.457351
-0.533598
-0.60931
-0.682415
-0.750338
-0.810049
-0.858209
-0.891424
-0.906597
-0.901333
-0.874294
-0.825436
-0.756015
-0.668382
-0.565594
-0.450974
-0.327745
-0.198793
-0.0666108
0.0563838
0.167271
0.272726
0.369778
0.456294
0.531078
0.59381
0.644867
0.685087
0.715528
0.737278
0.751339
0.758587
0.759792
0.755672
0.74694
0.734337
0.718619
0.70052
0.680695
0.659666
0.637786
0.615231
0.59203
0.568097
0.543279
0.517384
0.490193
0.461449
0.43085
0.398037
0.362607
0.324134
0.2822
0.236421
0.186465
0.132057
0.0729728
0.00903238
-0.0599023
-0.133917
-0.213016
-0.297079
-0.385802
-0.478616
-0.574601
-0.672384
-0.770029
-0.864939
-0.953809
-1.03266
-1.097
-1.14217
-1.16387
-1.15869
-1.1247
-1.06186
-0.971946
-0.858332
-0.725317
-0.577484
-0.419135
-0.253975
-0.0850561
0.069696
0.206602
0.336347
0.455081
0.560132
0.650121
0.724856
0.785048
0.831971
0.86711
0.891912
0.907633
0.915311
0.915822
0.909975
0.898599
0.882585
0.862884
0.840433
0.816076
0.790475
0.764058
0.737016
0.709337
0.680875
0.651414
0.620709
0.588501
0.554494
0.518328
0.479564
0.437693
0.392174
0.342474
0.288115
0.228691
0.163876
0.093407
0.0170653
-0.0653308
-0.153919
-0.248763
-0.349794
-0.456739
-0.569029
-0.685684
-0.805181
-0.925301
-1.04298
-1.15418
-1.25392
-1.33642
-1.39554
-1.42544
-1.42144
-1.38086
-1.30359
-1.19214
-1.05119
-0.886626
-0.704543
-0.510467
-0.308918
-0.103385
0.0837409
0.248001
0.403009
0.543891
0.667394
0.772026
0.857861
0.926118
0.978662
1.01753
1.04459
1.06135
1.06897
1.06839
1.06046
1.04608
1.0263
1.00229
0.975236
0.946194
0.915994
0.885139
0.853811
0.821928
0.78925
0.755477
0.72031
0.683462
0.644612
0.603355
0.559169
0.511426
0.459449
0.402577
0.340226
0.271922
0.197295
0.116054
0.0279492
-0.0672466
-0.169739
-0.279675
-0.397074
-0.521747
-0.653179
-0.790406
-0.931841
-1.07508
-1.21665
-1.35185
-1.47462
-1.57774
-1.65328
-1.69349
-1.69205
-1.64522
-1.55282
-1.41832
-1.24812
-1.05014
-0.832388
-0.601757
-0.363565
-0.121568
0.0987301
0.292063
0.473589
0.637221
0.779091
0.897692
0.99355
1.06862
1.12555
1.16709
1.19557
1.21275
1.21988
1.21785
1.20747
1.18971
1.16578
1.13708
1.1051
1.07118
1.03634
1.00115
0.965766
0.929979
0.893414
0.855663
0.816369
0.775237
0.731953
0.686081
0.637013
0.583982
0.52615
0.462702
0.392939
0.316321
0.232451
0.141029
0.0417871
-0.0655496
-0.181267
-0.305624
-0.43877
-0.580642
-0.730847
-0.888512
-1.05209
-1.2191
-1.38581
-1.54688
-1.69518
-1.82185
-1.91682
-1.96997
-1.97277
-1.92006
-1.81151
-1.65187
-1.44985
-1.21608
-0.960868
-0.692713
-0.417662
-0.139506
0.114889
0.339419
0.548996
0.736094
0.896196
1.02792
1.1325
1.2129
1.27283
1.31588
1.34493
1.36199
1.36824
1.36445
1.35132
1.3298
1.30126
1.26743
1.23015
1.19111
1.15157
1.11218
1.073
1.03365
0.993549
0.952149
0.909039
0.863951
0.816619
0.766604
0.713205
0.65549
0.592418
0.52299
0.446379
0.361985
0.269411
0.168371
0.0585999
-0.0602199
-0.188471
-0.326552
-0.474783
-0.633277
-0.801819
-0.979712
-1.16557
-1.35697
-1.55006
-1.73903
-1.91567
-2.06931
-2.18734
-2.25664
-2.26575
-2.20758
-2.08149
-1.89395
-1.65681
-1.38424
-1.08945
-0.78274
-0.470767
-0.157037
0.132465
0.390752
0.630197
0.841562
1.01966
1.16343
1.27515
1.35916
1.42049
1.46381
1.49263
1.50906
1.51417
1.50843
1.49227
1.4666
1.43296
1.39346
1.35043
1.306
1.26171
1.21828
1.17562
1.13308
1.08983
1.04511
0.998457
0.949694
0.898666
0.844973
0.787811
0.726037
0.658358
0.583548
0.50063
0.408962
0.308179
0.19805
0.0783372
-0.0513091
-0.191383
-0.34246
-0.50507
-0.679547
-0.865905
-1.0637
-1.27183
-1.48812
-1.7088
-1.92776
-2.13581
-2.32034
-2.46574
-2.5551
-2.57314
-2.50999
-2.36452
-2.14549
-1.86906
-1.55403
-1.21724
-0.870956
-0.522259
-0.173941
0.151729
0.446807
0.718232
0.954721
1.15041
1.30486
1.42182
1.5074
1.56836
1.61065
1.63843
1.6539
1.65774
1.64995
1.63058
1.60036
1.56106
1.5153
1.46598
1.41581
1.3667
1.31944
1.2737
1.22844
1.18244
1.13471
1.08475
1.03252
0.978112
0.921198
0.860861
0.795684
0.724054
0.644456
0.555745
0.457256
0.348708
0.229975
0.100885
-0.0389313
-0.190098
-0.353408
-0.529645
-0.719399
-0.922957
-1.1402
-1.37043
-1.61192
-1.86124
-2.11226
-2.35503
-2.57487
-2.75268
-2.86688
-2.89712
-2.82962
-2.66238
-2.40726
-2.08629
-1.72443
-1.34295
-0.956207
-0.57136
-0.189945
0.172984
0.50841
0.81423
1.07673
1.28939
1.45279
1.57269
1.65748
1.71607
1.75597
1.78203
1.79633
1.79896
1.78921
1.7665
1.73134
1.68576
1.633
1.57676
1.52046
1.46649
1.41567
1.36732
1.31987
1.27159
1.22115
1.16802
1.11247
1.05493
0.995248
0.932353
0.864469
0.789571
0.705785
0.611757
0.506841
0.39091
0.264007
0.126075
-0.0232562
-0.184762
-0.359505
-0.548572
-0.752841
-0.972884
-1.20897
-1.46091
-1.72765
-2.00642
-2.29149
-2.57241
-2.83247
-3.0486
-3.19342
-3.23999
-3.16899
-2.97693
-2.67984
-2.30786
-1.89402
-1.46495
-1.03709
-0.617153
-0.204734
0.196569
0.576475
0.919428
1.20882
1.43752
1.6077
1.72781
1.80911
1.86311
1.89921
1.92298
1.93613
1.93784
1.92638
1.90033
1.85981
1.80721
1.74663
1.68271
1.61981
1.56093
1.50692
1.45658
1.40756
1.3575
1.30464
1.24841
1.18953
1.12905
1.06705
1.00226
0.932416
0.854974
0.7676
0.668687
0.557665
0.43466
0.299962
0.15369
-0.00450132
-0.175567
-0.360905
-0.561972
-0.779942
-1.01567
-1.26982
-1.54286
-1.83461
-2.14332
-2.46417
-2.78673
-3.0924
-3.35362
-3.53606
-3.60422
-3.53097
-3.3102
-2.96366
-2.53269
-2.0609
-1.58124
-1.11198
-0.658619
-0.217962
0.222864
0.652014
1.03517
1.35229
1.59573
1.77
1.88712
1.96182
2.00878
2.03967
2.06078
2.07306
2.07436
2.06168
2.03241
1.98607
1.92561
1.85624
1.78375
1.71368
1.64986
1.59315
1.54155
1.49171
1.44046
1.38543
1.32603
1.26368
1.20035
1.13651
1.07054
0.99954
0.920327
0.829977
0.726554
0.609656
0.479804
0.337619
0.183468
0.0170744
-0.162736
-0.357796
-0.570005
-0.800837
-1.05137
-1.32266
-1.61594
-1.93209
-2.27079
-2.62881
-2.99646
-3.35353
-3.66758
-3.89603
-3.9925
-3.91884
-3.66446
-3.25895
-2.75923
-2.2227
-1.6895
-1.1791
-0.694678
-0.229274
0.252297
0.736142
1.16293
1.50854
1.7649
1.93998
2.05043
2.11502
2.15224
2.17652
2.19482
2.20684
2.20853
2.19535
2.16312
2.11046
2.04114
1.96185
1.87973
1.80182
1.73307
1.67428
1.62235
1.57255
1.52075
1.46382
1.40101
1.33485
1.26867
1.20348
1.13714
1.06585
0.985703
0.893009
0.785377
0.662725
0.526165
0.376725
0.215111
0.0411766
-0.146524
-0.350389
-0.57287
-0.815724
-1.08014
-1.36752
-1.67991
-2.01947
-2.38768
-2.78377
-3.19974
-3.61437
-3.98995
-4.27438
-4.40781
-4.33647
-4.04232
-3.56569
-2.98538
-2.37656
-1.78714
-1.23656
-0.724244
-0.238319
0.285348
0.830083
1.3043
1.67905
1.94589
2.11782
2.21745
2.268
2.29248
2.3088
2.32449
2.33721
2.34034
2.32767
2.29294
2.23335
2.15398
2.06352
1.97053
1.88395
1.81028
1.75025
1.6991
1.65033
1.59875
1.54018
1.4735
1.4029
1.33377
1.26779
1.202
1.13136
1.05119
0.956819
0.84518
0.716764
0.573546
0.417
0.248283
0.0674807
-0.127197
-0.338904
-0.570793
-0.824861
-1.10222
-1.40449
-1.73466
-2.09625
-2.49288
-2.92725
-3.39445
-3.87304
-4.31977
-4.67189
-4.85337
-4.78853
-4.44679
-3.88354
-3.20839
-2.51911
-1.87132
-1.28246
-0.746275
-0.244771
0.322568
0.935163
1.461
1.86545
2.13949
2.3035
2.38777
2.41992
2.42835
2.43543
2.44913
2.46395
2.4698
2.45898
2.42246
2.35515
2.26427
2.16128
2.05597
1.95969
1.88117
1.82097
1.77199
1.72531
1.67484
1.61494
1.54367
1.46766
1.39534
1.32926
1.26508
1.19607
1.11688
1.02158
0.905999
0.771642
0.621737
0.458147
0.282619
0.0956352
-0.105032
-0.323557
-0.56401
-0.828561
-1.11796
-1.43381
-1.78022
-2.1621
-2.58531
-3.05735
-3.57818
-4.12728
-4.65563
-5.08892
-5.33272
-5.2807
-4.88148
-4.21167
-3.42469
-2.64644
-1.93907
-1.31497
-0.759842
-0.248355
0.364594
1.0528
1.63485
2.06948
2.34639
2.49684
2.56096
2.56989
2.55855
2.55521
2.5681
2.58693
2.59689
2.58963
2.55241
2.47628
2.37213
2.25522
2.13588
2.0286
1.94533
1.88638
1.84124
1.79776
1.74947
1.68869
1.61171
1.52885
1.45299
1.38765
1.32635
1.25997
1.18289
1.08751
0.967874
0.827196
0.670529
0.499855
0.31772
0.125265
-0.0803057
-0.304544
-0.55276
-0.827187
-1.12777
-1.45581
-1.81677
-2.2169
-2.66404
-3.17212
-3.74829
-4.37451
-4.9956
-5.52519
-5.84959
-5.81999
-5.35067
-4.54863
-3.62981
-2.7542
-1.9874
-1.33241
-0.764186
-0.248859
0.412191
1.18449
1.82776
2.29311
2.5671
2.69732
2.73655
2.71696
2.6816
2.66681
2.6808
2.70612
2.72154
2.71998
2.6837
2.59717
2.47758
2.3455
2.21011
2.09016
2.00228
1.94643
1.90715
1.86791
1.8231
1.76214
1.67784
1.5861
1.50621
1.44277
1.38585
1.32301
1.24932
1.15495
1.03085
0.883214
0.719722
0.541813
0.353153
0.155971
-0.0532845
-0.282027
-0.537261
-0.821143
-1.13219
-1.4709
-1.84463
-2.2608
-2.72831
-3.26956
-3.9019
-4.61185
-5.33725
-5.97947
-6.40788
-6.41521
-5.85951
-4.89197
-3.81815
-2.83756
-2.01339
-1.3334
-0.758774
-0.246157
0.466319
1.33176
2.04164
2.53859
2.80193
2.90409
2.91418
2.8602
2.79588
2.76877
2.78669
2.82174
2.84355
2.85038
2.81757
2.71825
2.58049
2.43237
2.27855
2.14373
2.05144
2.00111
1.97017
1.93591
1.89618
1.83623
1.7423
1.63889
1.55438
1.49439
1.44374
1.38509
1.31627
1.22437
1.09497
0.939405
0.769149
0.583714
0.388447
0.187331
-0.0242222
-0.256114
-0.517704
-0.810871
-1.13185
-1.47953
-1.86426
-2.2943
-2.77757
-3.34767
-4.03597
-4.83626
-5.67771
-6.44924
-7.01138
-7.0775
-6.41419
-5.23786
-3.98283
-2.89142
-2.0144
-1.31693
-0.743344
-0.240216
0.52824
1.4961
2.27838
2.80867
3.05086
3.11573
3.09374
2.99875
2.89953
2.85946
2.88536
2.93431
2.96248
2.98105
2.95563
2.83984
2.68046
2.51631
2.34111
2.18852
2.09211
2.05047
2.03094
2.00176
1.96911
1.91223
1.80537
1.68651
1.59674
1.54234
1.5003
1.446
1.38378
1.29642
1.16024
0.995364
0.81871
0.625271
0.423082
0.218899
0.00664521
-0.226843
-0.494228
-0.796844
-1.12748
-1.48219
-1.87618
-2.31828
-2.81155
-3.4045
-4.14723
-5.04464
-6.01385
-6.93012
-7.66348
-7.82112
-7.02218
-5.58053
-4.11556
-2.9105
-1.98823
-1.28245
-0.717934
-0.231103
0.599705
1.67892
2.53959
3.10677
3.31342
3.33014
3.27553
3.13182
2.99046
2.93707
2.97652
3.04482
3.07754
3.1121
3.10015
2.96213
2.77672
2.5981
2.39781
2.22359
2.12343
2.09461
2.09039
2.06521
2.04221
1.99182
1.86735
1.72803
1.63235
1.58648
1.55609
1.50533
1.45182
1.37207
1.22662
1.05051
0.868425
0.666221
0.456478
0.250202
0.0390999
-0.194166
-0.466906
-0.779558
-1.11997
-1.4793
-1.88094
-2.33413
-2.83026
-3.43812
-4.23225
-5.23397
-6.34261
-7.41526
-8.36667
-8.66448
-7.69245
-5.91143
-4.20656
-2.88965
-1.93326
-1.22994
-0.682893
-0.218983
0.683242
1.88138
2.8265
3.43742
3.58851
3.54418
3.46063
3.25878
3.0663
2.99954
3.06005
3.155
3.18734
3.2433
3.25429
3.08507
2.8679
2.67906
2.44874
2.24775
2.14435
2.13371
2.14988
2.12561
2.11558
2.07729
1.92851
1.76221
1.6601
1.62674
1.61202
1.56242
1.52021
1.45273
1.29399
1.104
0.918512
0.706333
0.487975
0.280748
0.072939
-0.157925
-0.435733
-0.759517
-1.1104
-1.47119
-1.87896
-2.34386
-2.83403
-3.44673
-4.2873
-5.4015
-6.66154
-7.89452
-9.12175
-9.63152
-8.43569
-6.21824
-4.24452
-2.82412
-1.8487
-1.15996
-0.638873
-0.204112
0.78259
2.10424
3.13949
3.80678
3.87416
3.75339
3.65133
3.3791
3.12429
3.04456
3.13594
3.2676
3.2896
3.37395
3.42253
3.20818
2.95183
2.76128
2.49405
2.25958
2.15363
2.16799
2.21144
2.18171
2.189
2.1718
1.98901
1.78748
1.6787
1.66307
1.66952
1.61615
1.58852
1.54042
1.36203
1.15463
0.969496
0.745405
0.516808
0.310025
0.107966
-0.11784
-0.400606
-0.73722
-1.1001
-1.458
-1.87047
-2.35024
-2.82346
-3.42861
-4.3083
-5.54484
-6.96966
-8.35348
-9.92677
-10.7535
-9.26456
-6.48344
-4.21684
-2.71001
-1.73468
-1.07367
-0.586796
-0.186823
0.903342
2.34763
3.4777
4.22342
4.16722
3.95148
3.85167
3.49231
3.16122
3.06952
3.20426
3.38687
3.38079
3.50267
3.6112
3.33035
3.02512
2.848
2.53391
2.25729
2.14979
2.19769
2.27804
2.23145
2.2618
2.2797
2.04886
1.80184
1.68663
1.69547
1.73084
1.66481
1.65602
1.63806
1.43016
1.20069
1.02237
0.783244
0.542073
0.337522
0.143973
-0.0734854
-0.361322
-0.71312
-1.09078
-1.43961
-1.85523
-2.35704
-2.7994
-3.38225
-4.29065
-5.66201
-7.26863
-8.77234
-10.7755
-12.0712
-10.1938
-6.68264
-4.11004
-2.5447
-1.59242
-0.972734
-0.527809
-0.167505
1.05385
2.61076
3.83829
4.69936
4.46288
4.1297
4.06834
3.59784
3.1734
3.07149
3.26495
3.51917
3.45562
3.62705
3.82927
3.44953
3.08283
2.94419
2.5684
2.23876
2.13108
2.22295
2.35399
2.27157
2.33262
2.40693
2.10767
1.80284
1.68222
1.72388
1.79927
1.70581
1.72144
1.74979
1.49741
1.2398
1.07881
0.819625
0.562691
0.362753
0.18072
-0.0242641
-0.31757
-0.687573
-1.08466
-1.41558
-1.83233
-2.36928
-2.76282
-3.30645
-4.22901
-5.7513
-7.56447
-9.1246
-11.6555
-13.6381
-11.2404
-6.78239
-3.91052
-2.32734
-1.42423
-0.859317
-0.463219
-0.146587
1.24648
2.8915
4.2155
5.25153
4.75416
4.2761
4.31172
3.69468
3.15653
3.04726
3.31762
3.67377
3.5064
3.74327
4.08927
3.56234
3.11785
3.05713
2.59731
2.20141
2.09555
2.24364
2.44549
2.29725
2.39917
2.56164
2.1644
1.78752
1.66366
1.74805
1.87963
1.73536
1.78287
1.88146
1.56218
1.26865
1.14147
0.854214
0.577366
0.385297
0.217891
0.0306152
-0.268949
-0.660747
-1.08466
-1.38501
-1.7998
-2.39367
-2.71456
-3.20046
-4.11704
-5.81098
-7.86976
-9.37561
-12.5456
-15.5237
-12.4233
-6.73755
-3.60579
-2.05935
-1.23349
-0.735934
-0.394427
-0.12451
1.49923
3.18591
4.5995
5.90353
5.03115
4.37456
4.59721
3.78091
3.10572
2.9934
3.36105
3.86393
3.52228
3.84559
4.40846
3.66356
3.12032
3.19741
2.61978
2.14225
2.04104
2.25906
2.56128
2.30158
2.45791
2.75484
2.21701
1.75242
1.62908
1.76734
1.97877
1.74811
1.83748
2.04116
1.62205
1.2828
1.21433
0.886448
0.584544
0.40486
0.255046
0.0921743
-0.214997
-0.632495
-1.09465
-1.34653
-1.75422
-2.43907
-2.65507
-3.06429
-3.94712
-5.83854
-8.20639
-9.4811
-13.4122
-17.8183
-13.7635
-6.48818
-3.18622
-1.74483
-1.02455
-0.605331
-0.322857
-0.101708
1.83791
3.48765
4.97481
6.68791
5.28006
4.4037
4.94704
3.85293
3.01552
2.90641
3.39257
4.10821
3.48829
3.92571
4.81039
3.74544
3.07682
3.37996
2.63387
2.05785
1.96531
2.26758
2.71355
2.27497
2.50369
3.00132
2.26191
1.69363
1.57669
1.78038
2.10625
1.73665
1.88124
2.23992
1.67339
1.27632
1.30318
0.915353
0.582372
0.421356
0.291544
0.16171
-0.155248
-0.602176
-1.11975
-1.29821
-1.69014
-2.51714
-2.58389
-2.89905
-3.71007
-5.82968
-8.60912
-9.38559
-14.2058
-20.6381
-15.2833
-5.95595
-2.64744
-1.39075
-0.802487
-0.47033
-0.249882
-0.0785926
2.29876
3.78717
5.31842
7.649
5.48216
4.3356
5.39227
3.90445
2.88002
2.78298
3.40721
4.43211
3.38432
3.9721
5.32654
3.79695
2.96953
3.62546
2.63585
1.94444
1.8662
2.26601
2.91897
2.20441
2.52927
3.32064
2.29327
1.60689
1.50492
1.78457
2.27518
1.69092
1.90861
2.49254
1.71103
1.24146
1.41618
0.939288
0.56867
0.435018
0.326448
0.240856
-0.0893265
-0.568405
-1.16668
-1.23757
-1.59945
-2.64319
-2.49904
-2.70752
-3.39491
-5.7766
-9.12965
-9.02088
-14.8556
-24.1315
-17.0051
-5.04008
-1.99351
-1.00696
-0.572823
-0.333681
-0.176776
-0.0555346
2.93167
4.07095
5.59759
8.84609
5.61234
4.13426
5.97533
3.92507
2.69311
2.62036
3.39643
4.86998
3.18377
3.96905
5.99842
3.80278
2.77522
3.96196
2.61929
1.79809
1.74188
2.24886
3.19996
2.07269
2.5249
3.73843
2.30214
1.48781
1.4127
1.77555
2.50319
1.59764
1.91213
2.81852
1.72773
1.1683
1.56453
0.955614
0.540922
0.446529
0.358404
0.331658
-0.0170871
-0.52874
-1.24416
-1.16159
-1.47057
-2.83718
-2.3961
-2.49475
-2.98879
-5.66578
-9.84144
-8.30467
-15.2644
-28.4861
-18.9507
-3.61291
-1.24083
-0.605812
-0.341147
-0.197924
-0.104663
-0.032856
3.80397
4.32041
5.76721
10.3573
5.63758
3.75408
6.75288
3.89852
2.44885
2.41687
3.3467
5.46733
2.85228
3.8958
6.87976
3.74232
2.46421
4.42673
2.57397
1.61487
1.59117
2.20736
3.5862
1.85747
2.47766
4.28771
2.27542
1.33211
1.29978
1.74632
2.81359
1.43951
1.88204
3.24314
1.71365
1.0443
1.76323
0.960259
0.49629
0.45718
0.385489
0.436684
0.0611933
-0.479292
-1.36335
-1.06679
-1.28753
-3.12488
-2.26715
-2.26895
-2.47701
-5.47509
-10.845
-7.13945
-15.3012
-33.9368
-21.1393
-1.51516
-0.422853
-0.201267
-0.112737
-0.0652796
-0.0344907
-0.0108239
)
;

boundaryField
{
    left
    {
        type            calculated;
        value           uniform 0;
    }
    right
    {
        type            calculated;
        value           uniform 0;
    }
    interface
    {
        type            calculated;
        value           nonuniform List<scalar> 
64
(
3.80397
4.32041
5.76721
10.3573
5.63758
3.75408
6.75288
3.89852
2.44885
2.41687
3.3467
5.46733
2.85228
3.8958
6.87976
3.74232
2.46421
4.42673
2.57397
1.61487
1.59117
2.20736
3.5862
1.85747
2.47766
4.28771
2.27542
1.33211
1.29978
1.74632
2.81359
1.43951
1.88204
3.24314
1.71365
1.0443
1.76323
0.960259
0.49629
0.45718
0.385489
0.436684
0.0611933
-0.479292
-1.36335
-1.06679
-1.28753
-3.12488
-2.26715
-2.26895
-2.47701
-5.47509
-10.845
-7.13945
-15.3012
-33.9368
-21.1393
-1.51516
-0.422853
-0.201267
-0.112737
-0.0652796
-0.0344907
-0.0108239
)
;
    }
    bottom
    {
        type            calculated;
        value           nonuniform List<scalar> 
64
(
0.00630502
0.0187346
0.0306391
0.0417208
0.0517506
0.0605794
0.0681365
0.07442
0.0794793
0.0833975
0.0862743
0.088214
0.0893185
0.0896848
0.0894051
0.0885687
0.0872624
0.0855698
0.0835685
0.0813272
0.0789016
0.0763323
0.0736443
0.0708477
0.0679402
0.0649098
0.0617368
0.0583959
0.054856
0.0510813
0.0470316
0.0426632
0.0379309
0.0327903
0.0271994
0.0211206
0.0145218
0.00737665
-0.000334345
-0.00862288
-0.0174905
-0.0269249
-0.0368948
-0.0473427
-0.0581771
-0.0692633
-0.080414
-0.0913823
-0.101857
-0.111465
-0.119783
-0.12636
-0.130754
-0.13257
-0.131512
-0.127416
-0.120278
-0.110248
-0.0976158
-0.0827653
-0.0661298
-0.0481504
-0.029247
-0.00980741
)
;
    }
    defaultFaces
    {
        type            empty;
    }
}


// ************************************************************************* //
