/*--------------------------------*- C++ -*----------------------------------*\
| =========                 |                                                 |
| \\      /  F ield         | OpenFOAM: The Open Source CFD Toolbox           |
|  \\    /   O peration     | Version:  5.x                                   |
|   \\  /    A nd           | Web:      www.OpenFOAM.org                      |
|    \\/     M anipulation  |                                                 |
\*---------------------------------------------------------------------------*/
FoamFile
{
    version     2.0;
    format      ascii;
    class       volScalarField;
    location    "16.1";
    object      gradTy;
}
// * * * * * * * * * * * * * * * * * * * * * * * * * * * * * * * * * * * * * //

dimensions      [0 -1 0 1 0 0 0];

internalField   nonuniform List<scalar> 
2048
(
-26.4237
-26.3961
-26.3417
-26.2621
-26.1593
-26.0359
-25.8946
-25.7383
-25.5698
-25.3916
-25.2061
-25.0155
-24.8216
-24.6263
-24.431
-24.2369
-24.0453
-23.857
-23.6728
-23.4933
-23.3189
-23.15
-22.9868
-22.8296
-22.6785
-22.534
-22.3961
-22.2653
-22.1419
-22.0264
-21.9194
-21.8215
-21.7335
-21.6561
-21.5904
-21.5374
-21.498
-21.4737
-21.4654
-21.4746
-21.5024
-21.5501
-21.619
-21.7101
-21.8245
-21.9629
-22.1257
-22.3129
-22.5237
-22.7567
-23.0097
-23.2793
-23.5613
-23.8504
-24.1406
-24.4253
-24.6976
-24.9511
-25.1796
-25.3777
-25.5412
-25.6666
-25.7515
-25.7943
-26.446
-26.4178
-26.3622
-26.2808
-26.176
-26.0503
-25.9068
-25.7483
-25.5776
-25.3975
-25.2103
-25.0181
-24.8229
-24.6263
-24.4299
-24.235
-24.0426
-23.8537
-23.6691
-23.4892
-23.3145
-23.1454
-22.982
-22.8246
-22.6733
-22.5285
-22.3904
-22.2592
-22.1355
-22.0196
-21.9121
-21.8136
-21.7248
-21.6467
-21.5802
-21.5262
-21.486
-21.4606
-21.4513
-21.4595
-21.4862
-21.533
-21.6009
-21.6913
-21.8051
-21.9432
-22.106
-22.2937
-22.5057
-22.7406
-22.9962
-23.2693
-23.5556
-23.8496
-24.1451
-24.4352
-24.7129
-24.9713
-25.2041
-25.4058
-25.572
-25.6994
-25.7856
-25.829
-26.4887
-26.4592
-26.4012
-26.3165
-26.2077
-26.0777
-25.9297
-25.7669
-25.5923
-25.4085
-25.218
-25.0229
-24.825
-24.6262
-24.4278
-24.2312
-24.0374
-23.8474
-23.6618
-23.4813
-23.3061
-23.1366
-22.9728
-22.8151
-22.6635
-22.5183
-22.3796
-22.2479
-22.1234
-22.0067
-21.8982
-21.7985
-21.7085
-21.629
-21.5609
-21.5052
-21.4632
-21.4359
-21.4247
-21.4309
-21.4557
-21.5006
-21.5668
-21.6556
-21.7682
-21.9056
-22.0684
-22.2571
-22.4711
-22.7095
-22.9701
-23.2498
-23.5442
-23.8476
-24.1534
-24.4541
-24.7422
-25.01
-25.251
-25.4595
-25.6309
-25.7619
-25.8504
-25.895
-26.55
-26.5186
-26.4569
-26.3673
-26.2526
-26.1163
-25.962
-25.793
-25.6127
-25.4237
-25.2286
-25.0293
-24.8279
-24.6258
-24.4246
-24.2256
-24.0298
-23.8382
-23.6514
-23.47
-23.2942
-23.1241
-22.96
-22.8018
-22.6497
-22.5039
-22.3645
-22.232
-22.1065
-21.9886
-21.8788
-21.7775
-21.6857
-21.6041
-21.5337
-21.4757
-21.4311
-21.4012
-21.3873
-21.3906
-21.4127
-21.4548
-21.5184
-21.6049
-21.7157
-21.852
-22.0147
-22.2044
-22.4212
-22.6643
-22.932
-23.2211
-23.5271
-23.8442
-24.1649
-24.481
-24.784
-25.0656
-25.3185
-25.5364
-25.7151
-25.8512
-25.9429
-25.9889
-26.6284
-26.5944
-26.528
-26.4317
-26.3093
-26.1647
-26.002
-25.8252
-25.6376
-25.4422
-25.2413
-25.0369
-24.8309
-24.6249
-24.4202
-24.2181
-24.0199
-23.8264
-23.6381
-23.4557
-23.2791
-23.1085
-22.9439
-22.7852
-22.6325
-22.486
-22.3458
-22.2123
-22.0856
-21.9663
-21.8547
-21.7515
-21.6574
-21.5732
-21.5
-21.4389
-21.3911
-21.3579
-21.3405
-21.3403
-21.3588
-21.3974
-21.4577
-21.5411
-21.6494
-21.784
-21.9462
-22.137
-22.3569
-22.6057
-22.882
-23.1829
-23.5039
-23.8385
-24.1787
-24.5151
-24.8376
-25.137
-25.4049
-25.6349
-25.8225
-25.9647
-26.0601
-26.1079
-26.723
-26.6858
-26.6131
-26.5085
-26.3763
-26.2213
-26.0485
-25.8622
-25.666
-25.463
-25.2554
-25.0452
-24.8339
-24.6232
-24.4144
-24.2088
-24.0077
-23.812
-23.6221
-23.4385
-23.2613
-23.0901
-22.9251
-22.7659
-22.6126
-22.4653
-22.3241
-22.1894
-22.0614
-21.9404
-21.8269
-21.7213
-21.6245
-21.5373
-21.4608
-21.3961
-21.3445
-21.3073
-21.2858
-21.2814
-21.2957
-21.33
-21.3861
-21.4658
-21.5708
-21.703
-21.8641
-22.0556
-22.2787
-22.5338
-22.8199
-23.1348
-23.4738
-23.83
-24.1942
-24.5555
-24.9023
-25.2234
-25.5095
-25.7536
-25.9513
-26.1003
-26.1997
-26.2493
-26.8331
-26.7918
-26.7115
-26.5965
-26.4523
-26.285
-26.1002
-25.9028
-25.6969
-25.4853
-25.2703
-25.0536
-24.8365
-24.6206
-24.4071
-24.1976
-23.9933
-23.7951
-23.6035
-23.4188
-23.2409
-23.0694
-22.9039
-22.7443
-22.5903
-22.4421
-22.3
-22.164
-22.0345
-21.9117
-21.796
-21.6878
-21.588
-21.4973
-21.417
-21.3482
-21.2923
-21.2506
-21.2244
-21.2153
-21.2246
-21.254
-21.3053
-21.3804
-21.4813
-21.6103
-21.7695
-21.9612
-22.1871
-22.4486
-22.7455
-23.0761
-23.4359
-23.8176
-24.2106
-24.6019
-24.9777
-25.3246
-25.6317
-25.8917
-26.1003
-26.2562
-26.3595
-26.4108
-26.9584
-26.912
-26.8223
-26.6948
-26.5363
-26.3543
-26.1556
-25.9458
-25.7291
-25.5084
-25.2855
-25.0618
-24.8385
-24.6168
-24.3983
-24.1844
-23.9765
-23.7757
-23.5824
-23.3968
-23.2184
-23.0466
-22.8809
-22.7208
-22.5662
-22.4171
-22.2738
-22.1366
-22.0055
-21.8809
-21.7628
-21.6518
-21.5486
-21.4541
-21.3695
-21.2961
-21.2355
-21.1888
-21.1575
-21.1431
-21.1469
-21.1708
-21.2165
-21.2861
-21.3821
-21.5069
-21.6634
-21.8543
-22.0824
-22.3499
-22.6581
-23.0058
-23.3892
-23.8003
-24.227
-24.6539
-25.0637
-25.4405
-25.7713
-26.0484
-26.2683
-26.4307
-26.5374
-26.5901
-27.0987
-27.0461
-26.945
-26.8024
-26.627
-26.4281
-26.2136
-25.99
-25.7617
-25.5313
-25.3003
-25.0695
-24.8396
-24.6119
-24.3878
-24.1691
-23.9574
-23.7538
-23.5588
-23.3724
-23.1939
-23.0221
-22.8564
-22.696
-22.5407
-22.3907
-22.2462
-22.1076
-21.975
-21.8484
-21.728
-21.6139
-21.5071
-21.4083
-21.3191
-21.2408
-21.1749
-21.1229
-21.0861
-21.0659
-21.0638
-21.0815
-21.1209
-21.1844
-21.2745
-21.3941
-21.5467
-21.7356
-21.9648
-22.2377
-22.557
-22.9229
-23.3323
-23.7769
-24.2427
-24.711
-25.1606
-25.5715
-25.9286
-26.2236
-26.4542
-26.6223
-26.7314
-26.7849
-27.254
-27.194
-27.0792
-26.9185
-26.7233
-26.5049
-26.2728
-26.0342
-25.7938
-25.5536
-25.3144
-25.0764
-24.8398
-24.6057
-24.3756
-24.1517
-23.9358
-23.7293
-23.5328
-23.346
-23.1676
-22.9963
-22.8308
-22.6701
-22.5142
-22.3631
-22.2174
-22.0775
-21.9434
-21.8149
-21.692
-21.5748
-21.464
-21.3607
-21.2664
-21.1828
-21.1114
-21.0537
-21.0111
-20.9848
-20.9763
-20.9873
-21.0198
-21.0763
-21.1596
-21.273
-21.4203
-21.6059
-21.8347
-22.1117
-22.4415
-22.8262
-23.2638
-23.7459
-24.2567
-24.7733
-25.2689
-25.7185
-26.1041
-26.4171
-26.6574
-26.8293
-26.9394
-26.9928
-27.4246
-27.3557
-27.2243
-27.0424
-26.8241
-26.5834
-26.3317
-26.0772
-25.8243
-25.5746
-25.3276
-25.0825
-24.8391
-24.5983
-24.3617
-24.132
-23.9116
-23.7023
-23.5045
-23.3176
-23.14
-22.9695
-22.8045
-22.6437
-22.487
-22.3347
-22.1877
-22.0465
-21.911
-21.7808
-21.6555
-21.5351
-21.4201
-21.3119
-21.2122
-21.1228
-21.0456
-20.982
-20.9333
-20.9007
-20.8855
-20.8893
-20.9142
-20.963
-21.0386
-21.1446
-21.2853
-21.4659
-21.6924
-21.9718
-22.3108
-22.7142
-23.1818
-23.7058
-24.268
-24.8405
-25.3895
-25.8827
-26.2986
-26.6291
-26.8768
-27.0502
-27.1592
-27.2115
-27.6111
-27.5313
-27.3803
-27.1731
-26.928
-26.6621
-26.3891
-26.1178
-25.8525
-25.5937
-25.3394
-25.0877
-24.8376
-24.5897
-24.3461
-24.1101
-23.8848
-23.6725
-23.4736
-23.2873
-23.1111
-22.9421
-22.7779
-22.6171
-22.4595
-22.3059
-22.1574
-22.0149
-21.8783
-21.7466
-21.6189
-21.4951
-21.3758
-21.2623
-21.1567
-21.0614
-20.9781
-20.9084
-20.8535
-20.8144
-20.7921
-20.7883
-20.8052
-20.8456
-20.9126
-21.0102
-21.1428
-21.3165
-21.5385
-21.8178
-22.1641
-22.5854
-23.0845
-23.6545
-24.2753
-24.9129
-25.5235
-26.0657
-26.5135
-26.8597
-27.1117
-27.2833
-27.3885
-27.4383
-27.8141
-27.7212
-27.5467
-27.3099
-27.0338
-26.7397
-26.4435
-26.1548
-25.8775
-25.6105
-25.35
-25.0923
-24.8355
-24.5802
-24.3289
-24.0858
-23.8552
-23.6399
-23.4403
-23.2551
-23.0812
-22.9144
-22.7514
-22.5906
-22.4319
-22.2766
-22.1265
-21.9829
-21.8454
-21.7125
-21.5828
-21.4556
-21.3316
-21.2124
-21.1006
-20.9988
-20.9093
-20.8334
-20.7723
-20.7266
-20.6971
-20.6854
-20.6937
-20.725
-20.7827
-20.8707
-20.9938
-21.1586
-21.3736
-21.6499
-22.0006
-22.4383
-22.9697
-23.5898
-24.2771
-24.9903
-25.6727
-26.2699
-26.7502
-27.1094
-27.3613
-27.5267
-27.6251
-27.6706
-28.0344
-27.9259
-27.7235
-27.4518
-27.14
-26.8146
-26.4935
-26.187
-25.8985
-25.6248
-25.3594
-25.0963
-24.833
-24.57
-24.31
-24.059
-23.8227
-23.6042
-23.4043
-23.2213
-23.0506
-22.8868
-22.7254
-22.5646
-22.4047
-22.2472
-22.0952
-21.9505
-21.8127
-21.6791
-21.5475
-21.4169
-21.288
-21.1626
-21.044
-20.9356
-20.8396
-20.7576
-20.6902
-20.638
-20.6013
-20.5813
-20.5806
-20.6023
-20.6499
-20.7273
-20.8395
-20.9935
-21.1986
-21.4682
-21.8197
-22.2712
-22.8349
-23.5091
-24.2716
-25.0731
-25.8394
-26.498
-27.0108
-27.3784
-27.6243
-27.7784
-27.8662
-27.9057
-28.273
-28.1458
-27.9104
-27.5978
-27.2452
-26.8851
-26.5375
-26.2131
-25.9148
-25.6363
-25.3677
-25.1002
-24.8306
-24.5594
-24.2897
-24.0296
-23.7869
-23.5653
-23.3655
-23.1857
-23.0196
-22.8597
-22.7003
-22.5395
-22.3779
-22.2177
-22.0633
-21.9178
-21.7803
-21.6467
-21.5134
-21.3794
-21.2453
-21.1132
-20.9873
-20.8719
-20.7694
-20.6812
-20.6079
-20.5493
-20.5052
-20.4768
-20.4666
-20.4782
-20.5152
-20.5813
-20.6812
-20.8223
-21.0146
-21.2734
-21.621
-22.0824
-22.6775
-23.4092
-24.2563
-25.1614
-26.0266
-26.7537
-27.2974
-27.667
-27.8997
-28.0362
-28.1094
-28.1408
-28.5312
-28.3816
-28.1074
-27.7469
-27.3476
-26.9496
-26.5741
-26.232
-25.9257
-25.645
-25.3753
-25.1044
-24.8287
-24.5489
-24.2681
-23.9973
-23.7477
-23.5229
-23.3238
-23.1484
-22.9884
-22.8338
-22.6767
-22.5157
-22.352
-22.1881
-22.0306
-21.8847
-21.7483
-21.6155
-21.481
-21.3436
-21.2041
-21.0646
-20.9306
-20.8079
-20.6989
-20.6046
-20.5257
-20.461
-20.4097
-20.3726
-20.3524
-20.3535
-20.3794
-20.4336
-20.5201
-20.6464
-20.8229
-21.0661
-21.4041
-21.8705
-22.4947
-23.2865
-24.228
-25.2552
-26.2381
-27.0414
-27.6124
-27.9754
-28.1857
-28.2977
-28.3518
-28.373
-28.8104
-28.6339
-28.3145
-27.8979
-27.4452
-27.0065
-26.6019
-26.2424
-25.9306
-25.651
-25.3829
-25.1095
-24.8278
-24.539
-24.2452
-23.9619
-23.7049
-23.4768
-23.2788
-23.1094
-22.9574
-22.8094
-22.655
-22.4936
-22.3272
-22.1584
-21.9969
-21.851
-21.717
-21.5861
-21.4506
-21.3097
-21.1647
-21.0168
-20.8739
-20.7438
-20.6282
-20.5281
-20.4439
-20.3736
-20.3153
-20.2692
-20.2387
-20.2288
-20.2436
-20.2853
-20.3573
-20.4674
-20.6251
-20.8474
-21.1689
-21.6337
-22.2839
-23.137
-24.1826
-25.3545
-26.479
-27.3665
-27.9586
-28.3032
-28.4805
-28.5604
-28.5908
-28.5998
-29.1122
-28.9035
-28.5316
-28.0495
-27.5359
-27.0543
-26.6196
-26.243
-25.9289
-25.6543
-25.3912
-25.1159
-24.8282
-24.5305
-24.2212
-23.9229
-23.6583
-23.4269
-23.23
-23.0686
-22.927
-22.7874
-22.6356
-22.4733
-22.3041
-22.1285
-21.9616
-21.8165
-21.6863
-21.5589
-21.4226
-21.2781
-21.1275
-20.9701
-20.8172
-20.6797
-20.5576
-20.4518
-20.363
-20.2877
-20.2226
-20.1672
-20.1258
-20.1047
-20.1083
-20.1375
-20.1942
-20.2869
-20.4231
-20.6187
-20.9158
-21.3707
-22.0423
-22.9561
-24.1144
-25.4588
-26.7559
-27.7355
-28.3385
-28.6498
-28.7817
-28.8214
-28.8237
-28.8184
-29.4384
-29.1907
-28.7591
-28.2002
-27.617
-27.0914
-26.6261
-26.2322
-25.9202
-25.6555
-25.4014
-25.1243
-24.8305
-24.5245
-24.1963
-23.8794
-23.6078
-23.3728
-23.1771
-23.0261
-22.8975
-22.7685
-22.6189
-22.4552
-22.283
-22.0983
-21.924
-21.7807
-21.6565
-21.5344
-21.3972
-21.2491
-21.0931
-20.9247
-20.7601
-20.6155
-20.4872
-20.3756
-20.2833
-20.2036
-20.1322
-20.0671
-20.0142
-19.9816
-19.9743
-19.9912
-20.0316
-20.1063
-20.2193
-20.3815
-20.6452
-21.0801
-21.7675
-22.7391
-24.0158
-25.5672
-27.0779
-28.1563
-28.7543
-29.0136
-29.0865
-29.0779
-29.0479
-29.0267
-29.7913
-29.4957
-28.9977
-28.3483
-27.685
-27.1171
-26.6206
-26.2085
-25.9041
-25.6548
-25.4148
-25.135
-24.8346
-24.5224
-24.1706
-23.8305
-23.5534
-23.3146
-23.119
-22.9818
-22.8694
-22.7538
-22.6052
-22.4392
-22.2649
-22.0678
-21.8829
-21.7433
-21.6277
-21.5134
-21.3748
-21.2226
-21.0622
-20.8806
-20.7023
-20.5515
-20.4171
-20.2997
-20.2048
-20.1219
-20.0448
-19.9693
-19.9042
-19.8596
-19.8421
-19.8474
-19.8705
-19.9272
-20.0161
-20.138
-20.3581
-20.7607
-21.4579
-22.4813
-23.8764
-25.6775
-27.4568
-28.6377
-29.2079
-29.3923
-29.3914
-29.3268
-29.2608
-29.2223
-30.1732
-29.8179
-29.2487
-28.492
-27.7359
-27.1308
-26.6025
-26.1695
-25.8804
-25.6528
-25.4336
-25.1483
-24.8404
-24.5262
-24.1443
-23.7742
-23.4955
-23.2524
-23.0548
-22.9356
-22.843
-22.7447
-22.5948
-22.4252
-22.251
-22.0367
-21.8368
-21.7039
-21.5999
-21.497
-21.3554
-21.1984
-21.0359
-20.838
-20.6428
-20.4877
-20.3474
-20.2237
-20.128
-20.0429
-19.9608
-19.8743
-19.7958
-19.7389
-19.7123
-19.7071
-19.7113
-19.751
-19.8167
-19.8902
-20.0559
-20.4107
-21.1126
-22.1787
-23.6822
-25.7864
-27.909
-29.19
-29.6998
-29.7825
-29.6927
-29.565
-29.4603
-29.4036
-30.5874
-30.1556
-29.5146
-28.6294
-27.7638
-27.1332
-26.5721
-26.1125
-25.8493
-25.6496
-25.4606
-25.1643
-24.8469
-24.5392
-24.1175
-23.7079
-23.4352
-23.1867
-22.9825
-22.8877
-22.8185
-22.7431
-22.5875
-22.4125
-22.2432
-22.005
-21.7835
-21.6623
-21.5732
-21.4865
-21.339
-21.1761
-21.0155
-20.7968
-20.5805
-20.4247
-20.2785
-20.1472
-20.0531
-19.9668
-19.8812
-19.7823
-19.6892
-19.6193
-19.5851
-19.5717
-19.5542
-19.5789
-19.625
-19.6405
-19.7408
-20.0282
-20.7321
-21.8291
-23.414
-25.8882
-28.4571
-29.8243
-30.2293
-30.1796
-29.9863
-29.7897
-29.6445
-29.5693
-31.0379
-30.505
-29.7996
-28.7584
-27.761
-27.1268
-26.5302
-26.0333
-25.8114
-25.6453
-25.4999
-25.1821
-24.8519
-24.5659
-24.0903
-23.6272
-23.3745
-23.1182
-22.8997
-22.8386
-22.7958
-22.7517
-22.583
-22.3997
-22.2444
-21.9725
-21.7199
-21.6184
-21.5474
-21.4842
-21.3252
-21.1545
-21.0034
-20.7571
-20.5133
-20.3632
-20.2107
-20.0693
-19.9805
-19.894
-19.8066
-19.6936
-19.5843
-19.5004
-19.461
-19.4426
-19.3987
-19.4117
-19.4453
-19.3909
-19.4158
-19.6099
-20.3185
-21.433
-23.046
-25.9739
-29.132
-30.552
-30.7931
-30.5777
-30.2674
-29.9982
-29.8119
-29.7182
-31.5301
-30.8592
-30.1106
-28.8768
-27.7167
-27.1161
-26.4786
-25.926
-25.7687
-25.6387
-25.5573
-25.2007
-24.8516
-24.6131
-24.0628
-23.526
-23.3167
-23.0484
-22.8024
-22.7896
-22.7743
-22.7741
-22.5803
-22.3842
-22.2589
-21.9392
-21.6418
-21.5728
-21.5219
-21.4929
-21.3134
-21.1317
-21.0026
-20.7188
-20.4383
-20.3047
-20.1446
-19.9887
-19.9108
-19.8245
-19.7382
-19.6083
-19.481
-19.3816
-19.3398
-19.322
-19.2434
-19.2494
-19.2834
-19.1431
-19.0854
-19.1507
-19.876
-20.9966
-22.5433
-26.0296
-29.977
-31.3838
-31.3851
-30.9694
-30.5317
-30.188
-29.9612
-29.8498
-32.0714
-31.2065
-30.459
-28.9823
-27.6157
-27.1095
-26.4202
-25.7819
-25.7249
-25.6275
-25.6409
-25.2177
-24.8399
-24.6908
-24.0351
-23.3949
-23.2675
-22.9791
-22.6849
-22.7429
-22.7523
-22.8158
-22.5781
-22.3621
-22.293
-21.9051
-21.5432
-21.5273
-21.4951
-21.517
-21.3024
-21.1043
-21.018
-20.6819
-20.3512
-20.2514
-20.0808
-19.9036
-19.845
-19.758
-19.6775
-19.5265
-19.3794
-19.262
-19.2213
-19.2131
-19.086
-19.0912
-19.1469
-18.8974
-18.7562
-18.6421
-19.411
-20.5338
-21.8589
-26.0347
-31.0516
-32.3274
-31.9954
-31.3466
-30.7746
-30.3573
-30.0919
-29.9638
-32.6723
-31.5278
-30.862
-29.0726
-27.4366
-27.1206
-26.3592
-25.5884
-25.6867
-25.6061
-25.7627
-25.2297
-24.8069
-24.8137
-24.0071
-23.2203
-23.2358
-22.9134
-22.5388
-22.7028
-22.726
-22.8846
-22.5739
-22.3269
-22.3562
-21.8699
-21.4156
-21.4853
-21.4644
-21.5628
-21.2903
-21.0675
-21.0567
-20.6461
-20.2457
-20.2072
-20.0205
-19.8107
-19.7847
-19.6938
-19.6261
-19.4479
-19.2792
-19.1402
-19.1049
-19.1203
-18.9228
-18.9352
-19.0455
-18.6521
-18.4386
-18.0709
-18.9319
-20.0711
-20.931
-25.9593
-32.4382
-33.385
-32.6101
-31.7
-30.992
-30.5045
-30.2037
-30.0606
-33.3475
-31.7937
-31.3459
-29.1454
-27.1497
-27.1699
-26.3017
-25.327
-25.6657
-25.5651
-25.9396
-25.2316
-24.7378
-25.0025
-23.9786
-22.9831
-23.2349
-22.8551
-22.3518
-22.6767
-22.6892
-22.9914
-22.5644
-22.2691
-22.4618
-21.8334
-21.2477
-21.4529
-21.4247
-21.639
-21.2744
-21.0139
-21.1288
-20.6109
-20.1132
-20.1778
-19.9649
-19.7059
-19.7328
-19.6305
-19.5866
-19.3719
-19.1809
-19.0146
-18.9892
-19.0501
-18.7484
-18.7774
-18.9927
-18.4017
-18.148
-17.4167
-18.449
-19.652
-19.6778
-25.7602
-34.2495
-34.5487
-33.2103
-32.0205
-31.1806
-30.6289
-30.2966
-30.1404
-34.118
-31.9598
-31.949
-29.1986
-26.7136
-27.288
-26.2551
-24.9718
-25.6805
-25.4879
-26.1955
-25.2163
-24.611
-25.2862
-23.9491
-22.6563
-23.2845
-22.8091
-22.1066
-22.6767
-22.6309
-23.1521
-22.5448
-22.1748
-22.6285
-21.7951
-21.0237
-21.4405
-21.3674
-21.7583
-21.2508
-20.9325
-21.2484
-20.5756
-19.9413
-20.1719
-19.9153
-19.5827
-19.6934
-19.5652
-19.5625
-19.2973
-19.0848
-18.8832
-18.8717
-19.0121
-18.5551
-18.6116
-19.0067
-18.1354
-17.9081
-16.6496
-17.9732
-19.3444
-17.9932
-25.3771
-36.6387
-35.7943
-33.7728
-32.2988
-31.3377
-30.7301
-30.3712
-30.2042
-35.0134
-31.9618
-32.7266
-29.2299
-26.0723
-27.5184
-26.2287
-24.4861
-25.7605
-25.3484
-26.5638
-25.1743
-24.3961
-25.705
-23.9176
-22.2029
-23.4126
-22.7818
-21.7788
-22.7215
-22.5337
-23.3884
-22.5087
-22.0244
-22.8823
-21.7539
-20.7224
-21.4643
-21.2786
-21.9383
-21.2145
-20.8084
-21.4352
-20.5391
-19.7136
-20.2019
-19.8735
-19.4323
-19.6732
-19.4937
-19.5588
-19.2221
-18.9921
-18.7436
-18.7481
-19.0194
-18.3327
-18.4284
-19.113
-17.8337
-17.7538
-15.7266
-17.5145
-19.2485
-15.7411
-24.7268
-39.8116
-37.0738
-34.2709
-32.5273
-31.4618
-30.8085
-30.4284
-30.2528
-36.0745
-31.7086
-33.7557
-29.2371
-25.1502
-27.9217
-26.2338
-23.8192
-25.9495
-25.1062
-27.0907
-25.0932
-24.0509
-26.3131
-23.8827
-21.5733
-23.6584
-22.7806
-21.335
-22.8399
-22.3711
-23.7306
-22.4477
-21.7906
-23.2582
-21.708
-20.3152
-21.5489
-21.1372
-22.203
-21.1584
-20.6204
-21.7159
-20.4995
-19.4077
-20.2851
-19.8411
-19.2429
-19.682
-19.409
-19.5821
-19.1431
-18.9046
-18.593
-18.6121
-19.0906
-18.0675
-18.2138
-19.3462
-17.4651
-17.7363
-14.588
-17.0793
-19.5068
-12.7486
-23.6962
-44.0417
-38.3039
-34.6765
-32.7002
-31.5528
-30.865
-30.4693
-30.2874
-37.3572
-31.074
-35.1424
-29.2173
-23.8477
-28.5805
-26.2832
-22.9028
-26.3121
-24.7016
-27.8386
-24.9571
-23.5182
-27.1823
-23.8418
-20.7016
-24.0748
-22.8142
-20.7295
-23.0737
-22.1037
-24.2198
-22.3509
-21.437
-23.8028
-21.6545
-19.7646
-21.7302
-20.9114
-22.5854
-21.0737
-20.3406
-22.1262
-20.454
-18.9944
-20.4456
-19.8195
-18.998
-19.7339
-19.3008
-19.642
-19.0553
-18.8253
-18.4286
-18.454
-19.2507
-17.7421
-17.9482
-19.754
-16.981
-17.9286
-13.1532
-16.6672
-20.3157
-8.79957
-22.1344
-49.6873
-39.3536
-34.9629
-32.8143
-31.6113
-30.9009
-30.4952
-30.3093
-38.9366
-29.8873
-37.0288
-29.1675
-22.0359
-29.605
-26.3918
-21.6466
-26.9407
-24.05
-28.8924
-24.7461
-22.7224
-28.4061
-23.7919
-19.504
-24.7341
-22.8944
-19.9053
-23.4861
-21.6787
-24.9147
-22.2042
-20.9117
-24.5733
-21.59
-19.0286
-22.0663
-20.5619
-23.1359
-20.9502
-19.9312
-22.7117
-20.3993
-18.438
-20.7178
-19.8114
-18.6765
-19.849
-19.154
-19.7513
-18.9528
-18.7607
-18.2496
-18.2606
-19.5333
-17.335
-17.6054
-20.4021
-16.3115
-18.4342
-11.3174
-16.2667
-21.9389
-3.628
-19.8442
-57.2131
-40.0277
-35.1112
-32.8706
-31.6399
-30.9186
-30.508
-30.3201
)
;

boundaryField
{
    left
    {
        type            calculated;
        value           nonuniform List<scalar> 
32
(
-26.4237
-26.446
-26.4887
-26.55
-26.6284
-26.723
-26.8331
-26.9584
-27.0987
-27.254
-27.4246
-27.6111
-27.8141
-28.0344
-28.273
-28.5312
-28.8104
-29.1122
-29.4384
-29.7913
-30.1732
-30.5874
-31.0379
-31.5301
-32.0714
-32.6723
-33.3475
-34.118
-35.0134
-36.0745
-37.3572
-38.9366
)
;
    }
    right
    {
        type            calculated;
        value           nonuniform List<scalar> 
32
(
-25.7943
-25.829
-25.895
-25.9889
-26.1079
-26.2493
-26.4108
-26.5901
-26.7849
-26.9928
-27.2115
-27.4383
-27.6706
-27.9057
-28.1408
-28.373
-28.5998
-28.8184
-29.0267
-29.2223
-29.4036
-29.5693
-29.7182
-29.8498
-29.9638
-30.0606
-30.1404
-30.2042
-30.2528
-30.2874
-30.3093
-30.3201
)
;
    }
    interface
    {
        type            calculated;
        value           nonuniform List<scalar> 
64
(
-39.8111
-29.1316
-38.1172
-29.1347
-20.9845
-30.2244
-26.4629
-20.9208
-27.3351
-23.6502
-29.5079
-24.6193
-22.2479
-29.1198
-23.7643
-18.8121
-25.135
-22.9479
-19.4308
-23.7464
-21.4195
-25.3223
-22.1163
-20.5984
-25.0228
-21.5546
-18.609
-22.2822
-20.3512
-23.461
-20.8775
-19.6886
-23.0547
-20.3693
-18.1194
-20.887
-19.8111
-18.4936
-19.9253
-19.0688
-19.8201
-18.897
-18.7333
-18.1565
-18.1534
-19.7101
-17.1081
-17.411
-20.7959
-15.9202
-18.7805
-10.2846
-16.0672
-22.9918
-0.700009
-18.4891
-61.5114
-40.2419
-35.149
-32.8847
-31.6472
-30.9232
-30.5114
-30.3231
)
;
    }
    bottom
    {
        type            calculated;
        value           nonuniform List<scalar> 
64
(
-26.4179
-26.3905
-26.3364
-26.2572
-26.1549
-26.0321
-25.8914
-25.7357
-25.5677
-25.39
-25.205
-25.0148
-24.8213
-24.6263
-24.4312
-24.2374
-24.046
-23.8579
-23.6738
-23.4944
-23.3201
-23.1512
-22.9881
-22.8309
-22.6799
-22.5354
-22.3976
-22.2668
-22.1436
-22.0282
-21.9214
-21.8236
-21.7358
-21.6586
-21.5931
-21.5403
-21.5012
-21.4771
-21.4691
-21.4785
-21.5066
-21.5546
-21.6237
-21.715
-21.8296
-21.9681
-22.1308
-22.3178
-22.5283
-22.7609
-23.0132
-23.2819
-23.5628
-23.8506
-24.1394
-24.4227
-24.6937
-24.9459
-25.1732
-25.3705
-25.5332
-25.6581
-25.7427
-25.7853
)
;
    }
    defaultFaces
    {
        type            empty;
    }
}


// ************************************************************************* //
