/*--------------------------------*- C++ -*----------------------------------*\
| =========                 |                                                 |
| \\      /  F ield         | OpenFOAM: The Open Source CFD Toolbox           |
|  \\    /   O peration     | Version:  5.x                                   |
|   \\  /    A nd           | Web:      www.OpenFOAM.org                      |
|    \\/     M anipulation  |                                                 |
\*---------------------------------------------------------------------------*/
FoamFile
{
    version     2.0;
    format      ascii;
    class       volScalarField;
    location    "6.2";
    object      gradTy;
}
// * * * * * * * * * * * * * * * * * * * * * * * * * * * * * * * * * * * * * //

dimensions      [0 -1 0 1 0 0 0];

internalField   nonuniform List<scalar> 
2048
(
-26.4235
-26.3959
-26.3415
-26.2619
-26.1591
-26.0357
-25.8944
-25.7381
-25.5696
-25.3914
-25.2059
-25.0152
-24.8214
-24.6261
-24.4307
-24.2367
-24.0451
-23.8568
-23.6726
-23.4931
-23.3187
-23.1498
-22.9866
-22.8294
-22.6784
-22.5338
-22.3959
-22.2651
-22.1417
-22.0263
-21.9193
-21.8214
-21.7334
-21.656
-21.5903
-21.5373
-21.498
-21.4736
-21.4653
-21.4745
-21.5023
-21.55
-21.6189
-21.7101
-21.8245
-21.9629
-22.1257
-22.3129
-22.5237
-22.7567
-23.0097
-23.2793
-23.5613
-23.8504
-24.1406
-24.4253
-24.6977
-24.9511
-25.1796
-25.3778
-25.5412
-25.6667
-25.7515
-25.7944
-26.4458
-26.4176
-26.3619
-26.2806
-26.1757
-26.0501
-25.9065
-25.748
-25.5774
-25.3972
-25.21
-25.0178
-24.8226
-24.6261
-24.4297
-24.2347
-24.0424
-23.8535
-23.6688
-23.489
-23.3143
-23.1452
-22.9818
-22.8244
-22.6732
-22.5283
-22.3902
-22.2591
-22.1353
-22.0194
-21.9119
-21.8134
-21.7247
-21.6466
-21.5801
-21.5261
-21.4859
-21.4605
-21.4513
-21.4594
-21.4862
-21.5329
-21.6009
-21.6913
-21.8051
-21.9432
-22.106
-22.2937
-22.5057
-22.7406
-22.9962
-23.2693
-23.5556
-23.8496
-24.1451
-24.4352
-24.7129
-24.9713
-25.2041
-25.4058
-25.5721
-25.6994
-25.7856
-25.829
-26.4885
-26.459
-26.401
-26.3163
-26.2074
-26.0775
-25.9295
-25.7667
-25.592
-25.4083
-25.2177
-25.0226
-24.8248
-24.626
-24.4276
-24.2309
-24.0372
-23.8471
-23.6616
-23.4811
-23.3059
-23.1364
-22.9727
-22.8149
-22.6633
-22.5181
-22.3794
-22.2477
-22.1232
-22.0065
-21.898
-21.7984
-21.7084
-21.6289
-21.5607
-21.5051
-21.4631
-21.4358
-21.4246
-21.4308
-21.4557
-21.5005
-21.5667
-21.6555
-21.7681
-21.9055
-22.0684
-22.257
-22.4711
-22.7095
-22.9701
-23.2498
-23.5442
-23.8476
-24.1534
-24.4542
-24.7422
-25.0101
-25.2511
-25.4595
-25.6309
-25.762
-25.8504
-25.895
-26.5497
-26.5183
-26.4567
-26.3671
-26.2524
-26.1161
-25.9617
-25.7928
-25.6124
-25.4234
-25.2283
-25.0291
-24.8276
-24.6255
-24.4243
-24.2253
-24.0295
-23.838
-23.6512
-23.4698
-23.294
-23.1239
-22.9598
-22.8016
-22.6495
-22.5037
-22.3644
-22.2318
-22.1064
-21.9885
-21.8786
-21.7774
-21.6856
-21.604
-21.5336
-21.4756
-21.431
-21.4011
-21.3872
-21.3906
-21.4126
-21.4547
-21.5183
-21.6049
-21.7157
-21.8519
-22.0146
-22.2044
-22.4212
-22.6643
-22.932
-23.2211
-23.5271
-23.8442
-24.1649
-24.481
-24.7841
-25.0657
-25.3185
-25.5365
-25.7151
-25.8512
-25.9429
-25.9889
-26.6282
-26.5942
-26.5277
-26.4315
-26.309
-26.1644
-26.0017
-25.8249
-25.6373
-25.4419
-25.241
-25.0366
-24.8306
-24.6246
-24.4199
-24.2179
-24.0196
-23.8261
-23.6379
-23.4554
-23.2789
-23.1083
-22.9437
-22.785
-22.6323
-22.4858
-22.3456
-22.2121
-22.0854
-21.9661
-21.8545
-21.7513
-21.6572
-21.5731
-21.4999
-21.4388
-21.391
-21.3578
-21.3404
-21.3403
-21.3587
-21.3973
-21.4576
-21.5411
-21.6494
-21.7839
-21.9461
-22.1369
-22.3569
-22.6057
-22.882
-23.1829
-23.5039
-23.8385
-24.1787
-24.5151
-24.8377
-25.137
-25.4049
-25.6349
-25.8225
-25.9647
-26.0601
-26.1079
-26.7227
-26.6855
-26.6129
-26.5082
-26.376
-26.2211
-26.0482
-25.8619
-25.6657
-25.4627
-25.2551
-25.0449
-24.8336
-24.6229
-24.4141
-24.2086
-24.0075
-23.8117
-23.6219
-23.4383
-23.261
-23.0899
-22.9248
-22.7656
-22.6124
-22.4651
-22.3239
-22.1892
-22.0612
-21.9402
-21.8267
-21.7211
-21.6243
-21.5371
-21.4606
-21.396
-21.3444
-21.3072
-21.2857
-21.2814
-21.2956
-21.3299
-21.3861
-21.4658
-21.5708
-21.703
-21.8641
-22.0556
-22.2787
-22.5338
-22.8199
-23.1348
-23.4738
-23.83
-24.1942
-24.5555
-24.9023
-25.2234
-25.5095
-25.7536
-25.9513
-26.1003
-26.1997
-26.2493
-26.8329
-26.7916
-26.7112
-26.5962
-26.4521
-26.2847
-26.0999
-25.9025
-25.6966
-25.485
-25.27
-25.0532
-24.8362
-24.6202
-24.4068
-24.1973
-23.993
-23.7948
-23.6032
-23.4186
-23.2407
-23.0691
-22.9037
-22.744
-22.5901
-22.4419
-22.2997
-22.1638
-22.0343
-21.9115
-21.7958
-21.6877
-21.5878
-21.4971
-21.4168
-21.348
-21.2921
-21.2505
-21.2243
-21.2152
-21.2245
-21.2539
-21.3052
-21.3803
-21.4812
-21.6102
-21.7695
-21.9611
-22.1871
-22.4485
-22.7455
-23.0761
-23.4359
-23.8176
-24.2106
-24.602
-24.9777
-25.3246
-25.6317
-25.8917
-26.1003
-26.2562
-26.3595
-26.4108
-26.9581
-26.9118
-26.8221
-26.6945
-26.536
-26.354
-26.1553
-25.9455
-25.7288
-25.508
-25.2851
-25.0614
-24.8381
-24.6165
-24.398
-24.1841
-23.9762
-23.7754
-23.5821
-23.3965
-23.2181
-23.0464
-22.8806
-22.7206
-22.566
-22.4169
-22.2736
-22.1364
-22.0053
-21.8807
-21.7626
-21.6516
-21.5484
-21.4539
-21.3693
-21.296
-21.2353
-21.1887
-21.1574
-21.143
-21.1468
-21.1707
-21.2164
-21.2861
-21.382
-21.5069
-21.6633
-21.8542
-22.0824
-22.3499
-22.6581
-23.0058
-23.3892
-23.8003
-24.227
-24.6539
-25.0637
-25.4405
-25.7714
-26.0484
-26.2683
-26.4307
-26.5374
-26.5901
-27.0984
-27.0459
-26.9448
-26.8021
-26.6267
-26.4277
-26.2133
-25.9897
-25.7613
-25.531
-25.2999
-25.0691
-24.8392
-24.6115
-24.3875
-24.1688
-23.957
-23.7535
-23.5585
-23.3721
-23.1936
-23.0219
-22.8561
-22.6957
-22.5404
-22.3904
-22.246
-22.1074
-21.9748
-21.8482
-21.7277
-21.6137
-21.5069
-21.4081
-21.3189
-21.2406
-21.1748
-21.1228
-21.086
-21.0658
-21.0637
-21.0814
-21.1208
-21.1843
-21.2744
-21.3941
-21.5466
-21.7356
-21.9648
-22.2377
-22.557
-22.9229
-23.3323
-23.7769
-24.2427
-24.711
-25.1606
-25.5715
-25.9286
-26.2236
-26.4542
-26.6223
-26.7314
-26.7849
-27.2537
-27.1937
-27.0789
-26.9182
-26.723
-26.5045
-26.2724
-26.0338
-25.7934
-25.5532
-25.314
-25.076
-24.8394
-24.6053
-24.3753
-24.1513
-23.9354
-23.729
-23.5325
-23.3457
-23.1674
-22.9961
-22.8305
-22.6699
-22.5139
-22.3628
-22.2171
-22.0772
-21.9431
-21.8147
-21.6918
-21.5746
-21.4638
-21.3605
-21.2662
-21.1826
-21.1112
-21.0536
-21.011
-20.9847
-20.9762
-20.9872
-21.0197
-21.0762
-21.1595
-21.273
-21.4203
-21.6059
-21.8346
-22.1117
-22.4415
-22.8262
-23.2638
-23.7459
-24.2567
-24.7733
-25.2689
-25.7185
-26.1041
-26.4172
-26.6574
-26.8293
-26.9394
-26.9928
-27.4244
-27.3554
-27.224
-27.0421
-26.8237
-26.583
-26.3313
-26.0768
-25.8239
-25.5741
-25.3271
-25.0821
-24.8387
-24.5979
-24.3613
-24.1316
-23.9113
-23.7019
-23.5041
-23.3173
-23.1397
-22.9692
-22.8042
-22.6434
-22.4867
-22.3345
-22.1875
-22.0462
-21.9107
-21.7806
-21.6553
-21.5348
-21.4199
-21.3117
-21.212
-21.1226
-21.0454
-20.9819
-20.9332
-20.9006
-20.8853
-20.8891
-20.9141
-20.9629
-21.0385
-21.1446
-21.2853
-21.4658
-21.6923
-21.9717
-22.3107
-22.7142
-23.1818
-23.7058
-24.268
-24.8405
-25.3895
-25.8827
-26.2986
-26.6291
-26.8768
-27.0502
-27.1592
-27.2115
-27.6108
-27.531
-27.38
-27.1728
-26.9276
-26.6618
-26.3887
-26.1174
-25.8521
-25.5932
-25.339
-25.0873
-24.8372
-24.5893
-24.3457
-24.1097
-23.8845
-23.6721
-23.4733
-23.2869
-23.1107
-22.9418
-22.7776
-22.6168
-22.4592
-22.3056
-22.1571
-22.0146
-21.878
-21.7463
-21.6187
-21.4949
-21.3756
-21.2621
-21.1565
-21.0612
-20.9779
-20.9082
-20.8533
-20.8142
-20.792
-20.7882
-20.8051
-20.8455
-20.9125
-21.0101
-21.1427
-21.3164
-21.5384
-21.8177
-22.164
-22.5854
-23.0845
-23.6545
-24.2753
-24.9129
-25.5235
-26.0657
-26.5135
-26.8597
-27.1117
-27.2833
-27.3885
-27.4383
-27.8138
-27.7209
-27.5464
-27.3095
-27.0334
-26.7393
-26.4431
-26.1543
-25.877
-25.61
-25.3495
-25.0918
-24.835
-24.5798
-24.3284
-24.0854
-23.8549
-23.6395
-23.4399
-23.2548
-23.0809
-22.9141
-22.7511
-22.5903
-22.4316
-22.2763
-22.1262
-21.9826
-21.8451
-21.7123
-21.5825
-21.4553
-21.3314
-21.2122
-21.1004
-20.9986
-20.9091
-20.8332
-20.7721
-20.7264
-20.697
-20.6853
-20.6936
-20.7249
-20.7826
-20.8706
-20.9937
-21.1585
-21.3735
-21.6498
-22.0006
-22.4383
-22.9697
-23.5898
-24.2771
-24.9903
-25.6727
-26.2699
-26.7502
-27.1094
-27.3613
-27.5267
-27.625
-27.6706
-28.0341
-27.9256
-27.7232
-27.4514
-27.1396
-26.8142
-26.493
-26.1865
-25.898
-25.6243
-25.3589
-25.0958
-24.8326
-24.5695
-24.3096
-24.0586
-23.8223
-23.6038
-23.4039
-23.2209
-23.0503
-22.8864
-22.7251
-22.5643
-22.4044
-22.2469
-22.0949
-21.9502
-21.8124
-21.6788
-21.5472
-21.4166
-21.2877
-21.1624
-21.0438
-20.9354
-20.8394
-20.7574
-20.6901
-20.6378
-20.6011
-20.5812
-20.5805
-20.6021
-20.6498
-20.7272
-20.8395
-20.9934
-21.1985
-21.4682
-21.8197
-22.2712
-22.8348
-23.5091
-24.2716
-25.0731
-25.8394
-26.498
-27.0108
-27.3784
-27.6243
-27.7783
-27.8662
-27.9057
-28.2727
-28.1455
-27.9101
-27.5975
-27.2448
-26.8847
-26.537
-26.2126
-25.9143
-25.6358
-25.3672
-25.0997
-24.8301
-24.5589
-24.2893
-24.0291
-23.7865
-23.5649
-23.3652
-23.1853
-23.0192
-22.8594
-22.7
-22.5392
-22.3776
-22.2174
-22.063
-21.9176
-21.78
-21.6464
-21.5131
-21.3791
-21.2451
-21.113
-20.9871
-20.8717
-20.7692
-20.681
-20.6077
-20.5491
-20.5051
-20.4767
-20.4665
-20.478
-20.5151
-20.5812
-20.6811
-20.8222
-21.0145
-21.2734
-21.621
-22.0824
-22.6774
-23.4092
-24.2563
-25.1614
-26.0266
-26.7537
-27.2974
-27.667
-27.8997
-28.0362
-28.1094
-28.1408
-28.531
-28.3813
-28.1071
-27.7466
-27.3472
-26.9492
-26.5736
-26.2315
-25.9252
-25.6445
-25.3748
-25.1039
-24.8282
-24.5484
-24.2676
-23.9969
-23.7473
-23.5225
-23.3234
-23.148
-22.9881
-22.8334
-22.6764
-22.5154
-22.3517
-22.1878
-22.0303
-21.8845
-21.748
-21.6152
-21.4807
-21.3433
-21.2038
-21.0643
-20.9304
-20.8077
-20.6987
-20.6044
-20.5255
-20.4608
-20.4095
-20.3724
-20.3523
-20.3533
-20.3793
-20.4335
-20.52
-20.6464
-20.8228
-21.0661
-21.404
-21.8704
-22.4947
-23.2865
-24.228
-25.2552
-26.2381
-27.0414
-27.6124
-27.9754
-28.1857
-28.2977
-28.3518
-28.373
-28.8102
-28.6337
-28.3142
-27.8976
-27.4449
-27.0061
-26.6015
-26.2419
-25.9301
-25.6504
-25.3824
-25.1089
-24.8272
-24.5385
-24.2447
-23.9615
-23.7045
-23.4765
-23.2784
-23.1091
-22.9571
-22.8091
-22.6547
-22.4933
-22.3269
-22.1581
-21.9966
-21.8508
-21.7167
-21.5858
-21.4503
-21.3094
-21.1644
-21.0165
-20.8737
-20.7436
-20.628
-20.5279
-20.4437
-20.3734
-20.3151
-20.269
-20.2385
-20.2287
-20.2435
-20.2852
-20.3572
-20.4674
-20.625
-20.8474
-21.1689
-21.6337
-22.2838
-23.137
-24.1826
-25.3545
-26.479
-27.3665
-27.9586
-28.3032
-28.4805
-28.5604
-28.5908
-28.5998
-29.112
-28.9032
-28.5313
-28.0492
-27.5356
-27.0539
-26.6192
-26.2425
-25.9284
-25.6538
-25.3907
-25.1154
-24.8277
-24.53
-24.2208
-23.9225
-23.6579
-23.4265
-23.2297
-23.0683
-22.9267
-22.7871
-22.6353
-22.473
-22.3038
-22.1282
-21.9614
-21.8162
-21.6861
-21.5586
-21.4223
-21.2779
-21.1272
-20.9699
-20.8169
-20.6794
-20.5574
-20.4516
-20.3628
-20.2875
-20.2224
-20.167
-20.1257
-20.1046
-20.1082
-20.1374
-20.1941
-20.2868
-20.4231
-20.6186
-20.9157
-21.3707
-22.0422
-22.9561
-24.1144
-25.4588
-26.7559
-27.7355
-28.3385
-28.6498
-28.7817
-28.8214
-28.8237
-28.8185
-29.4382
-29.1905
-28.7589
-28.1999
-27.6166
-27.0911
-26.6257
-26.2318
-25.9198
-25.655
-25.4008
-25.1237
-24.83
-24.524
-24.1959
-23.879
-23.6074
-23.3725
-23.1768
-23.0258
-22.8973
-22.7683
-22.6186
-22.4549
-22.2828
-22.0981
-21.9238
-21.7805
-21.6563
-21.5342
-21.397
-21.2488
-21.0928
-20.9245
-20.7599
-20.6153
-20.487
-20.3755
-20.2831
-20.2035
-20.1321
-20.0669
-20.0141
-19.9814
-19.9742
-19.9911
-20.0315
-20.1062
-20.2192
-20.3815
-20.6451
-21.0801
-21.7675
-22.739
-24.0158
-25.5671
-27.0779
-28.1563
-28.7543
-29.0136
-29.0865
-29.0779
-29.0479
-29.0267
-29.7911
-29.4955
-28.9975
-28.348
-27.6847
-27.1167
-26.6202
-26.208
-25.9037
-25.6544
-25.4143
-25.1345
-24.8341
-24.5219
-24.1702
-23.8301
-23.553
-23.3143
-23.1188
-22.9815
-22.8692
-22.7536
-22.605
-22.439
-22.2647
-22.0676
-21.8827
-21.7431
-21.6275
-21.5132
-21.3746
-21.2224
-21.062
-20.8804
-20.7021
-20.5513
-20.4169
-20.2995
-20.2047
-20.1217
-20.0446
-19.9692
-19.904
-19.8595
-19.842
-19.8473
-19.8704
-19.9271
-20.0161
-20.138
-20.3581
-20.7606
-21.4579
-22.4812
-23.8764
-25.6775
-27.4568
-28.6377
-29.2079
-29.3923
-29.3914
-29.3268
-29.2608
-29.2223
-30.173
-29.8177
-29.2485
-28.4918
-27.7356
-27.1305
-26.6022
-26.1691
-25.88
-25.6523
-25.4331
-25.1479
-24.8399
-24.5258
-24.1439
-23.7739
-23.4952
-23.2522
-23.0546
-22.9354
-22.8428
-22.7446
-22.5946
-22.425
-22.2508
-22.0365
-21.8366
-21.7038
-21.5998
-21.4969
-21.3553
-21.1983
-21.0357
-20.8378
-20.6426
-20.4875
-20.3472
-20.2235
-20.1279
-20.0427
-19.9607
-19.8742
-19.7957
-19.7388
-19.7122
-19.707
-19.7112
-19.751
-19.8167
-19.8902
-20.0559
-20.4107
-21.1126
-22.1787
-23.6822
-25.7864
-27.909
-29.19
-29.6998
-29.7825
-29.6928
-29.565
-29.4603
-29.4037
-30.5873
-30.1554
-29.5144
-28.6292
-27.7635
-27.133
-26.5719
-26.1122
-25.8489
-25.6492
-25.4602
-25.1638
-24.8463
-24.5387
-24.1171
-23.7076
-23.435
-23.1865
-22.9824
-22.8876
-22.8184
-22.743
-22.5873
-22.4124
-22.2431
-22.0049
-21.7834
-21.6622
-21.5732
-21.4865
-21.3389
-21.176
-21.0154
-20.7966
-20.5803
-20.4245
-20.2783
-20.147
-20.053
-19.9667
-19.881
-19.7822
-19.6891
-19.6192
-19.5851
-19.5716
-19.5542
-19.5789
-19.625
-19.6406
-19.7409
-20.0282
-20.7321
-21.829
-23.414
-25.8882
-28.4571
-29.8243
-30.2293
-30.1797
-29.9863
-29.7897
-29.6445
-29.5693
-31.0378
-30.5049
-29.7994
-28.7582
-27.7608
-27.1265
-26.53
-26.033
-25.8111
-25.645
-25.4996
-25.1818
-24.8513
-24.5654
-24.0899
-23.627
-23.3743
-23.1181
-22.8997
-22.8386
-22.7958
-22.7516
-22.5828
-22.3996
-22.2443
-21.9725
-21.7199
-21.6184
-21.5474
-21.4842
-21.3252
-21.1545
-21.0033
-20.757
-20.5132
-20.3631
-20.2106
-20.0691
-19.9804
-19.8939
-19.8065
-19.6935
-19.5842
-19.5004
-19.4609
-19.4425
-19.3986
-19.4117
-19.4453
-19.391
-19.4159
-19.61
-20.3185
-21.433
-23.046
-25.9739
-29.1321
-30.5521
-30.7931
-30.5777
-30.2675
-29.9982
-29.8119
-29.7182
-31.53
-30.8592
-30.1105
-28.8766
-27.7165
-27.1159
-26.4785
-25.9257
-25.7685
-25.6385
-25.5569
-25.2004
-24.8511
-24.6126
-24.0625
-23.5258
-23.3166
-23.0483
-22.8025
-22.7896
-22.7744
-22.7741
-22.5803
-22.3842
-22.2588
-21.9393
-21.6419
-21.5729
-21.522
-21.493
-21.3134
-21.1317
-21.0025
-20.7188
-20.4382
-20.3046
-20.1445
-19.9886
-19.9107
-19.8244
-19.7382
-19.6083
-19.481
-19.3816
-19.3397
-19.322
-19.2433
-19.2494
-19.2835
-19.1432
-19.0855
-19.1508
-19.8761
-20.9966
-22.5433
-26.0296
-29.9771
-31.3839
-31.3851
-30.9695
-30.5318
-30.1881
-29.9613
-29.8498
-32.0714
-31.2065
-30.4589
-28.9821
-27.6155
-27.1094
-26.4202
-25.7817
-25.7248
-25.6273
-25.6406
-25.2175
-24.8394
-24.6904
-24.0348
-23.3947
-23.2675
-22.9791
-22.6851
-22.743
-22.7524
-22.8159
-22.5781
-22.3621
-22.293
-21.9052
-21.5434
-21.5275
-21.4953
-21.5172
-21.3024
-21.1044
-21.018
-20.6819
-20.3511
-20.2513
-20.0808
-19.9035
-19.845
-19.758
-19.6774
-19.5265
-19.3793
-19.262
-19.2213
-19.2131
-19.086
-19.0912
-19.147
-18.8976
-18.7564
-18.6422
-19.4111
-20.5339
-21.8589
-26.0347
-31.0517
-32.3275
-31.9955
-31.3467
-30.7747
-30.3574
-30.092
-29.9639
-32.6722
-31.5279
-30.862
-29.0724
-27.4364
-27.1205
-26.3594
-25.5882
-25.6867
-25.606
-25.7625
-25.2297
-24.8063
-24.8133
-24.0069
-23.2203
-23.2358
-22.9134
-22.539
-22.703
-22.7262
-22.8847
-22.574
-22.3269
-22.3562
-21.8701
-21.416
-21.4856
-21.4647
-21.563
-21.2903
-21.0677
-21.0568
-20.6461
-20.2457
-20.2071
-20.0205
-19.8107
-19.7847
-19.6939
-19.626
-19.4479
-19.2792
-19.1402
-19.105
-19.1203
-18.9228
-18.9352
-19.0457
-18.6522
-18.4388
-18.071
-18.9321
-20.0711
-20.931
-25.9593
-32.4383
-33.3851
-32.6102
-31.7001
-30.9921
-30.5046
-30.2038
-30.0606
-33.3475
-31.7938
-31.346
-29.1453
-27.1494
-27.1698
-26.3021
-25.3269
-25.6657
-25.565
-25.9395
-25.2318
-24.7373
-25.0021
-23.9784
-22.9831
-23.235
-22.855
-22.3521
-22.677
-22.6894
-22.9916
-22.5644
-22.2691
-22.4618
-21.8337
-21.2482
-21.4533
-21.425
-21.6393
-21.2744
-21.014
-21.1288
-20.611
-20.1133
-20.1778
-19.9649
-19.7058
-19.7327
-19.6305
-19.5866
-19.372
-19.1808
-19.0146
-18.9893
-19.0502
-18.7485
-18.7774
-18.9928
-18.4019
-18.1482
-17.4169
-18.4492
-19.6521
-19.6778
-25.7602
-34.2496
-34.5487
-33.2103
-32.0205
-31.1806
-30.6289
-30.2967
-30.1405
-34.118
-31.9601
-31.9493
-29.1986
-26.7133
-27.2878
-26.2557
-24.9717
-25.6806
-25.4879
-26.1954
-25.2168
-24.6106
-25.2859
-23.949
-22.6564
-23.2847
-22.8089
-22.107
-22.6769
-22.6311
-23.1523
-22.5447
-22.1746
-22.6284
-21.7953
-21.0244
-21.441
-21.3677
-21.7587
-21.2508
-20.9326
-21.2484
-20.5758
-19.9415
-20.172
-19.9154
-19.5825
-19.6933
-19.5653
-19.5625
-19.2975
-19.0848
-18.8831
-18.8717
-19.0122
-18.5552
-18.6116
-19.0068
-18.1355
-17.9082
-16.6497
-17.9733
-19.3445
-17.9933
-25.3771
-36.6387
-35.7943
-33.7728
-32.2988
-31.3377
-30.7301
-30.3713
-30.2042
-35.0135
-31.9624
-32.7272
-29.2301
-26.0719
-27.5181
-26.2296
-24.486
-25.7605
-25.3484
-26.5638
-25.1752
-24.3959
-25.7047
-23.9176
-22.2032
-23.4129
-22.7814
-21.7792
-22.7217
-22.5339
-23.3886
-22.5084
-22.0239
-22.8818
-21.754
-20.7231
-21.4649
-21.279
-21.9387
-21.2143
-20.8082
-21.435
-20.5392
-19.7139
-20.202
-19.8737
-19.4321
-19.6729
-19.4937
-19.5586
-19.2223
-18.992
-18.7434
-18.7481
-19.0196
-18.3328
-18.4283
-19.113
-17.8336
-17.7538
-15.7266
-17.5145
-19.2487
-15.7412
-24.7267
-39.8115
-37.0737
-34.2709
-32.5272
-31.4617
-30.8084
-30.4283
-30.2527
-36.0747
-31.7095
-33.7568
-29.2374
-25.1497
-27.9213
-26.235
-23.8193
-25.9495
-25.1061
-27.0907
-25.0946
-24.051
-26.3129
-23.8828
-21.5738
-23.6586
-22.7798
-21.3351
-22.8401
-22.3712
-23.7307
-22.4471
-21.7896
-23.2571
-21.7078
-20.3161
-21.5497
-21.1377
-22.2036
-21.1581
-20.62
-21.7155
-20.4995
-19.4081
-20.2854
-19.8414
-19.2425
-19.6815
-19.4088
-19.5818
-19.1433
-18.9045
-18.5927
-18.6121
-19.0909
-18.0676
-18.2136
-19.346
-17.4647
-17.736
-14.5877
-17.0792
-19.507
-12.7488
-23.696
-44.0414
-38.3037
-34.6762
-32.6999
-31.5525
-30.8647
-30.469
-30.2871
-37.3575
-31.0753
-35.1442
-29.218
-23.8469
-28.5798
-26.2848
-22.9031
-26.312
-24.7014
-27.8387
-24.9592
-23.519
-27.1824
-23.8422
-20.7024
-24.0751
-22.8129
-20.7293
-23.0738
-22.1037
-24.2198
-22.3498
-21.4351
-23.8006
-21.6537
-19.7657
-21.7315
-20.9122
-22.5862
-21.0731
-20.3397
-22.1253
-20.4537
-18.9949
-20.4462
-19.82
-18.9975
-19.733
-19.3002
-19.6414
-19.0555
-18.8251
-18.4281
-18.4539
-19.2511
-17.7423
-17.9479
-19.7534
-16.9802
-17.9278
-13.1525
-16.6669
-20.3159
-8.79986
-22.1342
-49.6869
-39.353
-34.9623
-32.8137
-31.6107
-30.9003
-30.4946
-30.3087
-38.9371
-29.8889
-37.0309
-29.1679
-22.0343
-29.6038
-26.3932
-21.6458
-26.9396
-24.0487
-28.8917
-24.7488
-22.7237
-28.4066
-23.7921
-19.5037
-24.7329
-22.8909
-19.902
-23.4828
-21.6753
-24.911
-22.2033
-20.9124
-24.5739
-21.5878
-19.0231
-22.061
-20.5571
-23.1307
-20.9482
-19.9306
-22.7113
-20.3983
-18.4365
-20.7163
-19.8105
-18.6758
-19.8478
-19.1532
-19.7505
-18.9516
-18.7585
-18.247
-18.2595
-19.5335
-17.3349
-17.6041
-20.3999
-16.3089
-18.4318
-11.3151
-16.2655
-21.9385
-3.6277
-19.8433
-57.212
-40.0264
-35.1099
-32.8693
-31.6386
-30.9173
-30.5066
-30.319
)
;

boundaryField
{
    left
    {
        type            calculated;
        value           nonuniform List<scalar> 
32
(
-26.4235
-26.4458
-26.4885
-26.5497
-26.6282
-26.7227
-26.8329
-26.9581
-27.0984
-27.2537
-27.4244
-27.6108
-27.8138
-28.0341
-28.2727
-28.531
-28.8102
-29.112
-29.4382
-29.7911
-30.173
-30.5873
-31.0378
-31.53
-32.0714
-32.6722
-33.3475
-34.118
-35.0135
-36.0747
-37.3575
-38.9371
)
;
    }
    right
    {
        type            calculated;
        value           nonuniform List<scalar> 
32
(
-25.7944
-25.829
-25.895
-25.9889
-26.1079
-26.2493
-26.4108
-26.5901
-26.7849
-26.9928
-27.2115
-27.4383
-27.6706
-27.9057
-28.1408
-28.373
-28.5998
-28.8185
-29.0267
-29.2223
-29.4037
-29.5693
-29.7182
-29.8498
-29.9639
-30.0606
-30.1405
-30.2042
-30.2527
-30.2871
-30.3087
-30.319
)
;
    }
    interface
    {
        type            calculated;
        value           nonuniform List<scalar> 
64
(
-39.8117
-29.1333
-38.1193
-29.1346
-20.9822
-30.2228
-26.4639
-20.9188
-27.333
-23.6479
-29.5065
-24.6219
-22.2494
-29.1205
-23.764
-18.8104
-25.1322
-22.9426
-19.4244
-23.74
-21.4127
-25.3151
-22.116
-20.6023
-25.0267
-21.5515
-18.597
-22.2702
-20.3404
-23.4498
-20.8742
-19.6887
-23.055
-20.3676
-18.1157
-20.8832
-19.8087
-18.4928
-19.9241
-19.068
-19.8193
-18.8946
-18.7291
-18.1521
-18.1513
-19.7101
-17.1076
-17.4088
-20.7922
-15.9161
-18.7767
-10.281
-16.0652
-22.9908
-0.699054
-18.4876
-61.5098
-40.2402
-35.1473
-32.8829
-31.6454
-30.9214
-30.5096
-30.3215
)
;
    }
    bottom
    {
        type            calculated;
        value           nonuniform List<scalar> 
64
(
-26.4177
-26.3903
-26.3362
-26.257
-26.1547
-26.0319
-25.8912
-25.7355
-25.5675
-25.3898
-25.2048
-25.0146
-24.8211
-24.6261
-24.431
-24.2372
-24.0458
-23.8577
-23.6736
-23.4942
-23.3199
-23.151
-22.9879
-22.8307
-22.6797
-22.5352
-22.3974
-22.2667
-22.1434
-22.0281
-21.9212
-21.8235
-21.7356
-21.6585
-21.593
-21.5402
-21.5011
-21.477
-21.469
-21.4784
-21.5065
-21.5545
-21.6236
-21.715
-21.8295
-21.968
-22.1308
-22.3178
-22.5283
-22.7609
-23.0132
-23.2819
-23.5628
-23.8506
-24.1395
-24.4227
-24.6937
-24.9459
-25.1732
-25.3705
-25.5332
-25.6581
-25.7427
-25.7853
)
;
    }
    defaultFaces
    {
        type            empty;
    }
}


// ************************************************************************* //
