/*--------------------------------*- C++ -*----------------------------------*\
| =========                 |                                                 |
| \\      /  F ield         | OpenFOAM: The Open Source CFD Toolbox           |
|  \\    /   O peration     | Version:  5.x                                   |
|   \\  /    A nd           | Web:      www.OpenFOAM.org                      |
|    \\/     M anipulation  |                                                 |
\*---------------------------------------------------------------------------*/
FoamFile
{
    version     2.0;
    format      ascii;
    class       volScalarField;
    location    "6.2";
    object      gradTx;
}
// * * * * * * * * * * * * * * * * * * * * * * * * * * * * * * * * * * * * * //

dimensions      [0 -1 0 1 0 0 0];

internalField   nonuniform List<scalar> 
2048
(
0.00630471
0.0187341
0.0306389
0.0417205
0.05175
0.0605783
0.0681349
0.0744176
0.0794762
0.0833935
0.0862694
0.0882083
0.0893121
0.0896777
0.0893977
0.0885611
0.0872547
0.0855622
0.0835612
0.0813203
0.0788952
0.0763265
0.0736391
0.0708432
0.0679364
0.0649067
0.0617345
0.0583942
0.054855
0.0510811
0.0470319
0.0426641
0.0379323
0.032792
0.0272014
0.0211228
0.014524
0.00737876
-0.000332368
-0.00862109
-0.0174889
-0.0269236
-0.0368937
-0.0473418
-0.0581764
-0.0692627
-0.0804135
-0.0913818
-0.101856
-0.111464
-0.119782
-0.12636
-0.130753
-0.13257
-0.131512
-0.127416
-0.120277
-0.110247
-0.0976152
-0.0827648
-0.0661294
-0.0481501
-0.0292468
-0.00980737
0.0187879
0.0558176
0.0912574
0.124207
0.153981
0.180138
0.202479
0.221011
0.235897
0.247395
0.25581
0.261458
0.264641
0.265645
0.264744
0.262199
0.258268
0.2532
0.247228
0.240557
0.233354
0.225739
0.217786
0.209523
0.20094
0.191999
0.182642
0.172793
0.16236
0.151237
0.139303
0.126427
0.112476
0.0973145
0.0808182
0.0628748
0.0433886
0.0222817
-0.000504815
-0.0250072
-0.0512331
-0.0791505
-0.108672
-0.139635
-0.171777
-0.204706
-0.237875
-0.270557
-0.301832
-0.330585
-0.355548
-0.375359
-0.388673
-0.394289
-0.391296
-0.379192
-0.357961
-0.328073
-0.290412
-0.246151
-0.196608
-0.143109
-0.0869049
-0.0291382
0.0311393
0.092483
0.151108
0.205488
0.254476
0.297355
0.333828
0.363951
0.388039
0.406555
0.42003
0.428995
0.433949
0.435359
0.433664
0.42929
0.422661
0.414189
0.404264
0.393231
0.381368
0.368874
0.355864
0.342379
0.328396
0.313848
0.298635
0.282631
0.265686
0.247625
0.22825
0.207342
0.184674
0.160025
0.133185
0.103968
0.0722169
0.0378032
0.000628152
-0.0393732
-0.0822222
-0.12788
-0.176221
-0.227001
-0.279813
-0.334043
-0.388818
-0.442962
-0.494968
-0.54299
-0.584899
-0.618384
-0.641136
-0.651075
-0.646609
-0.626861
-0.591799
-0.542251
-0.479768
-0.406388
-0.324372
-0.235961
-0.143223
-0.048009
0.043599
0.129426
0.211278
0.286944
0.354801
0.413876
0.463824
0.504816
0.53738
0.562242
0.580188
0.591978
0.598304
0.599798
0.597048
0.590634
0.581139
0.569143
0.5552
0.539802
0.523345
0.506105
0.488232
0.469769
0.450669
0.430828
0.410102
0.388316
0.365265
0.340708
0.314366
0.285934
0.255087
0.221508
0.184904
0.145016
0.101626
0.0545559
0.00366636
-0.0511411
-0.109913
-0.172622
-0.23913
-0.309141
-0.382145
-0.457347
-0.533596
-0.609307
-0.682412
-0.750335
-0.810046
-0.858205
-0.891419
-0.906593
-0.901328
-0.874289
-0.825431
-0.756011
-0.668378
-0.56559
-0.450972
-0.327744
-0.198792
-0.0666105
0.0563825
0.16727
0.272727
0.369778
0.456293
0.531074
0.5938
0.64485
0.685062
0.715494
0.737235
0.751288
0.758529
0.759729
0.755605
0.746871
0.734267
0.71855
0.700454
0.680633
0.659608
0.637733
0.615185
0.59199
0.568063
0.543251
0.517363
0.490178
0.461441
0.430847
0.39804
0.362615
0.324147
0.282216
0.23644
0.186485
0.132077
0.0729916
0.00904974
-0.0598869
-0.133904
-0.213005
-0.297071
-0.385795
-0.478611
-0.574597
-0.672381
-0.770026
-0.864936
-0.953805
-1.03265
-1.09699
-1.14217
-1.16386
-1.15868
-1.1247
-1.06185
-0.97194
-0.858327
-0.725313
-0.57748
-0.419132
-0.253974
-0.0850558
0.0696949
0.206602
0.33635
0.455084
0.560133
0.650118
0.724845
0.785029
0.831941
0.86707
0.891861
0.907571
0.91524
0.915744
0.909892
0.898513
0.882499
0.862799
0.840352
0.815999
0.790404
0.763994
0.736959
0.709288
0.680834
0.65138
0.620684
0.588484
0.554484
0.518326
0.479568
0.437704
0.392189
0.342494
0.288137
0.228715
0.1639
0.0934301
0.0170865
-0.0653121
-0.153904
-0.24875
-0.349784
-0.456731
-0.569023
-0.68568
-0.805178
-0.925298
-1.04297
-1.15417
-1.25391
-1.33642
-1.39553
-1.42543
-1.42143
-1.38085
-1.30358
-1.19214
-1.05119
-0.88662
-0.704538
-0.510464
-0.308916
-0.103385
0.0837402
0.248002
0.403015
0.543897
0.667398
0.772026
0.857852
0.926098
0.978629
1.01748
1.04453
1.06127
1.06889
1.0683
1.06036
1.04597
1.0262
1.00219
0.975138
0.946102
0.915909
0.885063
0.853743
0.821869
0.789201
0.755438
0.72028
0.683441
0.6446
0.603352
0.559174
0.511438
0.459467
0.402601
0.340253
0.271951
0.197324
0.116081
0.0279743
-0.0672248
-0.169721
-0.27966
-0.397063
-0.521739
-0.653174
-0.790402
-0.931838
-1.07507
-1.21664
-1.35184
-1.47462
-1.57774
-1.65327
-1.69348
-1.69204
-1.64521
-1.55281
-1.41831
-1.24811
-1.05014
-0.832382
-0.601754
-0.363563
-0.121567
0.09873
0.292066
0.473599
0.637233
0.779101
0.897695
0.993543
1.0686
1.12552
1.16703
1.1955
1.21267
1.21978
1.21774
1.20735
1.18959
1.16566
1.13696
1.10499
1.07107
1.03624
1.00106
0.965687
0.929911
0.893358
0.855618
0.816335
0.775214
0.731939
0.686077
0.637018
0.583996
0.526171
0.462729
0.39297
0.316354
0.232485
0.141061
0.041816
-0.0655246
-0.181247
-0.305608
-0.438758
-0.580634
-0.730842
-0.888509
-1.05209
-1.2191
-1.3858
-1.54687
-1.69518
-1.82185
-1.91682
-1.96996
-1.97276
-1.92005
-1.8115
-1.65186
-1.44984
-1.21607
-0.960862
-0.692708
-0.417659
-0.139505
0.11489
0.339426
0.549011
0.736112
0.896212
1.02793
1.1325
1.21288
1.27279
1.31582
1.34486
1.36189
1.36813
1.36433
1.35119
1.32966
1.30112
1.26729
1.23002
1.19099
1.15146
1.11208
1.07291
1.03357
0.993485
0.952098
0.909001
0.863925
0.816603
0.766599
0.713211
0.655505
0.592442
0.523021
0.446415
0.362024
0.269449
0.168408
0.0586327
-0.0601918
-0.188448
-0.326535
-0.474771
-0.633269
-0.801814
-0.979709
-1.16556
-1.35697
-1.55006
-1.73902
-1.91566
-2.0693
-2.18733
-2.25662
-2.26574
-2.20757
-2.08148
-1.89393
-1.6568
-1.38423
-1.08945
-0.782734
-0.470764
-0.157036
0.132467
0.390762
0.630218
0.841587
1.01968
1.16344
1.27516
1.35914
1.42045
1.46375
1.49254
1.50895
1.51404
1.50828
1.49212
1.46644
1.4328
1.39331
1.35029
1.30586
1.26158
1.21816
1.17551
1.133
1.08976
1.04505
0.998415
0.949664
0.898648
0.844967
0.787817
0.726054
0.658385
0.583583
0.50067
0.409005
0.308222
0.19809
0.0783736
-0.051278
-0.191358
-0.342442
-0.505058
-0.679539
-0.865901
-1.0637
-1.27183
-1.48812
-1.7088
-1.92775
-2.1358
-2.32033
-2.46573
-2.55508
-2.57313
-2.50998
-2.36451
-2.14547
-1.86904
-1.55401
-1.21723
-0.87095
-0.522256
-0.17394
0.151732
0.446823
0.71826
0.954756
1.15044
1.30489
1.42183
1.50739
1.56832
1.61058
1.63834
1.65377
1.6576
1.64979
1.6304
1.60018
1.56089
1.51512
1.46581
1.41565
1.36656
1.31931
1.27358
1.22834
1.18236
1.13465
1.0847
1.03249
0.978092
0.92119
0.860865
0.795701
0.724082
0.644495
0.555789
0.457304
0.348755
0.23002
0.100925
-0.0388974
-0.190071
-0.353388
-0.529632
-0.719392
-0.922954
-1.1402
-1.37043
-1.61192
-1.86123
-2.11226
-2.35502
-2.57486
-2.75267
-2.86687
-2.89711
-2.8296
-2.66236
-2.40724
-2.08628
-1.72442
-1.34294
-0.9562
-0.571356
-0.189944
0.172989
0.508432
0.814268
1.07678
1.28943
1.45283
1.5727
1.65747
1.71604
1.7559
1.78192
1.79619
1.7988
1.78903
1.76631
1.73114
1.68556
1.6328
1.57657
1.52028
1.46633
1.41552
1.3672
1.31977
1.27151
1.22109
1.16797
1.11243
1.05491
0.995238
0.932356
0.864486
0.789601
0.705826
0.611805
0.506893
0.390962
0.264056
0.126119
-0.0232197
-0.184734
-0.359484
-0.54856
-0.752835
-0.972883
-1.20897
-1.46092
-1.72766
-2.00642
-2.29149
-2.5724
-2.83246
-3.04859
-3.1934
-3.23997
-3.16898
-2.97691
-2.67982
-2.30785
-1.894
-1.46494
-1.03708
-0.617148
-0.204732
0.196577
0.576503
0.919475
1.20887
1.43758
1.60775
1.72784
1.8091
1.86307
1.89913
1.92287
1.93598
1.93766
1.92618
1.90012
1.85959
1.80699
1.74642
1.68251
1.61962
1.56075
1.50676
1.45644
1.40745
1.35742
1.30457
1.24836
1.1895
1.12902
1.06704
1.00226
0.932431
0.855004
0.767644
0.668739
0.557721
0.434715
0.300015
0.153737
-0.00446225
-0.175536
-0.360884
-0.561959
-0.779937
-1.01567
-1.26982
-1.54287
-1.83461
-2.14332
-2.46417
-2.78673
-3.09239
-3.35361
-3.53604
-3.6042
-3.53095
-3.31018
-2.96365
-2.53267
-2.06088
-1.58123
-1.11197
-0.658613
-0.217961
0.222874
0.652049
1.03523
1.35236
1.5958
1.77006
1.88716
1.96182
2.00875
2.03959
2.06065
2.0729
2.07416
2.06146
2.03218
1.98583
1.92538
1.856
1.78353
1.71347
1.64967
1.59298
1.5414
1.49159
1.44036
1.38536
1.32598
1.26365
1.20033
1.13649
1.07054
0.999552
0.920356
0.830022
0.726609
0.609715
0.479863
0.337674
0.183517
0.0171158
-0.162704
-0.357775
-0.569993
-0.800833
-1.05137
-1.32267
-1.61595
-1.93209
-2.27079
-2.62881
-2.99645
-3.35353
-3.66757
-3.89601
-3.99249
-3.91882
-3.66444
-3.25893
-2.75921
-2.22268
-1.68949
-1.17909
-0.694672
-0.229272
0.25231
0.736185
1.163
1.50862
1.76499
1.94006
2.05048
2.11503
2.15221
2.17644
2.19469
2.20667
2.20832
2.19511
2.16287
2.11021
2.04089
1.9616
1.8795
1.8016
1.73286
1.67409
1.62219
1.57242
1.52066
1.46376
1.40096
1.33481
1.26864
1.20346
1.13713
1.06586
0.98573
0.893054
0.785433
0.662786
0.526226
0.376782
0.215162
0.0412203
-0.14649
-0.350366
-0.572858
-0.815722
-1.08015
-1.36752
-1.67992
-2.01947
-2.38769
-2.78377
-3.19974
-3.61437
-3.98994
-4.27437
-4.40779
-4.33645
-4.0423
-3.56567
-2.98536
-2.37654
-1.78712
-1.23655
-0.724237
-0.238316
0.285364
0.830134
1.30439
1.67916
1.946
2.11791
2.21751
2.26802
2.29245
2.30872
2.32436
2.33703
2.34011
2.32742
2.29268
2.23308
2.1537
2.06325
1.97027
1.88371
1.81005
1.75004
1.69893
1.65019
1.59865
1.54012
1.47346
1.40286
1.33373
1.26776
1.20198
1.13136
1.05121
0.956864
0.845238
0.716826
0.573607
0.417058
0.248336
0.0675265
-0.127161
-0.33888
-0.570781
-0.82486
-1.10223
-1.4045
-1.73467
-2.09626
-2.49288
-2.92725
-3.39445
-3.87303
-4.31976
-4.67188
-4.85336
-4.78851
-4.44677
-3.88351
-3.20837
-2.51909
-1.8713
-1.28245
-0.746268
-0.244769
0.322586
0.935223
1.4611
1.86557
2.13962
2.30362
2.38785
2.41995
2.42833
2.43535
2.44899
2.46376
2.46956
2.45871
2.42218
2.35486
2.26398
2.161
2.0557
1.95943
1.88092
1.82075
1.7718
1.72517
1.67475
1.61489
1.54364
1.46762
1.3953
1.32921
1.26504
1.19606
1.1169
1.02162
0.906057
0.771704
0.621799
0.458204
0.282673
0.0956831
-0.104994
-0.323531
-0.563999
-0.828562
-1.11797
-1.43383
-1.78023
-2.16211
-2.58531
-3.05735
-3.57818
-4.12728
-4.65562
-5.08891
-5.3327
-5.28068
-4.88146
-4.21165
-3.42467
-2.64643
-1.93906
-1.31496
-0.759835
-0.248352
0.364615
1.05287
1.63497
2.06962
2.34653
2.49697
2.56106
2.56993
2.55853
2.55512
2.56796
2.58672
2.59664
2.58935
2.55211
2.47598
2.37183
2.25493
2.1356
2.02833
1.94506
1.88614
1.84103
1.79761
1.74939
1.68865
1.61169
1.52882
1.45294
1.38759
1.3263
1.25995
1.1829
1.08755
0.967931
0.827257
0.670588
0.499911
0.317774
0.125315
-0.0802648
-0.304516
-0.552747
-0.827188
-1.12778
-1.45583
-1.81679
-2.21692
-2.66405
-3.17212
-3.74828
-4.3745
-4.99559
-5.52517
-5.84958
-5.81997
-5.35065
-4.54861
-3.62979
-2.75418
-1.98738
-1.3324
-0.764179
-0.248857
0.412215
1.18457
1.82789
2.29326
2.56726
2.69747
2.73666
2.71701
2.68159
2.66673
2.68065
2.70592
2.72128
2.71968
2.68339
2.59686
2.47728
2.3452
2.20982
2.08988
2.002
1.94617
1.90693
1.86776
1.82302
1.76212
1.67783
1.58608
1.50615
1.44269
1.38578
1.32297
1.24932
1.15499
1.03091
0.883272
0.719776
0.541864
0.353205
0.156023
-0.0532399
-0.281996
-0.537248
-0.821145
-1.1322
-1.47092
-1.84466
-2.26082
-2.72832
-3.26956
-3.9019
-4.61185
-5.33724
-5.97946
-6.40787
-6.41519
-5.85949
-4.89194
-3.81812
-2.83754
-2.01338
-1.33339
-0.758767
-0.246155
0.466345
1.33185
2.04179
2.53877
2.80211
2.90426
2.91432
2.86027
2.79587
2.7687
2.78654
2.82153
2.84327
2.85005
2.81724
2.71792
2.58018
2.43207
2.27825
2.14344
2.05114
2.00083
1.96994
1.93575
1.89611
1.83624
1.74232
1.63887
1.55432
1.49429
1.44364
1.38503
1.31626
1.2244
1.09502
0.93946
0.769196
0.583759
0.388495
0.187386
-0.0241729
-0.256078
-0.517688
-0.810874
-1.13186
-1.47956
-1.86429
-2.29432
-2.77759
-3.34767
-4.03596
-4.83625
-5.6777
-6.44922
-7.01137
-7.07749
-6.41417
-5.23784
-3.9828
-2.8914
-2.01439
-1.31692
-0.743338
-0.240214
0.528267
1.4962
2.27854
2.80886
3.05105
3.11592
3.09389
2.99883
2.89952
2.85939
2.88521
2.9341
2.9622
2.98072
2.95529
2.8395
2.68014
2.516
2.34081
2.18822
2.09179
2.05016
2.03068
2.0016
1.96906
1.91227
1.80542
1.68651
1.59667
1.54222
1.50018
1.44591
1.38376
1.29645
1.16029
0.995413
0.818748
0.625305
0.423125
0.218956
0.00670039
-0.226801
-0.494208
-0.796848
-1.12749
-1.48222
-1.87622
-2.31831
-2.81157
-3.4045
-4.14723
-5.04463
-6.01384
-6.93011
-7.66347
-7.82111
-7.02216
-5.58051
-4.11554
-2.91048
-1.98821
-1.28244
-0.717929
-0.231101
0.599733
1.67903
2.53977
3.10697
3.31363
3.33034
3.27571
3.13191
2.99046
2.93701
2.97638
3.04462
3.07726
3.11174
3.0998
2.96179
2.7764
2.59779
2.39751
2.22328
2.12309
2.09427
2.0901
2.06504
2.04218
1.99189
1.86744
1.72804
1.63227
1.58633
1.55593
1.50521
1.45179
1.3721
1.22668
1.05055
0.868451
0.666242
0.456513
0.250262
0.0391623
-0.194115
-0.466882
-0.779561
-1.11998
-1.47933
-1.88098
-2.33417
-2.83029
-3.43813
-4.23224
-5.23395
-6.34259
-7.41525
-8.36667
-8.66448
-7.69244
-5.91141
-4.20654
-2.88963
-1.93325
-1.22993
-0.682889
-0.218981
0.683268
1.8815
2.82669
3.43764
3.58873
3.54439
3.46084
3.25888
3.06629
2.99949
3.05991
3.15482
3.18706
3.24291
3.25392
3.08472
2.86759
2.67874
2.44843
2.24745
2.144
2.13333
2.14956
2.12543
2.11557
2.07741
1.92864
1.76225
1.66001
1.62655
1.6118
1.56227
1.52015
1.45276
1.29405
1.10403
0.918523
0.706337
0.487999
0.280811
0.0730096
-0.157863
-0.435702
-0.759521
-1.11041
-1.47122
-1.87901
-2.34391
-2.83406
-3.44673
-4.28728
-5.40148
-6.66152
-7.8945
-9.12175
-9.63153
-8.43569
-6.21822
-4.2445
-2.8241
-1.84868
-1.15996
-0.63887
-0.20411
0.782612
2.10436
3.13971
3.80701
3.87439
3.7536
3.65156
3.37922
3.12427
3.04452
3.13581
3.26744
3.28933
3.37354
3.42214
3.20782
2.95152
2.76095
2.49373
2.25928
2.15326
2.16758
2.21108
2.18152
2.18902
2.17199
1.9892
1.78754
1.6786
1.66284
1.66926
1.61597
1.58846
1.54045
1.36209
1.15465
0.969489
0.745389
0.516817
0.31009
0.108045
-0.117765
-0.400565
-0.737225
-1.10012
-1.45803
-1.87052
-2.3503
-2.82351
-3.42862
-4.30828
-5.54482
-6.96963
-8.35346
-9.92677
-10.7535
-9.26457
-6.48343
-4.21682
-2.71
-1.73467
-1.07366
-0.586793
-0.18682
0.903356
2.34776
3.47795
4.22367
4.16745
3.95167
3.85193
3.49246
3.1612
3.0695
3.20412
3.38674
3.38055
3.50224
3.61079
3.32997
3.02482
2.84768
2.53358
2.25701
2.1494
2.19725
2.27764
2.23125
2.26185
2.27995
2.04911
1.80193
1.68652
1.6952
1.73052
1.66459
1.65593
1.63808
1.43023
1.2007
1.02235
0.783206
0.542064
0.33759
0.144062
-0.0733919
-0.361268
-0.713129
-1.0908
-1.43964
-1.85528
-2.35711
-2.79947
-3.38227
-4.29062
-5.66198
-7.26859
-8.77231
-10.7755
-12.0712
-10.1938
-6.68264
-4.11002
-2.54468
-1.59241
-0.972732
-0.527805
-0.167501
1.05385
2.61089
3.83856
4.69964
4.46312
4.12986
4.06863
3.59802
3.17336
3.07149
3.26481
3.51907
3.45542
3.62659
3.82884
3.44913
3.08255
2.94386
2.56807
2.23849
2.13069
2.22247
2.35355
2.27136
2.33271
2.40725
2.10797
1.80296
1.68211
1.72357
1.79889
1.70554
1.72134
1.74982
1.49748
1.2398
1.07877
0.819566
0.562659
0.362821
0.180817
-0.0241492
-0.317499
-0.687587
-1.08468
-1.41561
-1.83238
-2.36937
-2.7629
-3.30647
-4.22898
-5.75127
-7.56443
-9.12455
-11.6555
-13.6381
-11.2404
-6.7824
-3.91051
-2.32732
-1.42422
-0.859316
-0.463213
-0.146579
1.24645
2.89162
4.21581
5.25185
4.75441
4.27619
4.31202
3.69491
3.15647
3.04728
3.31745
3.67371
3.50627
3.74278
4.0888
3.56192
3.11761
3.0568
2.59695
2.20116
2.09515
2.24312
2.445
2.29702
2.39929
2.56203
2.16476
1.78766
1.66355
1.7477
1.87918
1.73506
1.78276
1.88148
1.56226
1.26864
1.14141
0.854138
0.577309
0.385362
0.217994
0.0307555
-0.268856
-0.660771
-1.08468
-1.38504
-1.79984
-2.39376
-2.71467
-3.20049
-4.11701
-5.81093
-7.86971
-9.37555
-12.5455
-15.5238
-12.4234
-6.73756
-3.60578
-2.05934
-1.23348
-0.735936
-0.394419
-0.124497
1.49917
3.18601
4.59986
5.90391
5.03141
4.37456
4.59753
3.78121
3.10564
2.99345
3.36083
3.86391
3.52224
3.84506
4.40797
3.66312
3.12012
3.19708
2.61939
2.14202
2.04064
2.25851
2.56074
2.30134
2.45807
2.75529
2.21742
1.75258
1.62897
1.76696
1.97826
1.74777
1.83736
2.04117
1.62213
1.28278
1.21426
0.886366
0.58446
0.404917
0.255149
0.0923445
-0.214873
-0.632535
-1.09469
-1.34656
-1.75424
-2.43915
-2.65519
-3.06433
-3.94708
-5.8385
-8.20635
-9.48104
-13.4121
-17.8184
-13.7636
-6.48819
-3.18621
-1.74482
-1.02454
-0.605334
-0.322843
-0.10169
1.83781
3.4877
4.97522
6.6884
5.28036
4.40357
4.94735
3.85333
3.01542
2.90648
3.39226
4.10822
3.48839
3.92517
4.80985
3.74499
3.07671
3.37964
2.63343
2.05764
1.96493
2.26701
2.71296
2.27472
2.50387
3.00183
2.26236
1.6938
1.57658
1.77998
2.10567
1.73627
1.88111
2.2399
1.67347
1.27627
1.30311
0.91528
0.58226
0.421397
0.291638
0.161915
-0.155082
-0.602239
-1.11982
-1.29825
-1.69013
-2.51719
-2.58403
-2.8991
-3.71003
-5.82965
-8.6091
-9.38553
-14.2057
-20.6381
-15.2833
-5.95597
-2.64744
-1.39074
-0.802483
-0.470334
-0.249863
-0.078568
2.29858
3.78714
5.3189
7.64966
5.48254
4.33527
5.39254
3.90499
2.87993
2.78307
3.40674
4.43209
3.38458
3.97155
5.32597
3.7965
2.96955
3.62518
2.63534
1.94425
1.86585
2.26543
2.91833
2.20416
2.52948
3.3212
2.29373
1.60706
1.50484
1.78417
2.27453
1.69052
1.90846
2.49247
1.71109
1.24139
1.41613
0.939254
0.568535
0.435031
0.326519
0.2411
-0.089103
-0.5685
-1.16681
-1.23763
-1.59939
-2.64319
-2.49916
-2.70758
-3.39488
-5.7766
-9.12968
-9.02084
-14.8556
-24.1315
-17.0051
-5.04011
-1.99351
-1.00696
-0.57282
-0.333685
-0.176753
-0.0555055
2.93139
4.07078
5.59815
8.84701
5.61286
4.13368
5.97553
3.9258
2.69305
2.62045
3.39572
4.86987
3.18426
3.96855
5.99783
3.80237
2.77545
3.96175
2.6187
1.7979
1.74157
2.24828
3.19928
2.07244
2.52512
3.73901
2.3026
1.48796
1.41267
1.77515
2.50247
1.5972
1.91194
2.81836
1.72775
1.16819
1.56452
0.955659
0.540773
0.446493
0.358433
0.331949
-0.0167846
-0.528877
-1.24438
-1.1617
-1.47044
-2.83706
-2.39617
-2.49481
-2.98877
-5.66584
-9.84156
-8.30469
-15.2642
-28.486
-18.9508
-3.61293
-1.24082
-0.605809
-0.341145
-0.197928
-0.104639
-0.0328277
3.80356
4.32002
5.76785
10.3586
5.63831
3.75318
6.75294
3.89951
2.44888
2.41694
3.34563
5.46704
2.85304
3.89541
6.87916
3.742
2.46475
4.42665
2.57327
1.61467
1.59092
2.20681
3.58546
1.85723
2.47788
4.2883
2.27583
1.33223
1.29982
1.74595
2.81277
1.43901
1.88178
3.24284
1.71359
1.04416
1.76328
0.960441
0.496142
0.457065
0.385448
0.43703
0.0616052
-0.479479
-1.36373
-1.06699
-1.28729
-3.12458
-2.2671
-2.26898
-2.47702
-5.47523
-10.8453
-7.13957
-15.301
-33.9367
-21.1393
-1.51516
-0.422853
-0.201266
-0.112736
-0.0652816
-0.0344766
-0.0108077
)
;

boundaryField
{
    left
    {
        type            calculated;
        value           uniform 0;
    }
    right
    {
        type            calculated;
        value           uniform 0;
    }
    interface
    {
        type            calculated;
        value           nonuniform List<scalar> 
64
(
3.80356
4.32002
5.76785
10.3586
5.63831
3.75318
6.75294
3.89951
2.44888
2.41694
3.34563
5.46704
2.85304
3.89541
6.87916
3.742
2.46475
4.42665
2.57327
1.61467
1.59092
2.20681
3.58546
1.85723
2.47788
4.2883
2.27583
1.33223
1.29982
1.74595
2.81277
1.43901
1.88178
3.24284
1.71359
1.04416
1.76328
0.960441
0.496142
0.457065
0.385448
0.43703
0.0616052
-0.479479
-1.36373
-1.06699
-1.28729
-3.12458
-2.2671
-2.26898
-2.47702
-5.47523
-10.8453
-7.13957
-15.301
-33.9367
-21.1393
-1.51516
-0.422853
-0.201266
-0.112736
-0.0652816
-0.0344766
-0.0108077
)
;
    }
    bottom
    {
        type            calculated;
        value           nonuniform List<scalar> 
64
(
0.00630471
0.0187341
0.0306389
0.0417205
0.05175
0.0605783
0.0681349
0.0744176
0.0794762
0.0833935
0.0862694
0.0882083
0.0893121
0.0896777
0.0893977
0.0885611
0.0872547
0.0855622
0.0835612
0.0813203
0.0788952
0.0763265
0.0736391
0.0708432
0.0679364
0.0649067
0.0617345
0.0583942
0.054855
0.0510811
0.0470319
0.0426641
0.0379323
0.032792
0.0272014
0.0211228
0.014524
0.00737876
-0.000332368
-0.00862109
-0.0174889
-0.0269236
-0.0368937
-0.0473418
-0.0581764
-0.0692627
-0.0804135
-0.0913818
-0.101856
-0.111464
-0.119782
-0.12636
-0.130753
-0.13257
-0.131512
-0.127416
-0.120277
-0.110247
-0.0976152
-0.0827648
-0.0661294
-0.0481501
-0.0292468
-0.00980737
)
;
    }
    defaultFaces
    {
        type            empty;
    }
}


// ************************************************************************* //
