/*--------------------------------*- C++ -*----------------------------------*\
| =========                 |                                                 |
| \\      /  F ield         | OpenFOAM: The Open Source CFD Toolbox           |
|  \\    /   O peration     | Version:  5.x                                   |
|   \\  /    A nd           | Web:      www.OpenFOAM.org                      |
|    \\/     M anipulation  |                                                 |
\*---------------------------------------------------------------------------*/
FoamFile
{
    version     2.0;
    format      ascii;
    class       volScalarField;
    location    "15.6";
    object      gradTx;
}
// * * * * * * * * * * * * * * * * * * * * * * * * * * * * * * * * * * * * * //

dimensions      [0 -1 0 1 0 0 0];

internalField   nonuniform List<scalar> 
6300
(
-31.9443
-32.0151
-32.1559
-32.3653
-32.6411
-32.9802
-33.3782
-33.8298
-34.3282
-34.8654
-35.4319
-36.0175
-36.6109
-37.201
-37.7772
-31.8736
-31.945
-32.0872
-32.2989
-32.5779
-32.9212
-33.3247
-33.783
-34.2895
-34.836
-35.4129
-36.0096
-36.6142
-37.215
-37.8005
-31.7314
-31.8042
-31.9491
-32.1652
-32.4504
-32.802
-33.2163
-33.688
-34.2107
-34.7761
-35.3743
-35.9936
-36.6214
-37.2443
-37.8491
-31.5165
-31.5911
-31.74
-31.9623
-32.2564
-32.6202
-33.0503
-33.5421
-34.0893
-34.6835
-35.3144
-35.9693
-36.6336
-37.2915
-37.9272
-31.2269
-31.3038
-31.4575
-31.6875
-31.9929
-32.3721
-32.8227
-33.3409
-33.9207
-34.5543
-35.2305
-35.9355
-36.6522
-37.361
-38.0417
-30.8604
-30.9398
-31.0987
-31.3373
-31.6554
-32.0526
-32.5277
-33.0778
-33.6985
-34.3822
-35.1179
-35.8901
-36.6786
-37.4587
-38.2032
-30.4144
-30.4962
-30.6603
-30.9075
-31.2389
-31.6554
-32.1574
-32.7443
-33.4132
-34.1583
-34.9688
-35.8284
-36.7133
-37.592
-38.4269
-29.8866
-29.9704
-30.1388
-30.3936
-30.7373
-31.1726
-31.7023
-32.3287
-33.0519
-33.8688
-34.7708
-35.7415
-36.7541
-37.7692
-38.7342
-29.2751
-29.3599
-29.5309
-29.7909
-30.1439
-30.5952
-31.1507
-31.8163
-32.5969
-33.4941
-34.5039
-35.6126
-36.7924
-37.9963
-39.1532
-28.5787
-28.6632
-28.834
-29.0951
-29.4524
-29.9137
-30.4889
-31.1889
-32.0251
-33.0069
-34.1382
-35.4127
-36.8067
-38.2704
-39.7156
-27.7979
-27.8801
-28.0468
-28.3032
-28.6568
-29.1184
-29.7022
-30.4254
-31.3079
-32.3701
-33.6294
-35.0934
-36.7512
-38.5629
-40.4423
-26.9349
-27.0124
-27.1701
-27.4139
-27.7531
-28.201
-28.7761
-29.5026
-30.4108
-31.5363
-32.9161
-34.5805
-36.5419
-38.7881
-41.29
-25.9945
-26.0645
-26.2073
-26.4293
-26.7406
-27.1564
-27.6987
-28.3981
-29.2965
-30.4482
-31.9182
-33.7711
-36.0488
-38.7588
-41.9914
-24.9841
-25.0436
-25.1654
-25.3554
-25.6236
-25.9854
-26.4641
-27.0946
-27.9288
-29.042
-30.5379
-32.5383
-35.1265
-38.2127
-41.631
-23.9142
-23.9605
-24.0552
-24.2033
-24.4129
-24.6974
-25.0776
-25.5875
-26.2822
-27.2535
-28.6542
-30.7209
-33.7154
-37.356
-37.9747
-38.286
-38.7257
-39.1413
-39.5307
-39.8931
-40.2285
-40.5372
-40.8197
-41.0763
-41.3068
-41.5106
-41.6867
-41.834
-41.9519
-42.0403
-42.0999
-42.1326
-42.1416
-42.1305
-42.1036
-42.0652
-42.019
-41.968
-41.914
-41.8574
-41.7978
-41.7335
-41.6628
-41.5836
-41.4945
-41.3949
-41.2851
-41.1665
-41.0416
-40.9129
-40.7836
-40.6561
-40.5323
-40.4131
-40.2983
-40.1866
-40.0762
-39.9647
-39.8499
-39.73
-39.6042
-39.4725
-39.3359
-39.1965
-39.0568
-38.9191
-38.7859
-38.6587
-38.5382
-38.424
-38.3149
-38.209
-38.1038
-37.9973
-37.8877
-37.7741
-37.6563
-37.5356
-37.4135
-37.2926
-37.1751
-37.0632
-36.9585
-36.8617
-36.7725
-36.6899
-36.6124
-36.538
-36.4651
-36.3926
-36.3206
-36.25
-36.1829
-36.1226
-36.0728
-36.0376
-36.0207
-36.025
-36.0522
-36.1025
-36.1742
-36.2639
-36.3668
-36.4765
-36.5863
-38.3163
-38.7605
-39.1788
-39.5696
-39.9321
-40.267
-40.575
-40.8571
-41.1139
-41.3453
-41.5504
-41.728
-41.8765
-41.9945
-42.0816
-42.1385
-42.167
-42.1705
-42.1532
-42.1202
-42.0763
-42.0259
-41.9724
-41.9176
-41.8619
-41.8044
-41.7429
-41.6749
-41.5978
-41.5097
-41.4095
-41.2976
-41.1758
-41.0468
-40.914
-40.7809
-40.6507
-40.5257
-40.4068
-40.2937
-40.1848
-40.0777
-39.9694
-39.8571
-39.7386
-39.6127
-39.4794
-39.3401
-39.1971
-39.0536
-38.9127
-38.7772
-38.6491
-38.5291
-38.4167
-38.3104
-38.2078
-38.1058
-38.0018
-37.8936
-37.7799
-37.6607
-37.5374
-37.412
-37.2876
-37.167
-37.0529
-36.9472
-36.8507
-36.763
-36.6828
-36.6078
-36.5358
-36.4644
-36.3921
-36.3186
-36.2448
-36.1732
-36.1074
-36.0519
-36.0113
-35.9901
-35.992
-36.019
-36.0716
-36.1482
-36.2451
-36.3568
-36.4764
-36.5962
-38.3792
-38.8325
-39.2562
-39.649
-40.0111
-40.344
-40.6499
-40.9309
-41.1881
-41.4216
-41.63
-41.8113
-41.9627
-42.0816
-42.1666
-42.2179
-42.2374
-42.2292
-42.1987
-42.1524
-42.0968
-42.0374
-41.9786
-41.9225
-41.8691
-41.8166
-41.7617
-41.7002
-41.6281
-41.5422
-41.4409
-41.3246
-41.1955
-41.0575
-40.9153
-40.7741
-40.638
-40.5103
-40.3921
-40.283
-40.1805
-40.0809
-39.9799
-39.8734
-39.7579
-39.6317
-39.4949
-39.3494
-39.1985
-39.0468
-38.8986
-38.758
-38.6277
-38.5088
-38.4006
-38.3007
-38.2055
-38.1108
-38.0124
-37.9073
-37.7935
-37.6712
-37.542
-37.4093
-37.277
-37.1495
-37.0305
-36.9226
-36.8269
-36.7427
-36.6679
-36.5992
-36.5327
-36.4649
-36.3933
-36.3169
-36.2365
-36.1552
-36.0775
-36.0094
-35.957
-35.9264
-35.9227
-35.9489
-36.0062
-36.0929
-36.2049
-36.3355
-36.4761
-36.6172
-38.4798
-38.9469
-39.3781
-39.7726
-40.1319
-40.4599
-40.7609
-41.0389
-41.2965
-41.5338
-41.7488
-41.9377
-42.0955
-42.2175
-42.3002
-42.3429
-42.3478
-42.3199
-42.267
-42.1981
-42.1225
-42.0482
-41.9809
-41.9233
-41.875
-41.8324
-41.79
-41.7407
-41.6781
-41.5968
-41.4939
-41.3699
-41.2281
-41.0741
-40.9155
-40.7597
-40.6133
-40.481
-40.3645
-40.2628
-40.1719
-40.0862
-39.9985
-39.9024
-39.7926
-39.6661
-39.523
-39.3663
-39.2013
-39.0347
-38.8736
-38.7239
-38.59
-38.4733
-38.3726
-38.2843
-38.2026
-38.1209
-38.0328
-37.9333
-37.8196
-37.6915
-37.5519
-37.4058
-37.2595
-37.1197
-36.992
-36.8805
-36.7865
-36.709
-36.6444
-36.5872
-36.5314
-36.471
-36.4015
-36.3208
-36.2296
-36.1319
-36.034
-35.9441
-35.8713
-35.8242
-35.8102
-35.8342
-35.8984
-36.0013
-36.1379
-36.2996
-36.4752
-36.6517
-38.6269
-39.1132
-39.5531
-39.9466
-40.2981
-40.6147
-40.905
-41.1765
-41.4339
-41.678
-41.9053
-42.1089
-42.28
-42.4098
-42.4916
-42.5226
-42.5052
-42.4466
-42.3582
-42.2535
-42.1465
-42.049
-41.9692
-41.9109
-41.8725
-41.8481
-41.8279
-41.8006
-41.755
-41.6823
-41.5775
-41.441
-41.2779
-41.0976
-40.9115
-40.7317
-40.5685
-40.4289
-40.3157
-40.2269
-40.1561
-40.094
-40.0293
-39.9513
-39.8512
-39.7244
-39.5708
-39.3953
-39.2063
-39.0148
-38.832
-38.6673
-38.5274
-38.4146
-38.3269
-38.2583
-38.1996
-38.1402
-38.0697
-37.9799
-37.8662
-37.7284
-37.5712
-37.4026
-37.2328
-37.0724
-36.9304
-36.8131
-36.7225
-36.6568
-36.61
-36.5734
-36.5368
-36.4902
-36.4258
-36.3397
-36.2323
-36.1089
-35.9788
-35.8543
-35.7485
-35.6743
-35.6428
-35.6617
-35.7349
-35.8613
-36.0347
-36.2438
-36.473
-36.7039
-38.8343
-39.3461
-39.7947
-40.1814
-40.5143
-40.8074
-41.0761
-41.3344
-41.5907
-41.8464
-42.0959
-42.3269
-42.524
-42.6712
-42.756
-42.7721
-42.7219
-42.6163
-42.4727
-42.3124
-42.1568
-42.024
-41.9266
-41.8697
-41.8501
-41.8576
-41.8761
-41.8868
-41.871
-41.8138
-41.7069
-41.5503
-41.3527
-41.1292
-40.8985
-40.6798
-40.4896
-40.3389
-40.2317
-40.1648
-40.1279
-40.1055
-40.0794
-40.0318
-39.9484
-39.8212
-39.6502
-39.4434
-39.215
-38.9826
-38.7642
-38.5751
-38.4257
-38.3196
-38.2537
-38.2179
-38.1977
-38.1755
-38.1345
-38.061
-37.9473
-37.7934
-37.6069
-37.401
-37.1925
-36.9985
-36.8334
-36.707
-36.6227
-36.5773
-36.561
-36.5597
-36.5565
-36.5349
-36.4816
-36.3892
-36.2579
-36.0954
-35.9158
-35.7374
-35.5801
-35.4631
-35.4028
-35.4111
-35.4947
-35.6535
-35.88
-36.159
-36.4683
-36.7807
-39.1235
-39.6698
-40.1258
-40.4934
-40.7881
-41.035
-41.2625
-41.4951
-41.7481
-42.024
-42.3129
-42.5939
-42.8399
-43.0227
-43.1191
-43.117
-43.0185
-42.8406
-42.6114
-42.3647
-42.1341
-41.9482
-41.8259
-41.7745
-41.7887
-41.8511
-41.9357
-42.0112
-42.0467
-42.017
-41.9076
-41.7188
-41.4649
-41.171
-40.8681
-40.587
-40.3539
-40.186
-40.0899
-40.0597
-40.0788
-40.1223
-40.1605
-40.1639
-40.1086
-39.9811
-39.7813
-39.5228
-39.2294
-38.9301
-38.6541
-38.4258
-38.2615
-38.167
-38.137
-38.1554
-38.1984
-38.238
-38.2461
-38.1998
-38.0863
-37.9056
-37.6703
-37.4031
-37.1314
-36.8829
-36.6807
-36.5403
-36.4671
-36.4556
-36.4905
-36.5487
-36.6027
-36.6251
-36.5936
-36.4949
-36.3285
-36.1065
-35.851
-35.5901
-35.3538
-35.1703
-35.0637
-35.0522
-35.1463
-35.3483
-35.6498
-36.0307
-36.4588
-36.8933
-39.5276
-40.1238
-40.584
-40.9104
-41.1306
-41.2906
-41.4414
-41.6265
-41.8724
-42.1831
-42.5412
-42.9112
-43.2468
-43.4984
-43.6243
-43.6006
-43.4294
-43.1387
-42.7752
-42.3936
-42.0473
-41.7806
-41.623
-41.5852
-41.6577
-41.8128
-42.0081
-42.1932
-42.3164
-42.3347
-42.2229
-41.9811
-41.6345
-41.2259
-40.8063
-40.4252
-40.124
-39.9301
-39.853
-39.8834
-39.9947
-40.1468
-40.2917
-40.3806
-40.3729
-40.2449
-39.9968
-39.6524
-39.2522
-38.8442
-38.4753
-38.1842
-37.9967
-37.9218
-37.9504
-38.0573
-38.2043
-38.3459
-38.4358
-38.4354
-38.3222
-38.0962
-37.7799
-37.4116
-37.037
-36.7005
-36.439
-36.2768
-36.2225
-36.2672
-36.3865
-36.5436
-36.6943
-36.7933
-36.8022
-36.698
-36.4792
-36.1659
-35.794
-35.4075
-35.0513
-34.7667
-34.588
-34.541
-34.6427
-34.8996
-35.3053
-35.8344
-36.4404
-37.0593
-40.0973
-40.7735
-41.235
-41.4802
-41.56
-41.5595
-41.5708
-41.6705
-41.9032
-42.2741
-42.7522
-43.2783
-43.7744
-44.1554
-44.3449
-44.2966
-44.0123
-43.5418
-42.9651
-42.3717
-41.8458
-41.4559
-41.2475
-41.2368
-41.408
-41.7164
-42.0955
-42.4642
-42.7373
-42.8396
-42.7252
-42.3944
-41.8933
-41.2968
-40.6888
-40.1484
-39.7399
-39.5058
-39.4612
-39.5907
-39.8519
-40.1816
-40.5033
-40.7365
-40.8103
-40.6817
-40.3511
-39.8624
-39.2863
-38.7021
-38.1843
-37.7935
-37.5698
-37.5273
-37.6512
-37.9013
-38.2178
-38.5281
-38.7558
-38.8335
-38.7205
-38.4169
-37.9641
-37.4293
-36.8878
-36.4102
-36.0543
-35.8581
-35.8352
-35.9714
-36.2282
-36.5479
-36.8604
-37.0911
-37.1736
-37.0661
-36.766
-36.3096
-35.7581
-35.1812
-34.6459
-34.2107
-33.9224
-33.8158
-33.9153
-34.2369
-34.783
-35.5272
-36.4035
-37.3081
-40.9093
-41.7323
-42.1975
-42.2881
-42.1053
-41.8112
-41.5729
-41.5229
-41.735
-42.2107
-42.8941
-43.6885
-44.468
-45.088
-45.4079
-45.3325
-44.8633
-44.0979
-43.1788
-42.2527
-41.4486
-40.8699
-40.5872
-40.6267
-40.9606
-41.5184
-42.1976
-42.873
-43.4043
-43.6566
-43.5392
-43.0529
-42.2897
-41.384
-40.4741
-39.6817
-39.1045
-38.8086
-38.8187
-39.1083
-39.6103
-40.2279
-40.8425
-41.322
-41.5392
-41.4092
-40.9331
-40.1983
-39.3318
-38.4644
-37.7105
-37.1623
-36.8821
-36.8932
-37.1703
-37.6499
-38.2403
-38.8293
-39.2916
-39.5065
-39.3931
-38.9522
-38.2666
-37.4567
-36.6464
-35.9448
-35.4394
-35.19
-35.2188
-35.502
-35.9792
-36.5625
-37.1442
-37.6022
-37.8186
-37.7118
-37.2778
-36.5904
-35.7588
-34.8948
-34.0964
-33.443
-32.9951
-32.794
-32.868
-33.2511
-33.9754
-35.0299
-36.3257
-37.6893
-42.0733
-43.2062
-43.6994
-43.4899
-42.811
-41.9825
-41.3036
-40.9981
-41.1873
-41.8481
-42.8764
-44.1202
-45.3913
-46.4527
-47.04
-46.9357
-46.1409
-44.8752
-43.4027
-41.9582
-40.7265
-39.8579
-39.4629
-39.5924
-40.1911
-41.1454
-42.3051
-43.4893
-44.4728
-45.0061
-44.8845
-44.1102
-42.8911
-41.4771
-40.0903
-38.9053
-38.0639
-37.6708
-37.7737
-38.3202
-39.2025
-40.2782
-41.3765
-42.2848
-42.7684
-42.635
-41.8877
-40.7237
-39.379
-38.063
-36.9405
-36.145
-35.7751
-35.8759
-36.3978
-37.2388
-38.2646
-39.3132
-40.1834
-40.6523
-40.5371
-39.8402
-38.7481
-37.4846
-36.2486
-35.1966
-34.4561
-34.1213
-34.2359
-34.7533
-35.5772
-36.5797
-37.6059
-38.4614
-38.9292
-38.8284
-38.1546
-37.0788
-35.8059
-34.5143
-33.3378
-32.3796
-31.7123
-31.3762
-31.3755
-31.7738
-32.6925
-34.1851
-36.1502
-38.2906
-43.7151
-45.6003
-46.2129
-45.3688
-43.7326
-41.9381
-40.4967
-39.7607
-39.9604
-40.9564
-42.5481
-44.5127
-46.6167
-48.5
-49.668
-49.5331
-48.0966
-45.9504
-43.5862
-41.357
-39.4818
-38.1639
-37.5835
-37.8823
-38.9094
-40.4768
-42.3774
-44.3945
-46.1896
-47.2985
-47.1698
-45.8079
-43.7732
-41.5312
-39.4158
-37.6339
-36.378
-35.8187
-36.0899
-37.0485
-38.516
-40.2962
-42.184
-43.8595
-44.8858
-44.7448
-43.4425
-41.5092
-39.3846
-37.3832
-35.6995
-34.5149
-33.9903
-34.2522
-35.1656
-36.5619
-38.256
-40.054
-41.6533
-42.639
-42.5188
-41.2972
-39.4763
-37.473
-35.5858
-33.9999
-32.8885
-32.4056
-32.6728
-33.5632
-34.9181
-36.5629
-38.3133
-39.879
-40.8584
-40.7701
-39.6102
-37.8508
-35.8803
-33.9678
-32.2651
-30.897
-29.9528
-29.4754
-29.3084
-29.5473
-30.5831
-32.6597
-35.7224
-39.2761
-45.8217
-49.8219
-50.8194
-48.3894
-44.8857
-41.386
-38.6737
-37.1756
-37.5869
-39.2069
-41.683
-44.7043
-48.1598
-51.5773
-54.1722
-54.0046
-51.0745
-47.3394
-43.5752
-40.2464
-37.4343
-35.4077
-34.4382
-35.1232
-36.8499
-39.3281
-42.2821
-45.6195
-48.8945
-51.3729
-51.231
-48.4744
-44.9537
-41.4031
-38.261
-35.6051
-33.689
-32.7707
-33.4161
-35.0439
-37.379
-40.1595
-43.297
-46.3691
-48.6841
-48.5269
-45.9058
-42.5702
-39.213
-36.2457
-33.74
-31.9344
-31.073
-31.6905
-33.238
-35.456
-38.0978
-41.081
-44.0066
-46.2184
-46.0864
-43.617
-40.4674
-37.2944
-34.4889
-32.12
-30.4159
-29.6097
-30.2123
-31.7042
-33.8417
-36.394
-39.2866
-42.1412
-44.3249
-44.2549
-41.9293
-38.927
-35.871
-33.1191
-30.7106
-28.8042
-27.5212
-27.1274
-26.657
-26.1731
-26.9749
-29.7143
-34.5878
-40.9773
-47.3441
-58.3561
-60.3331
-52.9447
-46.0417
-39.7048
-35.1033
-31.8412
-33.4728
-36.2248
-40.0328
-44.2705
-49.7579
-55.8391
-62.6545
-62.4543
-55.2115
-48.7705
-42.937
-38.3917
-34.2559
-31.1293
-28.9104
-30.8642
-33.7081
-37.4945
-41.6346
-46.9343
-52.7464
-59.2207
-59.0573
-52.2413
-46.1772
-40.6865
-36.4064
-32.5109
-29.563
-27.4711
-29.3278
-32.0208
-35.6008
-39.5086
-44.5043
-49.9689
-56.0422
-55.857
-49.3979
-43.6625
-38.48
-34.4433
-30.7721
-27.9945
-26.0258
-27.7898
-30.3446
-33.74
-37.448
-42.1911
-47.3879
-53.1728
-53.0199
-46.9164
-41.492
-36.5866
-32.7633
-29.2829
-26.65
-24.7853
-26.4713
-28.9153
-32.1681
-35.7349
-40.3146
-45.3693
-51.0366
-50.988
-45.2225
-40.0806
-35.4239
-31.7757
-28.4332
-25.8135
-23.8091
-24.8896
-24.0252
-20.9474
-20.5766
-23.6956
-31.2704
-44.1087
-41.2124
-79.9308
-83.2308
-56.6975
-46.3676
-35.5263
-29.6044
-19.46
-27.7453
-31.722
-37.7641
-42.0371
-50.5007
-59.0435
-81.2396
-81.0451
-58.1939
-49.3269
-40.4439
-35.9471
-29.6245
-25.5436
-17.374
-25.3235
-29.2092
-35.1514
-39.3173
-47.5111
-55.6447
-76.6269
-76.4631
-54.9256
-46.5752
-38.2266
-33.998
-28.0521
-24.2043
-16.4857
-24.035
-27.7206
-33.3507
-37.2909
-45.0365
-52.6922
-72.4127
-72.2213
-51.8482
-43.9583
-36.0972
-32.1147
-26.5175
-22.8899
-15.6033
-22.7503
-26.241
-31.5736
-35.3077
-42.6478
-49.9222
-68.6775
-68.5221
-49.2382
-41.769
-34.3206
-30.5438
-25.2254
-21.778
-14.8479
-21.6389
-24.9618
-30.0422
-33.6174
-40.6585
-47.7153
-65.9793
-65.9534
-47.6177
-40.5358
-33.5242
-29.9923
-25.1151
-21.9367
-15.6547
-25.4525
-24.5808
-11.8238
-9.15277
-11.2607
-20.3733
-50.2148
-36.6984
-36.8019
-36.8768
-36.9176
-36.9225
-36.8934
-36.8351
-36.7543
-36.6592
-36.5583
-36.46
-36.3718
-36.2998
-36.2491
-36.2228
-36.7183
-36.8306
-36.9109
-36.9534
-36.9566
-36.9227
-36.8575
-36.7685
-36.6649
-36.5558
-36.45
-36.3554
-36.2786
-36.2245
-36.1966
-36.7606
-36.8912
-36.9827
-37.0286
-37.0276
-36.9835
-36.9036
-36.7976
-36.6761
-36.5499
-36.4288
-36.3214
-36.2346
-36.1738
-36.1425
-36.8302
-36.9909
-37.1003
-37.1506
-37.1418
-37.08
-36.9758
-36.842
-36.6921
-36.539
-36.3939
-36.2666
-36.1646
-36.0936
-36.0571
-36.9362
-37.142
-37.2768
-37.3317
-37.3089
-37.2189
-37.0775
-36.9025
-36.7114
-36.5199
-36.3413
-36.1866
-36.0638
-35.9788
-35.9353
-37.093
-37.3642
-37.5333
-37.5906
-37.5431
-37.4092
-37.2129
-36.9792
-36.731
-36.4878
-36.265
-36.0746
-35.925
-35.8223
-35.7701
-37.3238
-37.6885
-37.9015
-37.9543
-37.8638
-37.662
-37.3858
-37.0704
-36.7457
-36.4352
-36.1563
-35.9216
-35.7395
-35.6154
-35.5526
-37.6666
-38.1644
-38.4299
-38.4613
-38.2959
-37.9891
-37.5978
-37.1708
-36.7461
-36.3509
-36.0036
-35.7162
-35.4959
-35.3473
-35.2724
-38.1853
-38.8726
-39.1925
-39.165
-38.8693
-38.4008
-37.8455
-37.269
-36.7171
-36.2187
-35.791
-35.4434
-35.1809
-35.0052
-34.9173
-38.992
-39.9482
-40.3024
-40.137
-39.6154
-38.8994
-38.1142
-37.3428
-36.6346
-36.0157
-35.4981
-35.0858
-34.7788
-34.5755
-34.4743
-40.2955
-41.6258
-41.9319
-41.4653
-40.5557
-39.4674
-38.3692
-37.3534
-36.4626
-35.7114
-35.1001
-34.623
-34.273
-34.0436
-33.9301
-42.5168
-44.3276
-44.3342
-43.2364
-41.6749
-40.0452
-38.5417
-37.2389
-36.1512
-35.2672
-34.5677
-34.033
-33.6466
-33.3958
-33.2725
-46.5952
-48.8338
-47.8407
-45.4714
-42.8623
-40.4967
-38.5135
-36.9094
-35.6359
-34.6387
-33.8706
-33.2949
-32.8845
-32.6206
-32.4915
-54.9106
-56.5716
-52.7234
-47.9463
-43.8061
-40.5658
-38.1063
-36.2493
-34.8444
-33.7809
-32.9811
-32.3914
-31.9759
-31.7106
-31.5814
-74.4921
-69.8186
-58.535
-49.7845
-43.8498
-39.8541
-37.0965
-35.1371
-33.7116
-32.6595
-31.8813
-31.3139
-30.9169
-30.6646
-30.542
-22.891
-22.9231
-22.9887
-23.0908
-23.2346
-23.4289
-23.6879
-24.0366
-24.5192
-25.2209
-26.3187
-28.211
-31.851
-39.4006
-53.2705
-21.9385
-21.9568
-21.9938
-22.0505
-22.1284
-22.2306
-22.3624
-22.5336
-22.7642
-23.0984
-23.6456
-24.7254
-27.4809
-36.958
-79.2061
-20.9734
-20.9775
-20.9853
-20.9953
-21.0054
-21.0119
-21.0095
-20.9893
-20.9373
-20.8278
-20.6038
-20.0871
-18.5092
-11.7658
25.4377
-20.0053
-19.9958
-19.9752
-19.9401
-19.8847
-19.7994
-19.6688
-19.4671
-19.1502
-18.6364
-17.7644
-16.19
-13.1848
-7.73356
-3.84511
-19.0438
-19.0217
-18.9751
-18.8991
-18.7849
-18.6185
-18.3774
-18.0251
-17.4997
-16.6936
-15.4109
-13.2809
-9.56906
-2.62293
13.4406
-18.0977
-18.0646
-17.9955
-17.8845
-17.7212
-17.4894
-17.1634
-16.7031
-16.0441
-15.0818
-13.6456
-11.4674
-8.19865
-3.84641
-1.97858
-17.1746
-17.1324
-17.0451
-16.9062
-16.7052
-16.4256
-16.0427
-15.5192
-14.7993
-13.7993
-12.3956
-10.4104
-7.58021
-3.34521
4.90896
-16.2808
-16.2316
-16.1304
-15.971
-15.7437
-15.4336
-15.0195
-14.4716
-13.7489
-12.7971
-11.5497
-9.94003
-7.93718
-5.63524
-3.48146
-15.4212
-15.367
-15.2561
-15.0831
-14.8397
-14.5138
-14.0893
-13.5455
-12.8577
-12.0001
-10.9555
-9.74266
-8.50181
-7.82239
-10.3762
-14.5991
-14.5418
-14.4249
-14.2441
-13.9929
-13.6625
-13.2419
-12.7194
-12.0844
-11.3331
-10.478
-9.56475
-8.67654
-7.76424
-5.05336
-13.8169
-13.7578
-13.638
-13.4541
-13.2013
-12.8737
-12.4653
-11.9713
-11.3919
-10.738
-10.041
-9.36945
-8.86798
-8.95511
-11.8391
-13.0758
-13.0161
-12.8956
-12.7118
-12.4615
-12.1411
-11.748
-11.2825
-10.7513
-10.1729
-9.58616
-9.05609
-8.65067
-8.20374
-5.57755
-12.376
-12.3167
-12.1972
-12.0158
-11.7703
-11.459
-11.0811
-10.6395
-10.1433
-9.6136
-9.09202
-8.65615
-8.46219
-8.96573
-12.5423
-11.7174
-11.6591
-11.5418
-11.3642
-11.125
-10.8231
-10.4585
-10.0343
-9.55853
-9.0487
-8.53835
-8.08823
-7.78935
-7.59368
-5.47555
-11.0994
-11.0425
-10.9281
-10.7554
-10.5232
-10.2306
-9.87733
-9.46487
-8.99747
-8.48415
-7.94285
-7.41528
-7.04482
-7.55669
-13.453
-10.5209
-10.4657
-10.3551
-10.188
-9.96343
-9.68024
-9.33727
-8.93361
-8.46829
-7.93904
-7.33781
-6.63323
-5.68757
-3.78048
3.46601
-9.98062
-9.92759
-9.82112
-9.66043
-9.44437
-9.17138
-8.83936
-8.44518
-7.9835
-7.44392
-6.80456
-6.0186
-4.99798
-3.71219
-3.57379
-9.47721
-9.42655
-9.32485
-9.17135
-8.96485
-8.70353
-8.38462
-8.00363
-7.55281
-7.01809
-6.37311
-5.56695
-4.49253
-2.84709
0.847186
-9.00899
-8.96095
-8.86454
-8.71908
-8.5234
-8.27568
-7.973
-7.61058
-7.18038
-6.66883
-6.05359
-5.30159
-4.38362
-3.40478
-3.53095
-8.57413
-8.52895
-8.43832
-8.30168
-8.1181
-7.886
-7.60287
-7.2646
-6.86445
-6.39158
-5.82906
-5.15149
-4.317
-3.19511
-0.927649
-8.17066
-8.12851
-8.04404
-7.9169
-7.74648
-7.53176
-7.27104
-6.96159
-6.59903
-6.17659
-5.68442
-5.11037
-4.44996
-3.78096
-3.81867
-7.79647
-7.75746
-7.67939
-7.56218
-7.40565
-7.20946
-6.97305
-6.69546
-6.37521
-6.01003
-5.59665
-5.12924
-4.58889
-3.87603
-2.3776
-7.44937
-7.41353
-7.34194
-7.23478
-7.09235
-6.9151
-6.70365
-6.45898
-6.18258
-5.87694
-5.54642
-5.19877
-4.84761
-4.51663
-4.25411
-7.12717
-7.09444
-7.02919
-6.93188
-6.80325
-6.64448
-6.45734
-6.24454
-6.01026
-5.76113
-5.50808
-5.27073
-5.09233
-5.10968
-5.94825
-6.8277
-6.79793
-6.73872
-6.65072
-6.53509
-6.39357
-6.22886
-6.04502
-5.84826
-5.64806
-5.45885
-5.30176
-5.20112
-5.13243
-4.59333
-6.54891
-6.52189
-6.46823
-6.38877
-6.2849
-6.15877
-6.01366
-5.85448
-5.68866
-5.52736
-5.38732
-5.29359
-5.28772
-5.48184
-6.49531
-6.28889
-6.26434
-6.21567
-6.14378
-6.05018
-5.93717
-5.80823
-5.66856
-5.52592
-5.39191
-5.28363
-5.22442
-5.23544
-5.26225
-4.6446
-6.04592
-6.02355
-5.97924
-5.91388
-5.82893
-5.72663
-5.61026
-5.48471
-5.35718
-5.2386
-5.14587
-5.10648
-5.17219
-5.49021
-6.82132
-5.81849
-5.79801
-5.75744
-5.69759
-5.61974
-5.52585
-5.41869
-5.30223
-5.18225
-5.06735
-4.97106
-4.91557
-4.93375
-5.0146
-4.48437
-5.60528
-5.58643
-5.54904
-5.49379
-5.42171
-5.3343
-5.23357
-5.12221
-5.00378
-4.88318
-4.76793
-4.67352
-4.65177
-4.96334
-7.21715
-5.40518
-5.38772
-5.35305
-5.30167
-5.23433
-5.152
-5.05585
-4.9471
-4.82683
-4.6953
-4.55032
-4.38101
-4.13835
-3.56328
-1.06776
-5.21721
-5.20097
-5.16867
-5.12065
-5.05737
-4.97931
-4.88687
-4.78
-4.65769
-4.51678
-4.34962
-4.13944
-3.85577
-3.49686
-3.63255
-5.04051
-5.02538
-4.99521
-4.95023
-4.89066
-4.81662
-4.72791
-4.62364
-4.50148
-4.35649
-4.17879
-3.94891
-3.62544
-3.08694
-1.72213
-4.87434
-4.86022
-4.83206
-4.78996
-4.73401
-4.66412
-4.57978
-4.47969
-4.36113
-4.21894
-4.04419
-3.82339
-3.54444
-3.25084
-3.43325
-4.71798
-4.70483
-4.67858
-4.63931
-4.58705
-4.52165
-4.44258
-4.34859
-4.2372
-4.10399
-3.94158
-3.73827
-3.4736
-3.08419
-2.17563
-4.57075
-4.55853
-4.53415
-4.49769
-4.44922
-4.38868
-4.31575
-4.22956
-4.12843
-4.00932
-3.86738
-3.69577
-3.4894
-3.27803
-3.38236
-4.43202
-4.42069
-4.3981
-4.36441
-4.31977
-4.26433
-4.19813
-4.12093
-4.03214
-3.93052
-3.81378
-3.67741
-3.50867
-3.25263
-2.60271
-4.30116
-4.29067
-4.26978
-4.23873
-4.19783
-4.14747
-4.08813
-4.02036
-3.94478
-3.86221
-3.77383
-3.68153
-3.58858
-3.50075
-3.43043
-4.1776
-4.16786
-4.14853
-4.1199
-4.08246
-4.03685
-3.98401
-3.92521
-3.86227
-3.79795
-3.73659
-3.6861
-3.66493
-3.73671
-4.20925
-4.0608
-4.05172
-4.03373
-4.00721
-3.97276
-3.93126
-3.88402
-3.83293
-3.78074
-3.73163
-3.69183
-3.67031
-3.67675
-3.69436
-3.45851
-3.95032
-3.94177
-3.92486
-3.90003
-3.86795
-3.82967
-3.78673
-3.7414
-3.69709
-3.65886
-3.63436
-3.63512
-3.68082
-3.828
-4.4016
-3.84579
-3.83763
-3.82151
-3.79788
-3.76745
-3.73132
-3.69109
-3.64919
-3.6092
-3.57656
-3.55936
-3.56873
-3.61441
-3.6655
-3.3657
-3.74692
-3.73901
-3.72338
-3.70046
-3.67092
-3.63581
-3.59663
-3.55564
-3.51622
-3.48355
-3.4659
-3.47712
-3.54426
-3.74666
-4.49883
-3.65356
-3.64575
-3.63032
-3.60763
-3.57827
-3.54312
-3.50343
-3.46102
-3.41855
-3.38012
-3.3524
-3.34669
-3.38018
-3.44601
-3.17276
-3.56562
-3.5578
-3.54231
-3.51944
-3.48965
-3.45359
-3.41213
-3.36643
-3.31807
-3.26927
-3.2236
-3.18905
-3.19365
-3.38084
-4.63836
-3.48311
-3.47518
-3.45943
-3.43606
-3.40539
-3.36781
-3.32377
-3.2737
-3.21791
-3.15623
-3.0871
-3.00422
-2.88034
-2.57235
-1.20218
-3.40611
-3.398
-3.38184
-3.35776
-3.32594
-3.28653
-3.2396
-3.18495
-3.12185
-3.04838
-2.96015
-2.84787
-2.69489
-2.50149
-2.58946
-3.33475
-3.3264
-3.30974
-3.28484
-3.25176
-3.21047
-3.16078
-3.10208
-3.033
-2.95077
-2.84991
-2.71978
-2.5375
-2.23521
-1.46875
-3.2692
-3.26058
-3.24338
-3.21761
-3.18328
-3.14026
-3.08823
-3.02641
-2.9533
-2.86609
-2.76002
-2.62791
-2.46346
-2.29126
-2.38477
-3.20963
-3.20073
-3.18296
-3.15634
-3.12083
-3.07631
-3.02247
-2.9586
-2.88338
-2.79451
-2.6882
-2.5585
-2.3948
-2.16279
-1.64471
-3.15624
-3.14705
-3.12871
-3.10123
-3.06463
-3.01885
-2.96369
-2.89868
-2.82295
-2.73503
-2.63264
-2.51272
-2.3736
-2.23296
-2.26581
-3.10923
-3.09974
-3.08079
-3.05246
-3.01481
-2.96791
-2.91174
-2.8462
-2.77099
-2.68562
-2.58925
-2.48026
-2.35345
-2.18263
-1.81112
-3.06881
-3.05899
-3.0394
-3.01016
-2.97143
-2.9234
-2.86631
-2.80043
-2.72609
-2.64385
-2.55463
-2.46019
-2.36385
-2.27167
-2.19696
-3.03523
-3.02503
-3.00472
-2.97446
-2.93451
-2.8852
-2.82699
-2.76052
-2.6867
-2.60693
-2.52363
-2.44146
-2.37137
-2.34858
-2.53089
-3.00872
-2.9981
-2.97695
-2.9455
-2.90408
-2.85317
-2.79342
-2.72573
-2.65143
-2.57246
-2.49185
-2.41434
-2.34603
-2.28305
-2.11117
-2.9896
-2.97847
-2.95634
-2.92347
-2.88025
-2.82728
-2.76535
-2.69555
-2.61941
-2.53912
-2.45792
-2.38083
-2.31701
-2.29314
-2.45226
-2.9782
-2.96649
-2.94319
-2.90861
-2.86321
-2.80762
-2.74275
-2.66977
-2.59028
-2.50643
-2.42114
-2.3381
-2.26025
-2.17614
-1.95755
-2.97495
-2.96255
-2.93788
-2.90128
-2.85323
-2.79442
-2.72578
-2.64851
-2.56417
-2.47475
-2.3828
-2.29178
-2.20785
-2.15251
-2.25727
-2.98032
-2.96712
-2.94087
-2.90191
-2.85073
-2.78805
-2.7148
-2.63216
-2.54159
-2.44483
-2.34382
-2.24054
-2.13561
-2.01769
-1.77863
-2.99486
-2.98075
-2.95269
-2.91102
-2.85623
-2.78903
-2.71034
-2.62132
-2.52332
-2.41785
-2.30642
-2.19044
-2.07239
-1.967
-1.98502
-3.01919
-3.00407
-2.97398
-2.92923
-2.87034
-2.79798
-2.71307
-2.61672
-2.51024
-2.39502
-2.27218
-2.14178
-2.00037
-1.83059
-1.54255
-3.05404
-3.03779
-3.00544
-2.95728
-2.8938
-2.81566
-2.72374
-2.61915
-2.50324
-2.37749
-2.24318
-2.10077
-1.94807
-1.77631
-1.56137
-3.10017
-3.08269
-3.04787
-2.99598
-2.92745
-2.84291
-2.7432
-2.62945
-2.50309
-2.36589
-2.21983
-2.0669
-1.90901
-1.752
-1.64315
-3.15844
-3.13964
-3.10216
-3.04623
-2.97222
-2.88069
-2.77242
-2.6485
-2.51047
-2.36043
-2.20125
-2.03648
-1.86932
-1.69426
-1.43706
-3.22976
-3.20957
-3.16927
-3.10904
-3.02917
-2.93011
-2.81251
-2.67736
-2.52618
-2.36134
-2.18655
-2.00773
-1.83512
-1.69355
-1.69681
-3.31512
-3.29346
-3.25022
-3.18548
-3.09945
-2.99239
-2.86478
-2.71735
-2.55139
-2.36916
-2.17464
-1.97467
-1.77938
-1.59224
-1.31433
-3.4155
-3.39236
-3.34609
-3.27673
-3.18432
-3.06897
-2.93081
-2.77021
-2.58789
-2.38551
-2.16653
-1.93835
-1.71798
-1.55397
-1.63636
-3.53197
-3.50732
-3.458
-3.38397
-3.28514
-3.16137
-3.01245
-2.83814
-2.63834
-2.41339
-2.16481
-1.8966
-1.61745
-1.34459
-1.11806
-3.66555
-3.63941
-3.58707
-3.50844
-3.40328
-3.27124
-3.1117
-2.92378
-2.70625
-2.45768
-2.17672
-1.86246
-1.51254
-1.10303
-0.442422
-3.81729
-3.78968
-3.73441
-3.65132
-3.5401
-3.40021
-3.23068
-3.02998
-2.79572
-2.52447
-2.21176
-1.85309
-1.44902
-1.03584
-0.900311
-3.9882
-3.95918
-3.90107
-3.81373
-3.69684
-3.54975
-3.37131
-3.15949
-2.91088
-2.62004
-2.27873
-1.87524
-1.39181
-0.775841
0.328237
-4.17927
-4.14887
-4.08804
-3.99668
-3.87454
-3.72106
-3.53512
-3.31455
-3.05537
-2.75066
-2.38889
-1.95291
-1.42666
-0.854799
-0.76409
-4.39145
-4.3597
-4.29621
-4.201
-4.074
-3.91492
-3.72299
-3.49641
-3.23149
-2.92092
-2.55057
-2.09326
-1.49317
-0.599622
1.29421
-4.62568
-4.59256
-4.52641
-4.4274
-4.29574
-4.13161
-3.93491
-3.7049
-3.43932
-3.13268
-2.77264
-2.33277
-1.76349
-1.03908
-0.841858
-4.88292
-4.84836
-4.77943
-4.67646
-4.54004
-4.3709
-4.16996
-3.93809
-3.67566
-3.38153
-3.05015
-2.66215
-2.14154
-1.11243
2.66859
-5.16416
-5.12805
-5.05608
-4.94878
-4.80705
-4.63229
-4.4265
-4.19249
-3.93403
-3.65625
-3.36697
-3.08363
-2.87271
-3.09682
-6.06238
-5.47047
-5.43264
-5.35726
-5.24499
-5.09701
-4.91522
-4.70264
-4.46388
-4.20582
-3.93894
-3.67967
-3.45482
-3.30177
-3.17742
-1.98562
-5.80306
-5.7633
-5.68406
-5.56602
-5.41044
-5.21953
-4.99698
-4.74866
-4.48375
-4.21636
-3.96847
-3.77615
-3.71089
-3.99932
-5.90026
-6.16326
-6.12137
-6.03782
-5.91311
-5.7484
-5.54582
-5.3092
-5.04497
-4.76339
-4.48024
-4.21867
-4.00925
-3.87439
-3.70143
-2.31593
-6.55254
-6.50839
-6.42014
-6.288
-6.11265
-5.89574
-5.64061
-5.35332
-5.04411
-4.72914
-4.43268
-4.19056
-4.06434
-4.24557
-5.8838
-6.97248
-6.92605
-6.83295
-6.69289
-6.50577
-6.27222
-5.99434
-5.6769
-5.32884
-4.96519
-4.60894
-4.29138
-4.0408
-3.77791
-2.47495
-7.42468
-7.3761
-7.27837
-7.13046
-6.93114
-6.67947
-6.37555
-6.02174
-5.6244
-5.1961
-4.75832
-4.34569
-4.02581
-4.03252
-5.62272
-7.91061
-7.86029
-7.75864
-7.60373
-7.39287
-7.12301
-6.7914
-6.39682
-5.94145
-5.4336
-4.89025
-4.33558
-3.78402
-3.18749
-2.41332
-8.43148
-8.38012
-8.2759
-8.11585
-7.89558
-7.60943
-7.25099
-6.8141
-6.29494
-5.69577
-5.03004
-4.32332
-3.57345
-2.46581
1.3337
-8.98803
-8.93666
-8.83193
-8.6698
-8.44402
-8.14605
-7.76506
-7.28851
-6.70401
-6.00414
-5.19829
-4.34103
-3.61132
-3.61349
-6.95653
-9.58024
-9.53025
-9.42783
-9.26795
-9.04261
-8.74033
-8.34549
-7.8379
-7.19318
-6.38612
-5.40225
-4.27017
-3.14095
-2.44111
-2.89249
-10.2072
-10.1602
-10.0636
-9.91155
-9.69463
-9.39887
-9.00423
-8.48253
-7.79509
-6.89088
-5.70912
-4.19733
-2.37239
-0.469288
0.858096
-10.8667
-10.8247
-10.7379
-10.6002
-10.4014
-10.1261
-9.75119
-9.24225
-8.54753
-7.5884
-6.24519
-4.34196
-1.65811
1.90235
5.53049
-11.5554
-11.5204
-11.4476
-11.3312
-11.1613
-10.9225
-10.5912
-10.131
-9.48359
-8.55263
-7.17015
-5.0287
-1.55258
4.22698
12.7224
-12.2684
-12.2423
-12.1876
-12.0994
-11.969
-11.7831
-11.5208
-11.1497
-10.6166
-9.83041
-8.62219
-6.64229
-3.04665
4.66558
25.814
-146.474
-88.0207
-61.5403
-48.8882
-42.1125
-38.0668
-35.4392
-33.6283
-32.3308
-31.3804
-30.6799
-30.1701
-29.8135
-29.587
-29.4769
-182.185
-82.3648
-54.6695
-43.9926
-38.6374
-35.4572
-33.3653
-31.9002
-30.8345
-30.044
-29.4555
-29.0237
-28.7201
-28.5264
-28.4321
46.9161
-26.622
-35.9804
-35.4012
-33.6519
-32.0919
-30.8561
-29.8946
-29.1471
-28.5673
-28.1221
-27.7885
-27.5503
-27.3969
-27.3218
-7.04684
-15.4483
-24.1924
-27.6225
-28.535
-28.5015
-28.1564
-27.7404
-27.3434
-26.9972
-26.7114
-26.4868
-26.3216
-26.2131
-26.1594
25.9069
-4.03673
-16.0946
-21.5922
-24.0749
-25.1274
-25.5059
-25.5731
-25.5042
-25.3851
-25.258
-25.144
-25.0534
-24.9912
-24.9597
-1.42744
-5.04579
-12.5527
-17.6555
-20.6081
-22.2214
-23.0715
-23.5002
-23.7001
-23.7786
-23.7957
-23.785
-23.7656
-23.7481
-23.7381
11.4563
-3.35445
-10.6804
-15.2119
-18.0713
-19.8455
-20.9299
-21.5862
-21.9802
-22.2147
-22.3525
-22.432
-22.4764
-22.4997
-22.5096
-3.08015
-6.86089
-10.7486
-13.9294
-16.2883
-17.9486
-19.0856
-19.8542
-20.3711
-20.7179
-20.9499
-21.1034
-21.202
-21.2606
-21.2879
-14.991
-10.2931
-11.3077
-13.2177
-14.9903
-16.415
-17.4971
-18.2971
-18.8801