/*--------------------------------*- C++ -*----------------------------------*\
| =========                 |                                                 |
| \\      /  F ield         | OpenFOAM: The Open Source CFD Toolbox           |
|  \\    /   O peration     | Version:  5.x                                   |
|   \\  /    A nd           | Web:      www.OpenFOAM.org                      |
|    \\/     M anipulation  |                                                 |
\*---------------------------------------------------------------------------*/
FoamFile
{
    version     2.0;
    format      ascii;
    class       volScalarField;
    location    "13.3";
    object      gradTx;
}
// * * * * * * * * * * * * * * * * * * * * * * * * * * * * * * * * * * * * * //

dimensions      [0 -1 0 1 0 0 0];

internalField   nonuniform List<scalar> 
2048
(
0.00630504
0.0187346
0.0306391
0.0417207
0.0517505
0.0605792
0.0681363
0.0744197
0.079479
0.0833972
0.0862739
0.0882136
0.089318
0.0896842
0.0894045
0.0885681
0.0872618
0.0855691
0.0835678
0.0813265
0.0789008
0.0763316
0.0736436
0.070847
0.0679395
0.0649091
0.0617363
0.0583954
0.0548556
0.0510811
0.0470315
0.0426632
0.0379311
0.0327905
0.0271997
0.021121
0.0145221
0.00737696
-0.00033406
-0.00862263
-0.0174903
-0.0269247
-0.0368946
-0.0473425
-0.0581769
-0.069263
-0.0804137
-0.0913819
-0.101856
-0.111464
-0.119782
-0.12636
-0.130753
-0.13257
-0.131512
-0.127416
-0.120277
-0.110248
-0.0976155
-0.082765
-0.0661296
-0.0481502
-0.0292469
-0.00980739
0.0187887
0.0558187
0.0912579
0.124208
0.153982
0.18014
0.202483
0.221017
0.235905
0.247406
0.255824
0.261474
0.264659
0.265665
0.264764
0.26222
0.258289
0.25322
0.247247
0.240575
0.233371
0.225755
0.2178
0.209534
0.200949
0.192006
0.182648
0.172797
0.162362
0.151237
0.139301
0.126425
0.112472
0.09731
0.0808131
0.0628694
0.0433832
0.0222764
-0.000509812
-0.0250117
-0.0512371
-0.0791538
-0.108675
-0.139637
-0.171778
-0.204706
-0.237875
-0.270558
-0.301832
-0.330585
-0.355548
-0.37536
-0.388674
-0.39429
-0.391296
-0.379193
-0.357962
-0.328074
-0.290412
-0.246152
-0.196608
-0.143109
-0.0869051
-0.0291382
0.0311405
0.0924844
0.151109
0.205489
0.254477
0.297358
0.333834
0.363961
0.388052
0.406573
0.420052
0.429021
0.433979
0.435391
0.433698
0.429325
0.422696
0.414223
0.404297
0.393262
0.381396
0.368899
0.355886
0.342398
0.328411
0.31386
0.298644
0.282637
0.265689
0.247625
0.228247
0.207337
0.184668
0.160018
0.133176
0.103959
0.0722079
0.0377945
0.000619999
-0.0393805
-0.0822285
-0.127885
-0.176225
-0.227004
-0.279815
-0.334044
-0.388818
-0.442963
-0.494968
-0.54299
-0.584899
-0.618385
-0.641136
-0.651075
-0.64661
-0.626862
-0.591801
-0.542253
-0.479769
-0.406389
-0.324373
-0.235961
-0.143224
-0.0480091
0.0436003
0.129428
0.211277
0.286944
0.354802
0.413879
0.463831
0.504828
0.537398
0.562266
0.580218
0.592014
0.598346
0.599843
0.597096
0.590683
0.581188
0.56919
0.555245
0.539845
0.523384
0.50614
0.488263
0.469795
0.45069
0.430845
0.410114
0.388324
0.365268
0.340708
0.314363
0.285927
0.255078
0.221498
0.184893
0.145004
0.101614
0.0545439
0.00365521
-0.0511511
-0.109922
-0.172629
-0.239135
-0.309145
-0.382147
-0.457348
-0.533596
-0.609307
-0.682412
-0.750334
-0.810046
-0.858205
-0.89142
-0.906594
-0.901329
-0.874291
-0.825432
-0.756012
-0.66838
-0.565592
-0.450973
-0.327744
-0.198793
-0.0666107
0.0563838
0.167271
0.272725
0.369776
0.456292
0.531076
0.593808
0.644865
0.685084
0.715524
0.737274
0.751334
0.758582
0.759787
0.755666
0.746935
0.734331
0.718612
0.700512
0.680687
0.659658
0.637778
0.615224
0.592023
0.56809
0.543273
0.517379
0.490188
0.461446
0.430847
0.398036
0.362607
0.324136
0.282203
0.236425
0.186469
0.132061
0.0729765
0.00903575
-0.0598993
-0.133914
-0.213013
-0.297077
-0.3858
-0.478613
-0.574598
-0.672381
-0.770026
-0.864935
-0.953805
-1.03265
-1.09699
-1.14217
-1.16386
-1.15868
-1.1247
-1.06185
-0.971943
-0.858329
-0.725315
-0.577482
-0.419134
-0.253974
-0.085056
0.0696959
0.206602
0.336346
0.45508
0.56013
0.650119
0.724853
0.785045
0.831966
0.867106
0.891907
0.907628
0.915305
0.915816
0.909969
0.898591
0.882578
0.862876
0.840424
0.816067
0.790465
0.764049
0.737007
0.709329
0.680868
0.651407
0.620703
0.588496
0.55449
0.518325
0.479562
0.437693
0.392176
0.342477
0.288119
0.228696
0.163881
0.0934119
0.0170699
-0.0653267
-0.153916
-0.24876
-0.349791
-0.456736
-0.569026
-0.68568
-0.805177
-0.925297
-1.04297
-1.15417
-1.25391
-1.33641
-1.39553
-1.42543
-1.42143
-1.38085
-1.30358
-1.19214
-1.05119
-0.886623
-0.70454
-0.510465
-0.308917
-0.103385
0.0837407
0.248
0.403008
0.543889
0.667391
0.772023
0.857857
0.926113
0.978657
1.01753
1.04458
1.06134
1.06896
1.06838
1.06045
1.04607
1.02629
1.00228
0.975225
0.946183
0.915982
0.885128
0.8538
0.821918
0.789241
0.75547
0.720304
0.683456
0.644607
0.603352
0.559167
0.511426
0.459451
0.402581
0.340232
0.271928
0.197301
0.11606
0.0279551
-0.0672413
-0.169734
-0.27967
-0.39707
-0.521743
-0.653175
-0.790402
-0.931837
-1.07507
-1.21664
-1.35184
-1.47462
-1.57774
-1.65327
-1.69348
-1.69204
-1.64521
-1.55281
-1.41831
-1.24811
-1.05014
-0.832385
-0.601755
-0.363564
-0.121567
0.0987298
0.292062
0.473588
0.637219
0.779089
0.897688
0.993546
1.06861
1.12555
1.16708
1.19556
1.21275
1.21987
1.21784
1.20746
1.1897
1.16577
1.13707
1.10509
1.07117
1.03633
1.00114
0.965754
0.929968
0.893406
0.855655
0.816363
0.775231
0.731947
0.686076
0.637009
0.583981
0.526151
0.462706
0.392945
0.316328
0.232459
0.141037
0.0417944
-0.0655429
-0.181261
-0.305619
-0.438765
-0.580638
-0.730842
-0.888507
-1.05209
-1.2191
-1.3858
-1.54687
-1.69518
-1.82185
-1.91682
-1.96997
-1.97276
-1.92005
-1.81151
-1.65186
-1.44985
-1.21607
-0.960864
-0.69271
-0.41766
-0.139505
0.114889
0.339418
0.548995
0.736092
0.896193
1.02791
1.1325
1.2129
1.27282
1.31587
1.34493
1.36198
1.36823
1.36444
1.35131
1.32979
1.30125
1.26741
1.23013
1.1911
1.15156
1.11217
1.07299
1.03364
0.99354
0.952142
0.909033
0.863945
0.816612
0.766597
0.7132
0.655487
0.592418
0.522994
0.446386
0.361994
0.26942
0.168381
0.0586087
-0.0602117
-0.188463
-0.326546
-0.474777
-0.633272
-0.801813
-0.979707
-1.16556
-1.35696
-1.55005
-1.73902
-1.91566
-2.0693
-2.18733
-2.25663
-2.26575
-2.20757
-2.08149
-1.89394
-1.65681
-1.38423
-1.08945
-0.782737
-0.470765
-0.157036
0.132464
0.39075
0.630196
0.84156
1.01965
1.16342
1.27515
1.35915
1.42048
1.4638
1.49261
1.50905
1.51416
1.50842
1.49226
1.46659
1.43295
1.39345
1.35042
1.30598
1.26169
1.21826
1.1756
1.13307
1.08982
1.0451
0.998453
0.949688
0.898659
0.844965
0.787804
0.726032
0.658358
0.583551
0.500637
0.408971
0.308189
0.19806
0.0783474
-0.0512993
-0.191374
-0.342452
-0.505063
-0.67954
-0.865899
-1.0637
-1.27183
-1.48812
-1.70879
-1.92775
-2.1358
-2.32033
-2.46573
-2.55509
-2.57314
-2.50998
-2.36451
-2.14548
-1.86905
-1.55402
-1.21724
-0.870953
-0.522257
-0.173941
0.151728
0.446806
0.71823
0.954719
1.15041
1.30486
1.42181
1.50739
1.56835
1.61064
1.63842
1.65389
1.65773
1.64994
1.63057
1.60035
1.56105
1.51528
1.46596
1.41579
1.36668
1.31942
1.27368
1.22843
1.18243
1.13471
1.08474
1.03252
0.978104
0.921187
0.860849
0.795676
0.72405
0.644459
0.555751
0.457266
0.348719
0.229986
0.100897
-0.0389199
-0.190087
-0.353398
-0.529636
-0.719392
-0.92295
-1.1402
-1.37043
-1.61191
-1.86123
-2.11225
-2.35502
-2.57486
-2.75267
-2.86687
-2.89711
-2.82961
-2.66237
-2.40725
-2.08629
-1.72442
-1.34295
-0.956203
-0.571357
-0.189944
0.172983
0.508409
0.814229
1.07673
1.28939
1.45279
1.57268
1.65747
1.71606
1.75596
1.78202
1.79631
1.79895
1.7892
1.7665
1.73133
1.68575
1.63299
1.57674
1.52043
1.46646
1.41564
1.3673
1.31986
1.27159
1.22115
1.16803
1.11247
1.05492
0.995233
0.932336
0.864455
0.789563
0.705784
0.611762
0.50685
0.390921
0.264019
0.126088
-0.0232432
-0.184749
-0.359493
-0.548562
-0.752832
-0.972876
-1.20896
-1.46091
-1.72765
-2.00641
-2.29148
-2.5724
-2.83246
-3.04859
-3.19341
-3.23998
-3.16898
-2.97692
-2.67983
-2.30786
-1.89401
-1.46494
-1.03708
-0.61715
-0.204732
0.196568
0.576474
0.919427
1.20882
1.43752
1.6077
1.7278
1.8091
1.8631
1.8992
1.92297
1.93612
1.93783
1.92637
1.90033
1.8598
1.8072
1.74662
1.68269
1.61978
1.5609
1.50689
1.45655
1.40755
1.35751
1.30465
1.24842
1.18954
1.12904
1.06703
1.00224
0.932394
0.85496
0.767595
0.66869
0.557673
0.434671
0.299975
0.153703
-0.00448671
-0.175551
-0.360891
-0.561959
-0.779932
-1.01566
-1.26981
-1.54286
-1.8346
-2.1433
-2.46416
-2.78672
-3.09239
-3.35361
-3.53604
-3.60421
-3.53096
-3.31019
-2.96366
-2.53268
-2.06089
-1.58123
-1.11197
-0.658615
-0.217961
0.222864
0.652013
1.03517
1.35229
1.59573
1.77
1.88711
1.96181
2.00877
2.03966
2.06076
2.07305
2.07435
2.06167
2.03241
1.98607
1.92561
1.85623
1.78373
1.71365
1.64983
1.59311
1.54152
1.4917
1.44046
1.38545
1.32605
1.26369
1.20034
1.13649
1.07051
0.999507
0.920303
0.829966
0.726553
0.609662
0.479814
0.337631
0.183482
0.0170905
-0.162719
-0.35778
-0.56999
-0.800826
-1.05136
-1.32266
-1.61593
-1.93207
-2.27077
-2.6288
-2.99644
-3.35352
-3.66757
-3.89602
-3.99249
-3.91883
-3.66445
-3.25894
-2.75922
-2.22269
-1.6895
-1.17909
-0.694674
-0.229273
0.252296
0.736142
1.16293
1.50854
1.7649
1.93998
2.05043
2.11501
2.15222
2.1765
2.1948
2.20682
2.20852
2.19535
2.16313
2.11047
2.04115
1.96185
1.87971
1.80179
1.73303
1.67424
1.62232
1.57255
1.52077
1.46386
1.40104
1.33486
1.26866
1.20345
1.1371
1.06581
0.985668
0.89299
0.785371
0.662728
0.526172
0.376735
0.215124
0.041194
-0.146503
-0.350369
-0.572853
-0.815711
-1.08013
-1.36751
-1.6799
-2.01946
-2.38767
-2.78376
-3.19973
-3.61436
-3.98994
-4.27437
-4.4078
-4.33646
-4.04231
-3.56568
-2.98537
-2.37655
-1.78713
-1.23655
-0.724239
-0.238317
0.285348
0.830084
1.30431
1.67906
1.9459
2.11782
2.21744
2.26799
2.29246
2.30878
2.32447
2.3372
2.34033
2.32768
2.29296
2.23337
2.15399
2.06352
1.97051
1.88391
1.81023
1.7502
1.69907
1.65033
1.59878
1.54023
1.47355
1.40293
1.33376
1.26775
1.20194
1.1313
1.05114
0.956789
0.845167
0.716761
0.573548
0.417007
0.248295
0.0674991
-0.127174
-0.33888
-0.570773
-0.824847
-1.10222
-1.40448
-1.73465
-2.09624
-2.49286
-2.92723
-3.39444
-3.87303
-4.31977
-4.67189
-4.85337
-4.78852
-4.44679
-3.88353
-3.20838
-2.5191
-1.87131
-1.28246
-0.746269
-0.244769
0.322568
0.935166
1.46101
1.86546
2.1395
2.30351
2.38777
2.41991
2.42833
2.43541
2.44911
2.46394
2.4698
2.459
2.42249
2.35518
2.26429
2.16129
2.05595
1.95965
1.88111
1.82091
1.77195
1.72531
1.67489
1.61502
1.54375
1.4677
1.39533
1.3292
1.26499
1.19599
1.11681
1.02153
0.905977
0.771633
0.621735
0.458149
0.28263
0.0956545
-0.105006
-0.323529
-0.563987
-0.828545
-1.11795
-1.43381
-1.78021
-2.16209
-2.58529
-3.05734
-3.57817
-4.12728
-4.65563
-5.08892
-5.33272
-5.28069
-4.88148
-4.21167
-3.42468
-2.64644
-1.93906
-1.31496
-0.759835
-0.248352
0.364594
1.05281
1.63486
2.06949
2.3464
2.49684
2.56096
2.56988
2.55853
2.55518
2.56808
2.58691
2.5969
2.58965
2.55245
2.47632
2.37217
2.25524
2.13587
2.02856
1.94526
1.88631
1.84119
1.79776
1.74954
1.68879
1.61181
1.52891
1.45298
1.38758
1.32623
1.25986
1.1828
1.08745
0.967842
0.82718
0.67052
0.499852
0.317728
0.125285
-0.0802758
-0.304511
-0.552732
-0.827169
-1.12776
-1.45581
-1.81676
-2.21689
-2.66402
-3.17211
-3.74828
-4.3745
-4.9956
-5.52519
-5.8496
-5.81999
-5.35067
-4.54862
-3.6298
-2.75419
-1.98739
-1.3324
-0.764179
-0.248856
0.412193
1.1845
1.82777
2.29312
2.56711
2.69733
2.73655
2.71695
2.68159
2.66678
2.68077
2.70611
2.72155
2.72001
2.68376
2.59724
2.47764
2.34553
2.21011
2.09012
2.0022
1.94634
1.9071
1.86792
1.82318
1.76228
1.67797
1.58618
1.5062
1.44267
1.38571
1.32286
1.2492
1.15488
1.03081
0.883189
0.719705
0.541803
0.353156
0.155991
-0.0532507
-0.281989
-0.537229
-0.821122
-1.13218
-1.4709
-1.84463
-2.26079
-2.72829
-3.26954
-3.90189
-4.61185
-5.33725
-5.97947
-6.40789
-6.41521
-5.85951
-4.89196
-3.81814
-2.83756
-2.01338
-1.3334
-0.758767
-0.246154
0.466321
1.33177
2.04166
2.53862
2.80195
2.90411
2.91419
2.8602
2.79586
2.76874
2.78666
2.82173
2.84356
2.85042
2.81764
2.71833
2.58057
2.43242
2.27855
2.14368
2.05135
2.00101
1.97011
1.93592
1.89628
1.83641
1.74247
1.63899
1.55437
1.49427
1.44357
1.38491
1.31612
1.22427
1.09491
0.93937
0.769123
0.583696
0.388445
0.187351
-0.0241843
-0.256071
-0.517666
-0.810847
-1.13184
-1.47953
-1.86426
-2.29429
-2.77755
-3.34765
-4.03596
-4.83626
-5.67771
-6.44925
-7.01139
-7.07751
-6.41419
-5.23786
-3.98282
-2.89141
-2.0144
-1.31692
-0.743337
-0.240213
0.528243
1.49612
2.2784
2.8087
3.05089
3.11576
3.09375
2.99875
2.89951
2.85943
2.88533
2.9343
2.9625
2.98111
2.95572
2.83994
2.68056
2.51637
2.34112
2.18847
2.09201
2.05035
2.03087
2.00178
1.96924
1.91245
1.80559
1.68664
1.59673
1.5422
1.5001
1.44577
1.38359
1.29629
1.16016
0.995319
0.818674
0.625244
0.423074
0.218917
0.00668722
-0.226794
-0.494184
-0.796817
-1.12747
-1.48219
-1.87618
-2.31827
-2.81153
-3.40448
-4.14722
-5.04464
-6.01386
-6.93014
-7.6635
-7.82113
-7.02219
-5.58053
-4.11556
-2.9105
-1.98822
-1.28244
-0.717927
-0.2311
0.59971
1.67894
2.53962
3.10681
3.31345
3.33017
3.27554
3.13182
2.99045
2.93704
2.97649
3.04481
3.07756
3.11217
3.10026
2.96226
2.77684
2.59819
2.39783
2.22353
2.12331
2.09448
2.0903
2.06523
2.04237
1.99208
1.86762
1.72819
1.63235
1.58632
1.55585
1.50507
1.4516
1.37192
1.22653
1.05045
0.86838
0.666184
0.456463
0.25022
0.0391457
-0.194111
-0.466856
-0.779525
-1.11996
-1.4793
-1.88094
-2.33412
-2.83024
-3.4381
-4.23224
-5.23397
-6.34262
-7.41529
-8.3667
-8.6645
-7.69246
-5.91144
-4.20656
-2.88964
-1.93325
-1.22993
-0.682887
-0.21898
0.683249
1.8814
2.82653
3.43747
3.58855
3.54421
3.46066
3.25878
3.06628
2.99951
3.06002
3.15499
3.18736
3.24337
3.25442
3.08523
2.86805
2.67916
2.44876
2.24769
2.14422
2.13356
2.14978
2.12563
2.11575
2.07759
1.92881
1.7624
1.66011
1.62656
1.61174
1.56211
1.51994
1.45254
1.29388
1.10393
0.918458
0.706287
0.487954
0.280763
0.0729876
-0.157866
-0.435677
-0.759478
-1.11038
-1.47119
-1.87897
-2.34385
-2.83401
-3.44671
-4.28729
-5.40151
-6.66156
-7.89455
-9.12178
-9.63155
-8.43571
-6.21824
-4.24452
-2.82412
-1.84869
-1.15996
-0.638868
-0.204109
0.782598
2.10426
3.13953
3.80683
3.87421
3.75344
3.65135
3.3791
3.12427
3.04453
3.13591
3.26759
3.28963
3.37404
3.42268
3.20836
2.95199
2.76139
2.49408
2.25951
2.1535
2.16783
2.21134
2.18175
2.18919
2.17214
1.98936
1.7877
1.67871
1.66287
1.66921
1.61581
1.58821
1.5402
1.36189
1.15455
0.969435
0.745352
0.51678
0.310038
0.108015
-0.117779
-0.400546
-0.737174
-1.10008
-1.458
-1.87048
-2.35024
-2.82344
-3.42859
-4.30829
-5.54485
-6.96968
-8.35352
-9.9268
-10.7535
-9.26458
-6.48345
-4.21684
-2.71001
-1.73468
-1.07366
-0.586791
-0.18682
0.903352
2.34766
3.47775
4.22347
4.16728
3.95153
3.8517
3.49232
3.16121
3.06949
3.20422
3.38686
3.38083
3.50278
3.61137
3.33054
3.02531
2.84813
2.53394
2.25723
2.14964
2.19752
2.27794
2.23149
2.26201
2.28006
2.04924
1.80209
1.68665
1.69526
1.73051
1.66444
1.65565
1.63779
1.43
1.2006
1.02231
0.783186
0.54204
0.337532
0.144022
-0.0734245
-0.361258
-0.713064
-1.09076
-1.43962
-1.85524
-2.35704
-2.79939
-3.38223
-4.29064
-5.66202
-7.26865
-8.77238
-10.7756
-12.0712
-10.1938
-6.68266
-4.11004
-2.54469
-1.59242
-0.972729
-0.527805
-0.167504
1.05386
2.61079
3.83834
4.69943
4.46295
4.12976
4.06838
3.59785
3.17338
3.07146
3.26492
3.51916
3.45566
3.62717
3.82947
3.44974
3.08303
2.94432
2.56844
2.23869
2.13093
2.22279
2.35391
2.27163
2.33283
2.4073
2.10806
1.80311
1.68226
1.72367
1.79893
1.70541
1.72103
1.74947
1.49722
1.2397
1.07875
0.819566
0.562654
0.362759
0.180764
-0.024209
-0.317506
-0.687506
-1.08462
-1.41557
-1.83234
-2.36929
-2.7628
-3.30643
-4.229
-5.75132
-7.5645
-9.12464
-11.6556
-13.6381
-11.2404
-6.78241
-3.91053
-2.32733
-1.42423
-0.859313
-0.463216
-0.146586
1.24649
2.89153
4.21555
5.2516
4.75423
4.27615
4.31175
3.69469
3.15651
3.04723
3.31759
3.67376
3.50645
3.7434
4.08947
3.56257
3.11805
3.05727
2.59734
2.20134
2.0954
2.24349
2.44543
2.29732
2.39937
2.562
2.16478
1.78779
1.66371
1.74786
1.87931
1.73497
1.78242
1.88107
1.56196
1.26856
1.14141
0.854162
0.57733
0.385299
0.217925
0.0306575
-0.26889
-0.660666
-1.0846
-1.38499
-1.79982
-2.39368
-2.71455
-3.20044
-4.11704
-5.81099
-7.86978
-9.37565
-12.5456
-15.5238
-12.4233
-6.73757
-3.6058
-2.05935
-1.23349
-0.735931
-0.394426
-0.12451
1.49925
3.18595
4.59956
5.9036
5.03122
4.37461
4.59725
3.78092
3.1057
2.99337
3.36102
3.86394
3.52233
3.84572
4.40868
3.66379
3.12052
3.19754
2.61981
2.14217
2.0409
2.25894
2.56128
2.30168
2.45809
2.75516
2.21736
1.75268
1.62915
1.76719
1.97849
1.74774
1.83699
2.0407
1.62178
1.28271
1.21429
0.886411
0.584511
0.404858
0.255065
0.092195
-0.214947
-0.632399
-1.09455
-1.34649
-1.75424
-2.43909
-2.65507
-3.06427
-3.94712
-5.83855
-8.20642
-9.48115
-13.4122
-17.8184
-13.7636
-6.48819
-3.18623
-1.74483
-1.02455
-0.605329
-0.322857
-0.101709
1.83793
3.48768
4.97486
6.68799
5.28013
4.40376
4.94708
3.85294
3.0155
2.90638
3.39256
4.10823
3.48836
3.92584
4.81061
3.74566
3.077
3.38007
2.63388
2.05776
1.96518
2.26751
2.71362
2.2751
2.50383
3.00155
2.26219
1.69387
1.57677
1.78028
2.10605
1.73632
1.88072
2.23936
1.67307
1.27623
1.30317
0.915341
0.582346
0.421352
0.291539
0.161699
-0.155215
-0.602061
-1.11961
-1.29815
-1.69016
-2.51718
-2.5839
-2.89904
-3.71006
-5.82969
-8.60914
-9.38563
-14.2058
-20.6382
-15.2833
-5.95596
-2.64745
-1.39075
-0.802485
-0.470328
-0.249884
-0.0785937
2.29878
3.78721
5.31847
7.64907
5.48223
4.33565
5.3923
3.90446
2.88
2.78296
3.4072
4.43214
3.38438
3.97222
5.32677
3.79715
2.96968
3.62554
2.63584
1.94436
1.86609
2.26601
2.91914
2.20458
2.52936
3.32076
2.29345
1.6071
1.50502
1.78456
2.27508
1.69067
1.90806
2.49186
1.71066
1.24139
1.41621
0.939312
0.568654
0.435013
0.326412
0.240799
-0.089317
-0.568267
-1.16648
-1.23747
-1.59948
-2.64326
-2.49907
-2.70751
-3.3949
-5.7766
-9.12966
-9.02091
-14.8557
-24.1316
-17.0051
-5.0401
-1.99352
-1.00696
-0.572821
-0.33368
-0.176778
-0.0555357
2.9317
4.07098
5.59764
8.84617
5.6124
4.13431
5.97537
3.92507
2.69309
2.62034
3.39644
4.87003
3.18384
3.96917
5.99865
3.80297
2.77533
3.962
2.61925
1.79799
1.74178
2.24895
3.20026
2.07291
2.52489
3.73839
2.3022
1.48799
1.41282
1.77564
2.50322
1.59748
1.91156
2.81769
1.7273
1.16826
1.56462
0.955684
0.540917
0.446524
0.35833
0.331543
-0.0171091
-0.528574
-1.24387
-1.16145
-1.4706
-2.83727
-2.39615
-2.49475
-2.98878
-5.66577
-9.84143
-8.30469
-15.2644
-28.4862
-18.9508
-3.61292
-1.24083
-0.605812
-0.341146
-0.197923
-0.104664
-0.0328566
3.804
4.32044
5.76725
10.3574
5.63763
3.75412
6.75292
3.89852
2.44882
2.41684
3.34672
5.46741
2.85236
3.89591
6.88
3.74248
2.46429
4.42673
2.5739
1.61478
1.59108
2.20755
3.58664
1.85774
2.47755
4.28749
2.27534
1.33227
1.29992
1.74652
2.81376
1.43944
1.88144
3.24213
1.71317
1.04431
1.76339
0.960383
0.49629
0.457177
0.385368
0.436499
0.0611344
-0.479088
-1.36297
-1.0666
-1.28758
-3.12501
-2.26722
-2.26894
-2.47701
-5.47507
-10.845
-7.13945
-15.3012
-33.9369
-21.1394
-1.51516
-0.422854
-0.201267
-0.112737
-0.0652796
-0.0344909
-0.0108239
)
;

boundaryField
{
    left
    {
        type            calculated;
        value           uniform 0;
    }
    right
    {
        type            calculated;
        value           uniform 0;
    }
    interface
    {
        type            calculated;
        value           nonuniform List<scalar> 
64
(
3.804
4.32044
5.76725
10.3574
5.63763
3.75412
6.75292
3.89852
2.44882
2.41684
3.34672
5.46741
2.85236
3.89591
6.88
3.74248
2.46429
4.42673
2.5739
1.61478
1.59108
2.20755
3.58664
1.85774
2.47755
4.28749
2.27534
1.33227
1.29992
1.74652
2.81376
1.43944
1.88144
3.24213
1.71317
1.04431
1.76339
0.960383
0.49629
0.457177
0.385368
0.436499
0.0611344
-0.479088
-1.36297
-1.0666
-1.28758
-3.12501
-2.26722
-2.26894
-2.47701
-5.47507
-10.845
-7.13945
-15.3012
-33.9369
-21.1394
-1.51516
-0.422854
-0.201267
-0.112737
-0.0652796
-0.0344909
-0.0108239
)
;
    }
    bottom
    {
        type            calculated;
        value           nonuniform List<scalar> 
64
(
0.00630504
0.0187346
0.0306391
0.0417207
0.0517505
0.0605792
0.0681363
0.0744197
0.079479
0.0833972
0.0862739
0.0882136
0.089318
0.0896842
0.0894045
0.0885681
0.0872618
0.0855691
0.0835678
0.0813265
0.0789008
0.0763316
0.0736436
0.070847
0.0679395
0.0649091
0.0617363
0.0583954
0.0548556
0.0510811
0.0470315
0.0426632
0.0379311
0.0327905
0.0271997
0.021121
0.0145221
0.00737696
-0.00033406
-0.00862263
-0.0174903
-0.0269247
-0.0368946
-0.0473425
-0.0581769
-0.069263
-0.0804137
-0.0913819
-0.101856
-0.111464
-0.119782
-0.12636
-0.130753
-0.13257
-0.131512
-0.127416
-0.120277
-0.110248
-0.0976155
-0.082765
-0.0661296
-0.0481502
-0.0292469
-0.00980739
)
;
    }
    defaultFaces
    {
        type            empty;
    }
}


// ************************************************************************* //
