/*--------------------------------*- C++ -*----------------------------------*\
| =========                 |                                                 |
| \\      /  F ield         | OpenFOAM: The Open Source CFD Toolbox           |
|  \\    /   O peration     | Version:  5.x                                   |
|   \\  /    A nd           | Web:      www.OpenFOAM.org                      |
|    \\/     M anipulation  |                                                 |
\*---------------------------------------------------------------------------*/
FoamFile
{
    version     2.0;
    format      ascii;
    class       volScalarField;
    location    "19.5999";
    object      gradTx;
}
// * * * * * * * * * * * * * * * * * * * * * * * * * * * * * * * * * * * * * //

dimensions      [0 -1 0 1 0 0 0];

internalField   nonuniform List<scalar> 
6300
(
-31.9567
-32.0274
-32.1682
-32.3775
-32.6532
-32.9921
-33.3899
-33.8413
-34.3395
-34.8764
-35.4428
-36.028
-36.6212
-37.2111
-37.787
-31.886
-31.9574
-32.0996
-32.3111
-32.59
-32.9331
-33.3364
-33.7945
-34.3008
-34.8471
-35.4238
-36.0201
-36.6246
-37.2251
-37.8103
-31.7439
-31.8166
-31.9616
-32.1775
-32.4625
-32.814
-33.2281
-33.6996
-34.2221
-34.7872
-35.3851
-36.0042
-36.6318
-37.2543
-37.8589
-31.5291
-31.6037
-31.7525
-31.9747
-32.2687
-32.6323
-33.0622
-33.5538
-34.1007
-34.6946
-35.3253
-35.9799
-36.6439
-37.3016
-37.937
-31.2397
-31.3166
-31.4702
-31.7001
-32.0053
-32.3843
-32.8347
-33.3526
-33.9322
-34.5654
-35.2414
-35.9461
-36.6625
-37.371
-38.0514
-30.8734
-30.9528
-31.1116
-31.3501
-31.668
-32.065
-32.5398
-33.0897
-33.7101
-34.3935
-35.1288
-35.9007
-36.6888
-37.4686
-38.2128
-30.4277
-30.5095
-30.6735
-30.9205
-31.2517
-31.668
-32.1697
-32.7563
-33.4249
-34.1696
-34.9797
-35.839
-36.7234
-37.6018
-38.4364
-29.9002
-29.9839
-30.1523
-30.4069
-30.7503
-31.1854
-31.7148
-32.3409
-33.0636
-33.8801
-34.7817
-35.752
-36.7642
-37.7788
-38.7436
-29.2891
-29.3738
-29.5447
-29.8045
-30.1573
-30.6083
-31.1634
-31.8286
-32.6087
-33.5055
-34.5149
-35.6231
-36.8024
-38.0058
-39.1623
-28.5931
-28.6775
-28.8482
-29.1091
-29.4661
-29.9271
-30.5019
-31.2015
-32.0372
-33.0184
-34.1492
-35.4231
-36.8164
-38.2797
-39.7246
-27.8128
-27.8949
-28.0615
-28.3176
-28.6709
-29.1322
-29.7155
-30.4382
-31.3201
-32.3817
-33.6403
-35.1035
-36.7606
-38.5719
-40.4515
-26.9504
-27.0278
-27.1854
-27.4289
-27.7677
-28.2152
-28.7898
-29.5157
-30.4232
-31.5479
-32.9267
-34.5899
-36.55
-38.7957
-41.3
-26.0107
-26.0805
-26.2232
-26.4449
-26.7558
-27.1711
-27.7128
-28.4116
-29.3092
-30.4599
-31.9284
-33.7787
-36.0524
-38.759
-41.998
-25.001
-25.0604
-25.182
-25.3717
-25.6394
-26.0007
-26.4788
-27.1086
-27.9419
-29.0539
-30.5474
-32.5423
-35.1174
-38.1811
-41.5941
-23.932
-23.9781
-24.0727
-24.2204
-24.4296
-24.7134
-25.093
-25.602
-26.2957
-27.2658
-28.6636
-30.7205
-33.6802
-37.2222
-37.6785
-38.2957
-38.7352
-39.1506
-39.5398
-39.9022
-40.2374
-40.546
-40.8284
-41.0848
-41.3152
-41.5188
-41.6948
-41.842
-41.9597
-42.0478
-42.1072
-42.1397
-42.1483
-42.1369
-42.1096
-42.0707
-42.0241
-41.9727
-41.9181
-41.861
-41.8008
-41.736
-41.6646
-41.5847
-41.4949
-41.3946
-41.284
-41.1648
-41.039
-40.9096
-40.7795
-40.6512
-40.5267
-40.4067
-40.2911
-40.1787
-40.0676
-39.9554
-39.84
-39.7195
-39.5931
-39.4609
-39.3239
-39.1841
-39.0439
-38.906
-38.7725
-38.6451
-38.5244
-38.4101
-38.3009
-38.195
-38.0899
-37.9835
-37.874
-37.7605
-37.6431
-37.5226
-37.4009
-37.2803
-37.1633
-37.0519
-36.9477
-36.8514
-36.7628
-36.6808
-36.6038
-36.53
-36.4577
-36.3859
-36.3144
-36.2444
-36.178
-36.1183
-36.0691
-36.0344
-36.018
-36.0228
-36.0506
-36.1013
-36.1735
-36.2637
-36.367
-36.4772
-36.5875
-38.3259
-38.7699
-39.1881
-39.5787
-39.9411
-40.2758
-40.5837
-40.8657
-41.1224
-41.3537
-41.5587
-41.7361
-41.8844
-42.0023
-42.0892
-42.1458
-42.174
-42.1772
-42.1596
-42.1262
-42.0819
-42.0311
-41.9771
-41.9218
-41.8656
-41.8074
-41.7454
-41.6767
-41.599
-41.5101
-41.4092
-41.2966
-41.1741
-41.0443
-40.9107
-40.7768
-40.6459
-40.5201
-40.4004
-40.2865
-40.1769
-40.0691
-39.9601
-39.8472
-39.728
-39.6015
-39.4677
-39.3279
-39.1846
-39.0407
-38.8995
-38.7638
-38.6354
-38.5152
-38.4027
-38.2964
-38.1937
-38.0918
-37.9879
-37.8798
-37.7663
-37.6474
-37.5243
-37.3993
-37.2753
-37.1551
-37.0415
-36.9363
-36.8403
-36.7532
-36.6736
-36.5993
-36.5278
-36.457
-36.3853
-36.3124
-36.2393
-36.1683
-36.1031
-36.0481
-36.0081
-35.9875
-35.9898
-36.0174
-36.0705
-36.1476
-36.2449
-36.3571
-36.4772
-36.5974
-38.3888
-38.8419
-39.2654
-39.6581
-40.02
-40.3529
-40.6587
-40.9395
-41.1966
-41.43
-41.6383
-41.8195
-41.9707
-42.0894
-42.1743
-42.2253
-42.2445
-42.236
-42.2052
-42.1585
-42.1025
-42.0427
-41.9834
-41.9267
-41.8728
-41.8198
-41.7642
-41.7021
-41.6293
-41.5427
-41.4407
-41.3236
-41.1938
-41.055
-40.9121
-40.77
-40.6332
-40.5046
-40.3857
-40.2758
-40.1725
-40.0722
-39.9705
-39.8633
-39.7472
-39.6205
-39.4831
-39.3371
-39.1859
-39.0337
-38.8853
-38.7444
-38.6139
-38.4948
-38.3865
-38.2865
-38.1913
-38.0966
-37.9983
-37.8933
-37.7798
-37.6577
-37.5288
-37.3964
-37.2646
-37.1375
-37.019
-36.9117
-36.8165
-36.7329
-36.6587
-36.5906
-36.5247
-36.4575
-36.3866
-36.3107
-36.231
-36.1503
-36.0732
-36.0056
-35.9538
-35.9238
-35.9206
-35.9474
-36.0052
-36.0924
-36.2048
-36.3358
-36.4769
-36.6184
-38.4894
-38.9563
-39.3873
-39.7816
-40.1409
-40.4687
-40.7696
-41.0476
-41.305
-41.5422
-41.7572
-41.946
-42.1036
-42.2254
-42.308
-42.3505
-42.355
-42.3268
-42.2736
-42.2044
-42.1284
-42.0536
-41.9858
-41.9277
-41.8788
-41.8357
-41.7926
-41.7427
-41.6794
-41.5974
-41.4938
-41.3691
-41.2264
-41.0717
-40.9122
-40.7556
-40.6085
-40.4753
-40.358
-40.2555
-40.1639
-40.0773
-39.989
-39.8922
-39.7817
-39.6547
-39.5111
-39.3539
-39.1884
-39.0215
-38.86
-38.7101
-38.5759
-38.459
-38.3583
-38.2698
-38.1881
-38.1065
-38.0185
-37.9191
-37.8056
-37.6778
-37.5385
-37.3928
-37.2469
-37.1076
-36.9805
-36.8695
-36.7761
-36.6992
-36.6351
-36.5786
-36.5234
-36.4636
-36.3947
-36.3147
-36.2241
-36.127
-36.0297
-35.9404
-35.8682
-35.8217
-35.8082
-35.8327
-35.8974
-36.0008
-36.1379
-36.3
-36.476
-36.653
-38.6364
-39.1224
-39.5622
-39.9556
-40.3069
-40.6235
-40.9137
-41.1851
-41.4425
-41.6865
-41.9137
-42.1173
-42.2883
-42.4179
-42.4995
-42.5303
-42.5126
-42.4538
-42.365
-42.26
-42.1525
-42.0545
-41.9743
-41.9155
-41.8766
-41.8515
-41.8307
-41.8028
-41.7565
-41.683
-41.5775
-41.4402
-41.2764
-41.0952
-40.9083
-40.7277
-40.5636
-40.4232
-40.3091
-40.2195
-40.1479
-40.085
-40.0196
-39.9408
-39.8401
-39.7127
-39.5585
-39.3825
-39.1931
-39.0013
-38.8181
-38.6532
-38.513
-38.4
-38.3122
-38.2435
-38.1848
-38.1255
-38.0551
-37.9654
-37.8518
-37.7144
-37.5575
-37.3893
-37.2199
-37.0601
-36.9187
-36.8019
-36.7119
-36.6468
-36.6007
-36.5647
-36.5287
-36.4828
-36.4191
-36.3336
-36.2268
-36.1041
-35.9746
-35.8507
-35.7455
-35.6719
-35.6409
-35.6603
-35.734
-35.8609
-36.0347
-36.2443
-36.4739
-36.7052
-38.8437
-39.3552
-39.8038
-40.1903
-40.5231
-40.8161
-41.0848
-41.343
-41.5992
-41.855
-42.1044
-42.3354
-42.5324
-42.6795
-42.7641
-42.78
-42.7296
-42.6237
-42.4798
-42.3191
-42.1631
-42.0298
-41.932
-41.8744
-41.8543
-41.8612
-41.8791
-41.8892
-41.8727
-41.8147
-41.707
-41.5497
-41.3513
-41.1269
-40.8953
-40.6758
-40.4847
-40.3331
-40.2251
-40.1573
-40.1196
-40.0963
-40.0694
-40.0211
-39.9369
-39.8091
-39.6376
-39.4303
-39.2014
-38.9687
-38.75
-38.5606
-38.411
-38.3048
-38.2387
-38.2028
-38.1825
-38.1603
-38.1194
-38.046
-37.9325
-37.779
-37.5928
-37.3873
-37.1794
-36.9859
-36.8214
-36.6956
-36.612
-36.5672
-36.5516
-36.5509
-36.5484
-36.5274
-36.4748
-36.3832
-36.2525
-36.0907
-35.9117
-35.7339
-35.5773
-35.4608
-35.401
-35.4099
-35.494
-35.6532
-35.8802
-36.1596
-36.4692
-36.7822
-39.1327
-39.6789
-40.1346
-40.5021
-40.7967
-41.0436
-41.271
-41.5037
-41.7567
-42.0327
-42.3215
-42.6025
-42.8485
-43.0312
-43.1275
-43.1252
-43.0265
-42.8483
-42.6187
-42.3716
-42.1407
-41.9542
-41.8315
-41.7796
-41.7932
-41.855
-41.9389
-42.0138
-42.0486
-42.0181
-41.908
-41.7184
-41.4635
-41.1688
-40.865
-40.583
-40.349
-40.1802
-40.0831
-40.052
-40.0703
-40.1129
-40.1502
-40.1528
-40.0967
-39.9685
-39.7681
-39.5092
-39.2154
-38.9158
-38.6395
-38.4109
-38.2464
-38.1518
-38.1216
-38.1398
-38.1828
-38.2223
-38.2304
-38.1843
-38.071
-37.8906
-37.6558
-37.389
-37.1179
-36.87
-36.6685
-36.5287
-36.4562
-36.4454
-36.481
-36.5398
-36.5945
-36.6177
-36.5868
-36.4888
-36.3232
-36.1019
-35.8471
-35.5868
-35.3511
-35.1682
-35.0622
-35.0511
-35.1457
-35.3481
-35.6501
-36.0314
-36.4599
-36.8948
-39.5366
-40.1326
-40.5927
-40.9189
-41.1391
-41.2991
-41.4498
-41.635
-41.881
-42.1918
-42.55
-42.9201
-43.2557
-43.5073
-43.6331
-43.6092
-43.4378
-43.1468
-42.7829
-42.4009
-42.0542
-41.787
-41.6288
-41.5905
-41.6625
-41.817
-42.0117
-42.1961
-42.3186
-42.3361
-42.2235
-41.9808
-41.6333
-41.2238
-40.8033
-40.4213
-40.1192
-39.9242
-39.8461
-39.8756
-39.9859
-40.137
-40.2809
-40.369
-40.3604
-40.2317
-39.9831
-39.6382
-39.2376
-38.8294
-38.4602
-38.1689
-37.9813
-37.9061
-37.9346
-38.0412
-38.1881
-38.3296
-38.4195
-38.4192
-38.3062
-38.0805
-37.7647
-37.397
-37.0231
-36.6873
-36.4265
-36.2651
-36.2114
-36.2569
-36.3769
-36.5347
-36.6861
-36.7858
-36.7954
-36.692
-36.474
-36.1614
-35.7902
-35.4044
-35.0489
-34.7648
-34.5866
-34.5401
-34.6422
-34.8996
-35.3057
-35.8352
-36.4416
-37.0609
-40.106
-40.782
-41.2434
-41.4885
-41.5684
-41.5677
-41.5791
-41.6789
-41.9118
-42.2829
-42.7611
-43.2874
-43.7837
-44.1647
-44.3541
-44.3057
-44.0212
-43.5503
-42.9732
-42.3794
-41.853
-41.4626
-41.2537
-41.2425
-41.4132
-41.721
-42.0995
-42.4675
-42.7399
-42.8414
-42.7261
-42.3944
-41.8923
-41.2948
-40.6859
-40.1446
-39.735
-39.4999
-39.4543
-39.5827
-39.8428
-40.1714
-40.4921
-40.7243
-40.7971
-40.6677
-40.3366
-39.8474
-39.271
-38.6867
-38.1688
-37.7778
-37.554
-37.5113
-37.6349
-37.8848
-38.201
-38.5111
-38.7386
-38.8164
-38.7035
-38.4003
-37.9482
-37.4141
-36.8734
-36.3966
-36.0415
-35.8462
-35.824
-35.961
-36.2185
-36.5389
-36.8521
-37.0835
-37.1668
-37.0602
-36.7609
-36.3053
-35.7545
-35.1783
-34.6437
-34.2091
-33.9213
-33.8152
-33.9151
-34.2372
-34.7836
-35.5281
-36.4048
-37.3098
-40.9178
-41.7403
-42.2053
-42.2961
-42.1134
-41.8193
-41.581
-41.5312
-41.7436
-42.2195
-42.9033
-43.698
-44.4777
-45.0978
-45.4177
-45.3423
-44.8728
-44.107
-43.1874
-42.2608
-41.4562
-40.877
-40.5938
-40.6327
-40.9662
-41.5234
-42.202
-42.8768
-43.4073
-43.6588
-43.5405
-43.0531
-42.2889
-41.3822
-40.4714
-39.678
-39.0997
-38.8028
-38.8118
-39.1003
-39.6011
-40.2173
-40.8307
-41.3089
-41.5251
-41.3942
-40.9175
-40.1824
-39.3158
-38.4483
-37.6944
-37.1462
-36.866
-36.8768
-37.1536
-37.6328
-38.2227
-38.8114
-39.2734
-39.4882
-39.375
-38.9347
-38.2498
-37.4407
-36.6314
-35.9308
-35.4264
-35.1779
-35.2075
-35.4915
-35.9694
-36.5534
-37.1358
-37.5946
-37.8118
-37.7058
-37.2728
-36.5862
-35.7555
-34.8923
-34.0946
-33.4418
-32.9944
-32.7938
-32.8681
-33.2515
-33.9762
-35.0309
-36.327
-37.691
-42.0821
-43.2137
-43.706
-43.4972
-42.8191
-41.9904
-41.3115
-41.0062
-41.1958
-41.857
-42.8857
-44.13
-45.4015
-46.4632
-47.0507
-46.9463
-46.1512
-44.885
-43.4118
-41.9667
-40.7345
-39.8653
-39.4698
-39.5988
-40.1971
-41.151
-42.3102
-43.4937
-44.4764
-45.0087
-44.8861
-44.1107
-42.8905
-41.4755
-40.0876
-38.9016
-38.0593
-37.6651
-37.7669
-38.3121
-39.1931
-40.2673
-41.364
-42.2708
-42.753
-42.6186
-41.8708
-40.7065
-39.3619
-38.0462
-36.9239
-36.1286
-35.7588
-35.8593
-36.3808
-37.2213
-38.2463
-39.2943
-40.1639
-40.6325
-40.5174
-39.8211
-38.73
-37.4678
-36.233
-35.1823
-34.4429
-34.1092
-34.2246
-34.7428
-35.5674
-36.5705
-37.5973
-38.4536
-38.9222
-38.8224
-38.1496
-37.0749
-35.8031
-34.5123
-33.3366
-32.3789
-31.7122
-31.3764
-31.376
-31.7745
-32.6934
-34.1862
-36.1516
-38.2922
-43.7269
-45.6095
-46.2167
-45.3727
-43.7403
-41.9462
-40.5045
-39.7686
-39.9687
-40.9653
-42.5577
-44.5229
-46.6276
-48.5115
-49.6799
-49.5449
-48.1079
-45.9609
-43.5959
-41.366
-39.49
-38.1715
-37.5907
-37.8891
-38.9159
-40.483
-42.3833
-44.3998
-46.194
-47.3018
-47.1719
-45.8087
-43.7727
-41.5296
-39.4132
-37.6304
-36.3736
-35.8133
-36.0833
-37.0406
-38.5066
-40.2851
-42.1708
-43.8443
-44.8686
-44.7264
-43.4236
-41.4905
-39.3664
-37.3656
-35.6826
-34.4985
-33.9741
-34.2358
-35.1486
-36.544
-38.237
-40.0338
-41.632
-42.617
-42.4969
-41.2762
-39.4568
-37.4552
-35.5696
-33.9854
-32.8754
-32.3936
-32.6617
-33.5528
-34.9083
-36.5535
-38.3045
-39.8709
-40.8511
-40.764
-39.6054
-37.8473
-35.878
-33.9664
-32.2645
-30.8971
-29.9533
-29.4761
-29.3094
-29.5483
-30.5841
-32.6608
-35.7237
-39.2776
-45.8443
-49.8494
-50.8242
-48.382
-44.8893
-41.3937
-38.6815
-37.1833
-37.595
-39.2158
-41.6927
-44.715
-48.1716
-51.5902
-54.186
-54.0183
-51.0871
-47.3508
-43.5854
-40.2556
-37.4427
-35.4154
-34.4454
-35.1303
-36.8569
-39.3352
-42.289
-45.6259
-48.9001
-51.3772
-51.2337
-48.4754
-44.9532
-41.4014
-38.2584
-35.6017
-33.6849
-32.7658
-33.4102
-35.0366
-37.37
-40.1484
-43.2833
-46.3523
-48.6642
-48.5053
-45.8842
-42.5494
-39.1934
-36.2273
-33.7229
-31.9184
-31.0575
-31.6747
-33.2213
-35.4381
-38.0782
-41.0595
-43.983
-46.1931
-46.0611
-43.5933
-40.446
-37.2755
-34.4723
-32.1055
-30.4032
-29.5984
-30.2017
-31.694
-33.8318
-36.3844
-39.2773
-42.1324
-44.3169
-44.2484
-41.9245
-38.9241
-35.8696
-33.1187
-30.711
-28.8051
-27.5224
-27.1289
-26.6586
-26.1744
-26.976
-29.7153
-34.5889
-40.9785
-47.3696
-58.4695
-60.3942
-52.921
-46.0294
-39.7063
-35.1085
-31.8474
-33.4802
-36.2333
-40.0426
-44.2815
-49.7705
-55.8537
-62.6715
-62.4711
-55.2257
-48.7827
-42.9476
-38.401
-34.2643
-31.1367
-28.9171
-30.8713
-33.7157
-37.5025
-41.6429
-46.9425
-52.7538
-59.2263
-59.0607
-52.2422
-46.1764
-40.6844
-36.4035
-32.5075
-29.5593
-27.4671
-29.3227
-32.0145
-35.5928
-39.4982
-44.4907
-49.9506
-56.0177
-55.83
-49.3723
-43.6388
-38.4588
-34.4243
-30.7554
-27.9796
-26.0122
-27.7755
-30.329
-33.7224
-37.4283
-42.1683
-47.3614
-53.1419
-52.9887
-46.8891
-41.4684
-36.5668
-32.7466
-29.269
-26.6384
-24.7754
-26.4617
-28.9056
-32.1582
-35.725
-40.3047
-45.3595
-51.0272
-50.9803
-45.218
-40.0787
-35.4238
-31.7769
-28.435
-25.8155
-23.8112
-24.8923
-24.0278
-20.9491
-20.5777
-23.6964
-31.271
-44.1093
-41.0044
-80.2582
-83.6479
-56.7759
-46.3725
-35.532
-29.6104
-19.4642
-27.752
-31.73
-37.7738
-42.0481
-50.5137
-59.0592
-81.2634
-81.0688
-58.209
-49.339
-40.4542
-35.9564
-29.6325
-25.5506
-17.3785
-25.3304
-29.2172
-35.1608
-39.3275
-47.5224
-55.6553
-76.6341
-76.4679
-54.9253
-46.5731
-38.2233
-33.9944
-28.0486
-24.2011
-16.4833
-24.0313
-27.716
-33.3443
-37.2829
-45.0249
-52.6747
-72.3779
-72.1836
-51.8176
-43.931
-36.0748
-32.0949
-26.5017
-22.8766
-15.5948
-22.7382
-26.2272
-31.557
-35.289
-42.6248
-49.8941
-68.635
-68.479
-49.2074
-41.7434
-34.3011
-30.5273
-25.213
-21.768
-14.8417
-21.6306
-24.9528
-30.0322
-33.6071
-40.6478
-47.7042
-65.9664
-65.9424
-47.6145
-40.5356
-33.5268
-29.9957
-25.1187
-21.9401
-15.6571
-25.4573
-24.5854
-11.8254
-9.15342
-11.2611
-20.3734
-50.2144
-36.7
-36.804
-36.8793
-36.9205
-36.9259
-36.8972
-36.8392
-36.7587
-36.6639
-36.5633
-36.4652
-36.3771
-36.3053
-36.2546
-36.2285
-36.7199
-36.8327
-36.9134
-36.9564
-36.96
-36.9265
-36.8616
-36.773
-36.6697
-36.5608
-36.4552
-36.3608
-36.2841
-36.2301
-36.2023
-36.7622
-36.8933
-36.9853
-37.0316
-37.031
-36.9873
-36.9078
-36.8021
-36.681
-36.555
-36.4341
-36.3269
-36.2402
-36.1795
-36.1483
-36.8319
-36.9931
-37.1029
-37.1537
-37.1453
-37.0839
-36.9801
-36.8466
-36.697
-36.5442
-36.3994
-36.2722
-36.1704
-36.0994
-36.063
-36.938
-37.1443
-37.2796
-37.3349
-37.3125
-37.2229
-37.082
-36.9073
-36.7165
-36.5252
-36.3469
-36.1924
-36.0697
-35.9848
-35.9414
-37.0948
-37.3665
-37.5361
-37.5939
-37.5469
-37.4134
-37.2175
-36.9842
-36.7363
-36.4933
-36.2708
-36.0806
-35.9312
-35.8286
-35.7764
-37.3257
-37.6909
-37.9044
-37.9577
-37.8677
-37.6663
-37.3905
-37.0755
-36.7512
-36.441
-36.1624
-35.9279
-35.7459
-35.622
-35.5592
-37.6687
-38.1669
-38.433
-38.4648
-38.2999
-37.9937
-37.6028
-37.1762
-36.7519
-36.357
-36.0099
-35.7227
-35.5027
-35.3541
-35.2793
-38.1874
-38.8752
-39.1956
-39.1687
-38.8735
-38.4056
-37.8507
-37.2748
-36.7232
-36.2251
-35.7977
-35.4504
-35.188
-35.0125
-34.9246
-38.9941
-39.9509
-40.3056
-40.1409
-39.6198
-38.9045
-38.1198
-37.3488
-36.641
-36.0225
-35.5053
-35.0932
-34.7863
-34.5831
-34.482
-40.2975
-41.6285
-41.9352
-41.4693
-40.5604
-39.4727
-38.3751
-37.3598
-36.4695
-35.7187
-35.1077
-34.6308
-34.281
-34.0518
-33.9383
-42.5187
-44.3302
-44.3375
-43.2406
-41.6799
-40.0509
-38.548
-37.2458
-36.1586
-35.275
-34.5759
-34.0414
-33.6552
-33.4045
-33.2813
-46.5968
-48.8362
-47.8441
-45.4758
-42.8676
-40.5028
-38.5204
-36.9169
-35.6439
-34.6471
-33.8793
-33.3039
-32.8937
-32.6299
-32.5009
-54.9115
-56.5735
-52.7267
-47.951
-43.8118
-40.5725
-38.1138
-36.2574
-34.8531
-33.79
-32.9905
-32.4011
-31.9857
-31.7206
-31.5915
-74.4916
-69.8196
-58.5383
-49.7896
-43.8563
-39.8616
-37.1047
-35.146
-33.721
-32.6693
-31.8915
-31.3244
-30.9275
-30.6754
-30.5529
-22.9097
-22.9417
-23.007
-23.1087
-23.2521
-23.4457
-23.704
-24.0517
-24.5333
-25.2341
-26.3302
-28.2133
-31.7976
-39.0831
-52.1709
-21.9581
-21.9763
-22.013
-22.0692
-22.1467
-22.2482
-22.3791
-22.5493
-22.7789
-23.1122
-23.6595
-24.7382
-27.4567
-36.6161
-78.0816
-20.9939
-20.9979
-21.0054
-21.015
-21.0245
-21.0303
-21.027
-21.0058
-20.9525
-20.8419
-20.6181
-20.1082
-18.5451
-11.7025
25.3244
-20.0269
-20.0172
-19.9964
-19.9609
-19.9049
-19.8188
-19.6872
-19.4845
-19.1661
-18.6506
-17.7767
-16.2033
-13.2112
-7.73956
-3.89957
-19.0666
-19.0443
-18.9974
-18.9209
-18.8061
-18.6389
-18.3969
-18.0434
-17.5166
-16.7088
-15.4238
-13.2918
-9.58405
-2.63351
13.4339
-18.1217
-18.0885
-18.0191
-17.9076
-17.7437
-17.511
-17.1841
-16.7225
-16.0621
-15.098
-13.6596
-11.4789
-8.20996
-3.85489
-1.97749
-17.2
-17.1577
-17.07
-16.9307
-16.729
-16.4486
-16.0646
-15.5399
-14.8184
-13.8165
-12.4107
-10.4228
-7.59083
-3.35478
4.89451
-16.3077
-16.2583
-16.1568
-15.997
-15.769
-15.4581
-15.043
-14.4938
-13.7694
-12.8156
-11.5657
-9.95303
-7.94699
-5.64147
-3.48408
-15.4496
-15.3953
-15.2841
-15.1107
-14.8666
-14.5399
-14.1144
-13.5693
-12.8798
-12.0201
-10.9727
-9.75646
-8.5112
-7.82527
-10.3645
-14.6292
-14.5717
-14.4545
-14.2734
-14.0217
-13.6904
-13.2689
-12.7451
-12.1084
-11.3549
-10.497
-9.58002
-8.68702
-7.76936
-5.05909
-13.8487
-13.7895
-13.6695
-13.4852
-13.2319
-12.9036
-12.4943
-11.9992
-11.4182
-10.7622
-10.0623
-9.38692
-8.87994
-8.95834
-11.8208
-13.1094
-13.0497
-12.929
-12.7449
-12.4941
-12.1732
-11.7794
-11.3129
-10.7802
-10.2
-9.6106
-9.07684
-8.66637
-8.21392
-5.59298
-12.4115
-12.3521
-12.2325
-12.0509
-11.8051
-11.4933
-11.1149
-10.6725
-10.1752
-9.64403
-9.12028
-8.68116
-8.48193
-8.9754
-12.5225
-11.7549
-11.6965
-11.5791
-11.4014
-11.162
-10.8598
-10.4949
-10.0702
-9.59374
-9.08295
-8.57119
-8.11886
-7.81646
-7.61634
-5.50643
-11.1388
-11.0819
-10.9675
-10.7947
-10.5625
-10.2697
-9.91637
-9.50375
-9.03615
-8.52254
-7.98081
-7.45246
-7.07995
-7.58353
-13.4339
-10.5622
-10.5071
-10.3965
-10.2294
-10.0049
-9.72184
-9.37901
-8.97554
-8.5105
-7.98168
-7.38114
-6.67782
-5.73504
-3.83767
3.36077
-10.0239
-9.97095
-9.86457
-9.70402
-9.48815
-9.21542
-8.88377
-8.4901
-8.02913
-7.49061
-6.85286
-6.06947
-5.05304
-3.7731
-3.6305
-9.52248
-9.47188
-9.37031
-9.21703
-9.01083
-8.74993
-8.43159
-8.05138
-7.60163
-7.06845
-6.42572
-5.62297
-4.55403
-2.91871
0.748106
-9.05615
-9.0082
-8.91197
-8.76679
-8.57151
-8.32434
-8.02239
-7.66095
-7.23208
-6.72237
-6.10969
-5.36132
-4.44834
-3.47508
-3.59765
-8.62313
-8.57805
-8.48764
-8.35135
-8.16824
-7.93678
-7.6545
-7.31735
-6.91868
-6.44778
-5.88791
-5.21397
-4.38453
-3.27043
-1.02142
-8.22143
-8.1794
-8.09517
-7.96842
-7.79854
-7.58452
-7.32473
-7.01647
-6.65545
-6.23498
-5.74536
-5.17461
-4.51839
-3.85392
-3.89039
-7.84892
-7.81004
-7.73225
-7.61545
-7.45949
-7.26406
-7.02861
-6.75224
-6.4335
-6.07019
-5.65914
-5.19462
-4.65797
-3.95063
-2.46505
-7.50341
-7.46772
-7.39641
-7.28969
-7.14786
-6.97139
-6.76092
-6.51745
-6.24249
-5.93857
-5.61006
-5.26471
-4.9161
-4.58777
-4.3276
-7.1827
-7.15012
-7.08517
-6.98831
-6.8603
-6.70232
-6.51615
-6.30452
-6.0716
-5.82403
-5.57268
-5.33708
-5.16015
-5.17757
-6.00945
-6.88463
-6.85501
-6.7961
-6.70857
-6.59356
-6.45283
-6.28908
-6.10637
-5.9109
-5.71211
-5.52437
-5.36869
-5.26925
-5.20177
-4.66794
-6.60712
-6.58025
-6.52691
-6.44792
-6.34468
-6.21934
-6.07517
-5.91709
-5.7525
-5.59252
-5.45379
-5.36125
-5.35616
-5.5498
-6.55668
-6.34827
-6.32389
-6.27553
-6.20412
-6.11114
-5.99892
-5.87093
-5.73234
-5.5909
-5.45816
-5.35115
-5.29309
-5.30506
-5.33308
-4.72163
-6.10637
-6.08416
-6.04017
-5.97529
-5.89098
-5.78947
-5.67405
-5.54958
-5.42326
-5.30595
-5.21451
-5.1763
-5.24282
-5.56041
-6.8849
-5.87989
-5.85958
-5.81933
-5.75995
-5.68276
-5.58967
-5.48346
-5.36811
-5.24935
-5.13579
-5.0409
-4.98679
-5.00623
-5.08851
-4.56419
-5.66752
-5.64883
-5.61177
-5.557
-5.48558
-5.39898
-5.29923
-5.189
-5.07185
-4.95267
-4.83897
-4.7462
-4.726
-5.03785
-7.28305
-5.46814
-5.45085
-5.4165
-5.36562
-5.29894
-5.21743
-5.12227
-5.01469
-4.89575
-4.76575
-4.6225
-4.45522
-4.21517
-3.64458
-1.16272
-5.28077
-5.2647
-5.23273
-5.18521
-5.12259
-5.04538
-4.95395
-4.84827
-4.72735
-4.58804
-4.42273
-4.21478
-3.9339
-3.57857
-3.71718
-5.10457
-5.0896
-5.05977
-5.01529
-4.95639
-4.88319
-4.79551
-4.69245
-4.57171
-4.42837
-4.25258
-4.02499
-3.70432
-3.16954
-1.81073
-4.93877
-4.92481
-4.89698
-4.85539
-4.80011
-4.73107
-4.64776
-4.54891
-4.43178
-4.29124
-4.11841
-3.89983
-3.62344
-3.33274
-3.51778
-4.78265
-4.76967
-4.74375
-4.70498
-4.6534
-4.58885
-4.51082
-4.41805
-4.3081
-4.17654
-4.01601
-3.81482
-3.55249
-3.16556
-2.25947
-4.63556
-4.62351
-4.59945
-4.56349
-4.51569
-4.456
-4.3841
-4.29914
-4.19943
-4.08196
-3.94185
-3.77227
-3.56806
-3.35891
-3.46574
-4.49685
-4.48568
-4.46342
-4.43021
-4.38624
-4.33164
-4.26645
-4.19047
-4.1031
-4.00309
-3.88817
-3.75378
-3.58708
-3.33282
-2.68332
-4.36589
-4.35555
-4.33499
-4.30442
-4.26417
-4.21463
-4.1563
-4.08972
-4.01554
-3.93458
-3.84801
-3.75771
-3.6669
-3.5812
-3.51269
-4.24212
-4.23253
-4.21351
-4.18535
-4.14854
-4.10374
-4.05188
-3.99425
-3.9327
-3.86997
-3.81045
-3.76202
-3.74316
-3.81764
-4.29446
-4.125
-4.11606
-4.09837
-4.0723
-4.03846
-3.99774
-3.95146
-3.9015
-3.85067
-3.80314
-3.76517
-3.74578
-3.75462
-3.77467
-3.53954
-4.01409
-4.00568
-3.98906
-3.96465
-3.93316
-3.89562
-3.85359
-3.80937
-3.76635
-3.72967
-3.707
-3.70995
-3.75828
-3.9089
-4.48911
-3.90902
-3.901
-3.88515
-3.86193
-3.83205
-3.79662
-3.75726
-3.71639
-3.67764
-3.64648
-3.63105
-3.64259
-3.69092
-3.7448
-3.44473
-3.80953
-3.80175
-3.78637
-3.76383
-3.73481
-3.70035
-3.66197
-3.62194
-3.58366
-3.55236
-3.53637
-3.5497
-3.61969
-3.82651
-4.58881
-3.71545
-3.70776
-3.69257
-3.67023
-3.64135
-3.6068
-3.56783
-3.52628
-3.48483
-3.4476
-3.42133
-3.41747
-3.45344
-3.52245
-3.24915
-3.62671
-3.619
-3.60373
-3.58119
-3.55183
-3.51631
-3.47549
-3.43055
-3.38306
-3.33525
-3.29073
-3.25758
-3.26424
-3.45611
-4.73278
-3.54332
-3.53549
-3.51994
-3.49687
-3.46659
-3.42949
-3.38602
-3.3366
-3.28152
-3.2206
-3.15224
-3.07005
-2.94644
-2.63642
-1.24991
-3.46537
-3.45735
-3.44137
-3.41756
-3.38609
-3.34711
-3.30068
-3.24658
-3.18405
-3.11112
-3.02334
-2.91128
-2.7581
-2.56429
-2.65721
-3.39299
-3.38473
-3.36823
-3.34358
-3.31081
-3.26991
-3.22065
-3.16241
-3.0938
-3.01195
-2.91132
-2.78107
-2.59798
-2.29303
-1.5159
-3.32636
-3.31782
-3.30077
-3.27523
-3.24118
-3.19851
-3.14687
-3.08546
-3.01273
-2.92582
-2.81987
-2.68756
-2.52247
-2.34968
-2.44802
-3.26566
-3.25683
-3.2392
-3.21278
-3.17754
-3.13335
-3.07987
-3.01637
-2.94151
-2.85292
-2.74673
-2.61682
-2.45231
-2.21803
-1.69127
-3.21108
-3.20196
-3.18375
-3.15646
-3.12011
-3.07464
-3.01982
-2.95518
-2.87983
-2.79224
-2.69006
-2.57011
-2.4306
-2.2895
-2.32586
-3.16284
-3.15341
-3.13459
-3.10644
-3.06903
-3.02242
-2.96659
-2.90144
-2.82665
-2.74171
-2.64572
-2.53698
-2.41001
-2.23771
-1.85874
-3.12115
-3.11139
-3.09191
-3.06284
-3.02433
-2.97659
-2.91985
-2.85438
-2.78053
-2.69884
-2.61024
-2.5165
-2.42089
-2.32945
-2.25537
-3.08625
-3.0761
-3.0559
-3.0258
-2.98605
-2.93702
-2.87917
-2.81314
-2.73985
-2.66077
-2.57834
-2.49733
-2.42889
-2.40913
-2.60053
-3.05839
-3.04781
-3.02676
-2.99545
-2.95423
-2.90358
-2.84417
-2.77693
-2.70321
-2.62502
-2.54547
-2.46942
-2.40307
-2.34217
-2.16789
-3.03788
-3.02679
-3.00474
-2.97199
-2.92895
-2.87622
-2.8146
-2.74523
-2.66968
-2.59021
-2.51017
-2.43477
-2.37348
-2.35393
-2.52492
-3.02507
-3.01338
-2.99015
-2.95568
-2.91041
-2.85503
-2.79042
-2.71782
-2.63886
-2.5558
-2.47165
-2.39033
-2.31491
-2.23336
-2.01074
-3.02038
-3.008
-2.98338
-2.94685
-2.8989
-2.84024
-2.7718
-2.69482
-2.61091
-2.52213
-2.43118
-2.34177
-2.2606
-2.21074
-2.3319
-3.02429
-3.0111
-2.98488
-2.94596
-2.89484
-2.83224
-2.75911
-2.67664
-2.58633
-2.48998
-2.38964
-2.28751
-2.18456
-2.06935
-1.82627
-3.03736
-3.02326
-2.9952
-2.95353
-2.89875
-2.83156
-2.7529
-2.66391
-2.56596
-2.46059
-2.34935
-2.23381
-2.11702
-2.01678
-2.06272
-3.06023
-3.0451
-3.01499
-2.97022
-2.91128
-2.83886
-2.75386
-2.65739
-2.55075
-2.43528
-2.31205
-2.18097
-2.03799
-1.86268
-1.54631
-3.09361
-3.07734
-3.04495
-2.99674
-2.93316
-2.85489
-2.76279
-2.65794
-2.54167
-2.41535
-2.2802
-2.1364
-1.98142
-1.80654
-1.59494
-3.13829
-3.12078
-3.08591
-3.03392
-2.96526
-2.88053
-2.78056
-2.66644
-2.53955
-2.40157
-2.25435
-2.09959
-1.93868
-1.77591
-1.6506
-3.19512
-3.17629
-3.13874
-3.08269
-3.00852
-2.91676
-2.80816
-2.6838
-2.54514
-2.39422
-2.23373
-2.06707
-1.89722
-1.71924
-1.46524
-3.26504
-3.2448
-3.20442
-3.14405
-3.06399
-2.96467
-2.84672
-2.71109
-2.55925
-2.3935
-2.21741
-2.03674
-1.86142
-1.71537
-1.70709
-3.349
-3.32731
-3.28397
-3.21909
-3.13285
-3.02552
-2.89754
-2.74963
-2.58304
-2.39995
-2.20427
-2.0027
-1.80529
-1.61583
-1.33957
-3.44803
-3.42484
-3.37847
-3.30896
-3.21635
-3.10072
-2.96221
-2.80115
-2.61827
-2.41515
-2.19522
-1.96578
-1.74364
-1.57656
-1.6505
-3.56317
-3.53847
-3.48906
-3.41488
-3.31584
-3.1918
-3.04254
-2.86784
-2.66755
-2.44203
-2.19278
-1.92379
-1.64375
-1.36993
-1.14245
-3.69547
-3.66927
-3.61684
-3.53805
-3.43269
-3.30039
-3.14055
-2.95228
-2.73436
-2.48538
-2.20404
-1.88948
-1.53955
-1.13109
-0.476432
-3.84595
-3.8183
-3.76292
-3.67967
-3.56826
-3.42812
-3.25831
-3.05731
-2.82274
-2.55122
-2.23836
-1.87973
-1.476
-1.06323
-0.924761
-4.01564
-3.98657
-3.92836
-3.84087
-3.72377
-3.57644
-3.39773
-3.18564
-2.93678
-2.64577
-2.30447
-1.90129
-1.41874
-0.804865
0.29206
-4.20553
-4.17507
-4.11413
-4.02262
-3.90027
-3.74655
-3.56035
-3.3395
-3.0801
-2.77525
-2.41354
-1.97798
-1.45266
-0.881957
-0.788417
-4.41656
-4.38475
-4.32115
-4.22577
-4.09856
-3.93923
-3.74701
-3.52014
-3.25497
-2.94422
-2.5739
-2.11701
-1.51811
-0.627683
1.25513
-4.64968
-4.6165
-4.55023
-4.45104
-4.31916
-4.15475
-3.95774
-3.72739
-3.46148
-3.15457
-2.79438
-2.35465
-1.786
-1.06257
-0.861319
-4.90585
-4.87123
-4.80217
-4.69902
-4.56234
-4.39291
-4.19161
-3.95934
-3.69648
-3.4019
-3.07011
-2.68182
-2.16139
-1.13482
2.62951
-5.18605
-5.14988
-5.07777
-4.97028
-4.82828
-4.65319
-4.447
-4.21252
-3.95351
-3.67509
-3.38506
-3.10075
-2.88827
-3.10828
-6.05546
-5.49139
-5.45348
-5.37797
-5.26549
-5.11721
-4.93506
-4.72204
-4.48273
-4.22402
-3.95633
-3.69604
-3.46981
-3.31479
-3.18788
-1.99715
-5.82304
-5.78321
-5.70382
-5.58556
-5.42967
-5.23837
-5.01533
-4.76641
-4.50076
-4.23245
-3.98336
-3.78942
-3.7218
-4.00625
-5.89701
-6.18235
-6.1404
-6.05669
-5.93175
-5.76672
-5.56373
-5.3266
-5.06172
-4.77935
-4.49521
-4.23238
-4.0213
-3.88433
-3.70911
-2.32482
-6.57081
-6.52658
-6.43817
-6.3058
-6.13012
-5.91279
-5.65713
-5.36918
-5.05916
-4.74318
-4.44545
-4.20173
-4.07342
-4.2516
-5.88291
-6.98997
-6.94345
-6.8502
-6.7099
-6.52246
-6.28848
-6.01008
-5.69198
-5.34311
-4.97848
-4.62102
-4.302
-4.04967
-3.78497
-2.48225
-7.44144
-7.39278
-7.2949
-7.14675
-6.94711
-6.69503
-6.39059
-6.03614
-5.63802
-5.20879
-4.7699
-4.35595
-4.03452
-4.03918
-5.62496
-7.92669
-7.8763
-7.7745
-7.61936
-7.40819
-7.13793
-6.80582
-6.41063
-5.95453
-5.44582
-4.90146
-4.34566
-3.79292
-3.19539
-2.42086
-8.44694
-8.39551
-8.29114
-8.13088
-7.9103
-7.62378
-7.26487
-6.82741
-6.30757
-5.70761
-5.04097
-4.33325
-3.58241
-2.47451
1.3211
-9.00291
-8.95147
-8.84661
-8.68428
-8.45822
-8.15989
-7.77847
-7.3014
-6.71627
-6.01569
-5.20901
-4.35078
-3.61987
-3.62011
-6.95751
-9.5946
-9.54454
-9.442
-9.28192
-9.05633
-8.75372
-8.35848
-7.85042
-7.20514
-6.39745
-5.41284
-4.2799
-3.14959
-2.44822
-2.89733
-10.2211
-10.1741
-10.0773
-9.92507
-9.70791
-9.41186
-9.01685
-8.49473
-7.80681
-6.90206
-5.71968
-4.20719
-2.38144
-0.477378
0.850959
-10.8801
-10.8381
-10.7512
-10.6133
-10.4143
-10.1387
-9.7635
-9.25419
-8.55905
-7.59947
-6.25577
-4.35203
-1.66766
1.89327
5.52171
-11.5684
-11.5334
-11.4605
-11.344
-11.1738
-10.9348
-10.6033
-10.1427
-9.49495
-8.56362
-7.18078
-5.03898
-1.5626
4.21703
12.7122
-12.281
-12.2549
-12.2001
-12.1118
-11.9813
-11.7951
-11.5326
-11.1612
-10.6278
-9.84132
-8.63284
-6.65272
-3.05701
4.65498
25.8022
-146.467
-88.0205
-61.5441
-48.8942
-42.1199
-38.0751
-35.4482
-33.638
-32.341
-31.391
-30.6909
-30.1813
-29.8249
-29.5985
-29.4885
-182.166
-82.3652
-54.675
-43.9999
-38.6459
-35.4665
-33.3752
-31.9106
-30.8454
-30.0553
-29.4671
-29.0357
-28.7322
-28.5387
-28.4444
46.8879
-26.6336
-35.9897
-35.4106
-33.6617
-32.1022
-30.8669
-29.9059
-29.1589
-28.5795
-28.1346
-27.8012
-27.5632
-27.41
-27.3349
-7.06004
-15.4613
-24.2039
-27.6335
-28.546
-28.5128
-28.1681
-27.7526
-27.3559
-27.0101
-26.7246
-26.5004
-26.3353
-26.227
-26.1733
25.8845
-4.05199
-16.1076
-21.6044
-24.087
-25.1397
-25.5186
-25.5861
-25.5177
-25.3989
-25.2722
-25.1584
-25.068
-25.0059
-24.9745
-1.43991
-5.05995
-12.5661
-17.6684
-20.6211
-22.2347
-23.0851
-23.5142
-23.7144
-23.7933
-23.8107
-23.8003
-23.7811
-23.7637
-23.7538
11.4364
-3.3692
-10.6939
-15.2253
-18.085
-19.8595
-20.9444
-21.601
-21.9955
-22.2304
-22.3685
-22.4482
-22.4929
-22.5162
-22.5262
-3.09241
-6.8735
-10.7617
-13.943
-16.3025
-17.9633
-19.1009
-19.87
-20.3874
-20.7346
-20.9669
-21.1206
-21.2194
-21.2781
-21.3055
-14.9955
-10.3034
-11.3202
-13.2315
-15.0051
-16.4306
-17.5134
-18.3139
-18.8973
-19.3187
-19.6198
-19.8311