/*--------------------------------*- C++ -*----------------------------------*\
| =========                 |                                                 |
| \\      /  F ield         | OpenFOAM: The Open Source CFD Toolbox           |
|  \\    /   O peration     | Version:  5.x                                   |
|   \\  /    A nd           | Web:      www.OpenFOAM.org                      |
|    \\/     M anipulation  |                                                 |
\*---------------------------------------------------------------------------*/
FoamFile
{
    version     2.0;
    format      ascii;
    class       volScalarField;
    location    "19.5999";
    object      T;
}
// * * * * * * * * * * * * * * * * * * * * * * * * * * * * * * * * * * * * * //

dimensions      [0 0 0 1 0 0 0];

internalField   nonuniform List<scalar> 
6300
(
322.84
322.521
322.2
321.877
321.552
321.224
320.892
320.556
320.216
319.87
319.518
319.161
318.797
318.428
318.053
322.841
322.522
322.202
321.88
321.555
321.228
320.897
320.561
320.221
319.875
319.524
319.167
318.803
318.434
318.059
322.841
322.524
322.205
321.885
321.561
321.235
320.905
320.571
320.231
319.886
319.535
319.179
318.815
318.446
318.07
322.842
322.527
322.21
321.892
321.571
321.247
320.918
320.585
320.247
319.903
319.553
319.197
318.834
318.464
318.088
322.844
322.531
322.218
321.902
321.584
321.262
320.936
320.605
320.269
319.926
319.578
319.222
318.859
318.488
318.111
322.846
322.537
322.227
321.915
321.6
321.281
320.958
320.63
320.297
319.956
319.609
319.254
318.891
318.52
318.141
322.848
322.543
322.238
321.93
321.619
321.305
320.986
320.662
320.331
319.993
319.647
319.293
318.931
318.559
318.179
322.851
322.551
322.251
321.948
321.643
321.333
321.019
320.699
320.372
320.038
319.695
319.342
318.98
318.607
318.224
322.854
322.561
322.266
321.97
321.67
321.367
321.058
320.743
320.421
320.091
319.751
319.401
319.039
318.665
318.279
322.857
322.571
322.284
321.994
321.701
321.405
321.103
320.795
320.479
320.154
319.818
319.471
319.11
318.735
318.344
322.861
322.583
322.303
322.021
321.737
321.448
321.154
320.854
320.545
320.227
319.898
319.555
319.196
318.819
318.424
322.865
322.596
322.325
322.052
321.776
321.497
321.212
320.921
320.622
320.312
319.991
319.654
319.299
318.923
318.523
322.87
322.61
322.348
322.085
321.82
321.55
321.276
320.996
320.708
320.41
320.099
319.771
319.423
319.05
318.648
322.875
322.625
322.374
322.121
321.866
321.608
321.346
321.079
320.804
320.52
320.223
319.909
319.572
319.207
318.809
322.88
322.641
322.401
322.16
321.916
321.671
321.422
321.169
320.91
320.643
320.365
320.07
319.75
319.396
319.006
317.704
317.383
317.059
316.731
316.4
316.066
315.729
315.39
315.049
314.705
314.36
314.013
313.665
313.316
312.966
312.615
312.264
311.913
311.561
311.21
310.86
310.509
310.159
309.81
309.461
309.112
308.764
308.416
308.07
307.723
307.378
307.033
306.69
306.347
306.006
305.666
305.326
304.988
304.651
304.315
303.979
303.645
303.311
302.979
302.647
302.317
301.988
301.659
301.332
301.006
300.681
300.358
300.035
299.714
299.393
299.074
298.755
298.437
298.12
297.804
297.489
297.175
296.861
296.549
296.238
295.928
295.619
295.31
295.003
294.696
294.39
294.085
293.78
293.476
293.172
292.87
292.567
292.265
291.964
291.663
291.363
291.063
290.763
290.463
290.162
289.861
289.559
289.256
288.953
288.648
317.71
317.388
317.063
316.735
316.404
316.07
315.733
315.393
315.051
314.708
314.362
314.015
313.667
313.317
312.967
312.616
312.264
311.913
311.561
311.21
310.859
310.509
310.159
309.809
309.46
309.111
308.763
308.416
308.069
307.722
307.377
307.032
306.688
306.346
306.004
305.664
305.325
304.987
304.649
304.313
303.978
303.644
303.31
302.978
302.646
302.315
301.986
301.658
301.331
301.005
300.68
300.356
300.034
299.712
299.392
299.072
298.754
298.436
298.119
297.803
297.487
297.173
296.86
296.548
296.237
295.926
295.617
295.309
295.002
294.695
294.389
294.084
293.779
293.475
293.172
292.869
292.566
292.265
291.964
291.663
291.363
291.063
290.763
290.463
290.163
289.862
289.56
289.258
288.954
288.65
317.721
317.399
317.073
316.744
316.412
316.077
315.74
315.4
315.057
314.713
314.367
314.019
313.67
313.32
312.968
312.617
312.265
311.913
311.561
311.209
310.858
310.507
310.157
309.808
309.459
309.11
308.762
308.414
308.067
307.72
307.374
307.029
306.685
306.343
306.001
305.661
305.322
304.984
304.647
304.311
303.975
303.641
303.307
302.975
302.643
302.312
301.983
301.654
301.327
301.001
300.677
300.353
300.031
299.71
299.389
299.07
298.751
298.433
298.116
297.8
297.485
297.17
296.857
296.545
296.234
295.924
295.615
295.307
295
294.693
294.387
294.082
293.777
293.473
293.17
292.867
292.565
292.263
291.962
291.662
291.362
291.063
290.763
290.464
290.164
289.864
289.563
289.26
288.957
288.653
317.737
317.414
317.088
316.758
316.425
316.089
315.75
315.409
315.066
314.721
314.374
314.025
313.675
313.323
312.971
312.618
312.265
311.912
311.56
311.208
310.856
310.505
310.155
309.806
309.457
309.108
308.759
308.411
308.064
307.717
307.37
307.025
306.681
306.338
305.996
305.656
305.317
304.979
304.642
304.307
303.971
303.637
303.304
302.971
302.639
302.308
301.978
301.649
301.322
300.996
300.671
300.348
300.026
299.705
299.385
299.066
298.747
298.43
298.112
297.796
297.48
297.166
296.852
296.54
296.229
295.919
295.611
295.303
294.996
294.69
294.385
294.08
293.775
293.471
293.167
292.864
292.562
292.261
291.96
291.66
291.361
291.062
290.764
290.465
290.167
289.867
289.567
289.265
288.962
288.657
317.759
317.435
317.107
316.776
316.441
316.104
315.764
315.422
315.078
314.731
314.383
314.033
313.681
313.328
312.974
312.62
312.265
311.911
311.558
311.205
310.853
310.503
310.153
309.803
309.454
309.105
308.756
308.408
308.06
307.712
307.365
307.019
306.674
306.331
305.989
305.649
305.311
304.973
304.637
304.301
303.967
303.632
303.298
302.965
302.633
302.301
301.971
301.642
301.315
300.989
300.665
300.342
300.02
299.7
299.38
299.061
298.743
298.425
298.108
297.791
297.475
297.16
296.846
296.534
296.223
295.914
295.605
295.298
294.992
294.686
294.381
294.076
293.772
293.468
293.164
292.861
292.558
292.257
291.956
291.657
291.359
291.061
290.764
290.467
290.17
289.872
289.572
289.271
288.968
288.663
317.788
317.462
317.132
316.798
316.462
316.123
315.782
315.438
315.093
314.745
314.395
314.043
313.689
313.334
312.978
312.622
312.265
311.909
311.555
311.201
310.849
310.499
310.149
309.8
309.451
309.102
308.753
308.404
308.055
307.706
307.358
307.011
306.666
306.322
305.98
305.641
305.302
304.966
304.63
304.295
303.961
303.627
303.293
302.959
302.626
302.293
301.962
301.633
301.305
300.979
300.655
300.333
300.013
299.693
299.374
299.056
298.738
298.42
298.102
297.784
297.468
297.152
296.838
296.525
296.215
295.906
295.598
295.292
294.987
294.682
294.377
294.073
293.768
293.464
293.159
292.856
292.553
292.251
291.951
291.653
291.356
291.06
290.765
290.47
290.175
289.878
289.581
289.28
288.978
288.673
317.823
317.494
317.161
316.825
316.486
316.145
315.802
315.457
315.111
314.761
314.41
314.056
313.7
313.342
312.983
312.623
312.264
311.906
311.55
311.196
310.844
310.493
310.144
309.796
309.448
309.1
308.751
308.401
308.05
307.7
307.35
307.001
306.655
306.31
305.969
305.629
305.292
304.957
304.622
304.289
303.955
303.621
303.286
302.952
302.617
302.283
301.951
301.621
301.293
300.967
300.644
300.323
300.004
299.686
299.368
299.05
298.732
298.414
298.095
297.777
297.459
297.142
296.827
296.515
296.204
295.896
295.59
295.285
294.981
294.677
294.373
294.069
293.764
293.459
293.154
292.849
292.546
292.244
291.944
291.647
291.351
291.057
290.765
290.473
290.181
289.887
289.592
289.293
288.991
288.686
317.865
317.532
317.196
316.856
316.514
316.17
315.825
315.479
315.132
314.781
314.428
314.072
313.713
313.351
312.988
312.624
312.261
311.9
311.542
311.187
310.835
310.486
310.139
309.792
309.446
309.098
308.749
308.398
308.045
307.692
307.34
306.989
306.64
306.295
305.953
305.615
305.279
304.946
304.614
304.282
303.949
303.616
303.28
302.944
302.608
302.272
301.937
301.605
301.276
300.951
300.629
300.31
299.993
299.677
299.361
299.045
298.727
298.409
298.089
297.768
297.448
297.13
296.814
296.5
296.19
295.883
295.579
295.276
294.974
294.673
294.37
294.066
293.761
293.455
293.148
292.842
292.537
292.234
291.934
291.637
291.344
291.053
290.764
290.477
290.189
289.899
289.607
289.311
289.01
288.704
317.915
317.577
317.235
316.89
316.543
316.197
315.851
315.504
315.156
314.805
314.451
314.093
313.73
313.363
312.994
312.624
312.255
311.89
311.529
311.174
310.823
310.476
310.132
309.789
309.445
309.099
308.749
308.397
308.042
307.685
307.328
306.972
306.621
306.274
305.933
305.596
305.264
304.934
304.605
304.276
303.946
303.612
303.276
302.937
302.597
302.257
301.92
301.585
301.255
300.931
300.611
300.295
299.981
299.669
299.356
299.041
298.724
298.405
298.083
297.759
297.436
297.114
296.796
296.482
296.172
295.867
295.565
295.266
294.968
294.669
294.369
294.066
293.76
293.451
293.142
292.832
292.524
292.219
291.919
291.623
291.333
291.046
290.762
290.481
290.199
289.915
289.628
289.336
289.036
288.729
317.974
317.629
317.278
316.925
316.573
316.223
315.876
315.53
315.184
314.835
314.48
314.12
313.752
313.378
313
312.621
312.245
311.874
311.51
311.154
310.805
310.463
310.124
309.786
309.447
309.103
308.755
308.4
308.04
307.677
307.312
306.951
306.595
306.246
305.905
305.572
305.244
304.92
304.597
304.273
303.946
303.613
303.275
302.933
302.587
302.24
301.897
301.559
301.227
300.903
300.586
300.275
299.967
299.661
299.353
299.041
298.725
298.404
298.079
297.75
297.42
297.094
296.772
296.456
296.147
295.845
295.549
295.255
294.962
294.668
294.371
294.069
293.762
293.45
293.135
292.82
292.507
292.198
291.897
291.602
291.315
291.034
290.758
290.484
290.211
289.937
289.657
289.37
289.073
288.765
318.045
317.688
317.325
316.96
316.6
316.246
315.9
315.558
315.216
314.871
314.519
314.156
313.783
313.4
313.009
312.616
312.226
311.846
311.478
311.123
310.779
310.444
310.114
309.786
309.454
309.116
308.769
308.411
308.044
307.67
307.294
306.922
306.558
306.207
305.867
305.539
305.219
304.904
304.591
304.275
303.952
303.622
303.281
302.932
302.577
302.22
301.867
301.522
301.188
300.866
300.554
300.25
299.952
299.654
299.354
299.048
298.734
298.411
298.079
297.741
297.402
297.066
296.738
296.42
296.114
295.817
295.527
295.243
294.959
294.672
294.38
294.079
293.77
293.453
293.129
292.804
292.482
292.168
291.864
291.571
291.289
291.016
290.749
290.487
290.227
289.964
289.697
289.419
289.127
288.817
318.132
317.759
317.372
316.988
316.616
316.259
315.917
315.584
315.254
314.918
314.571
314.209
313.829
313.432
313.021
312.604
312.195
311.802
311.429
311.075
310.739
310.417
310.103
309.791
309.472
309.142
308.797
308.436
308.057
307.666
307.269
306.88
306.505
306.15
305.813
305.493
305.186
304.887
304.589
304.285
303.972
303.644
303.3
302.941
302.57
302.193
301.824
301.469
301.133
300.813
300.51
300.219
299.935
299.652
299.364
299.066
298.755
298.429
298.088
297.735
297.378
297.027
296.69
296.369
296.065
295.777
295.499
295.229
294.959
294.684
294.4
294.103
293.791
293.464
293.126
292.783
292.447
292.123
291.816
291.525
291.25
290.987
290.735
290.488
290.244
290
289.751
289.49
289.207
288.895
318.247
317.847
317.416
317
316.609
316.252
315.92
315.607
315.3
314.981
314.646
314.286
313.901
313.483
313.041
312.58
312.141
311.729
311.352
311.002
310.681
310.378
310.09
309.804
309.505
309.19
308.849
308.485
308.089
307.67
307.233
306.816
306.425
306.067
305.735
305.429
305.141
304.868
304.595
304.311
304.011
303.688
303.342
302.967
302.57
302.156
301.761
301.391
301.052
300.738
300.448
300.176
299.916
299.658
299.388
299.104
298.798
298.47
298.113
297.737
297.344
296.969
296.617
296.295
295.996
295.72
295.461
295.214
294.967
294.71
294.439
294.146
293.833
293.492
293.13
292.753
292.393
292.054
291.744
291.457
291.192
290.945
290.712
290.486
290.26
290.042
289.824
289.592
289.329
289.016
318.411
317.983
317.437
316.976
316.555
316.209
315.893
315.624
315.362
315.066
314.758
314.399
314.02
313.569
313.089
312.525
312.048
311.604
311.235
310.889
310.595
310.317
310.076
309.836
309.561
309.274
308.936
308.58
308.154
307.7
307.167
306.716
306.296
305.946
305.618
305.34
305.076
304.847
304.619
304.358
304.085
303.765
303.427
303.024
302.594
302.09
301.664
301.267
300.936
300.626
300.363
300.113
299.896
299.68
299.433
299.174
298.871
298.551
298.169
297.761
297.283
296.878
296.501
296.187
295.892
295.641
295.404
295.197
294.991
294.756
294.509
294.22
293.914
293.549
293.158
292.698
292.308
291.944
291.64
291.354
291.111
290.88
290.68
290.483
290.266
290.083
289.916
289.74
289.522
289.219
318.673
318.292
317.335
316.898
316.389
316.125
315.797
315.632
315.472
315.169
314.944
314.54
314.243
313.698
313.259
312.343
311.907
311.373
311.085
310.699
310.486
310.205
310.06
309.915
309.638
309.429
309.052
308.773
308.26
307.845
306.982
306.571
306.067
305.795
305.43
305.228
304.963
304.825
304.688
304.424
304.226
303.869
303.604
303.118
302.727
301.912
301.524
301.048
300.791
300.447
300.256
300.005
299.875
299.745
299.496
299.308
298.97
298.72
298.26
297.889
297.116
296.747
296.296
296.052
295.724
295.543
295.304
295.18
295.056
294.819
294.641
294.319
294.08
293.641
293.285
292.542
292.186
291.748
291.511
291.19
291.011
290.771
290.645
290.51
290.221
290.1
290.024
289.948
289.836
289.608
288.313
287.945
287.577
287.207
286.838
286.469
286.1
285.732
285.365
284.999
284.634
284.27
283.906
283.543
283.181
288.314
287.946
287.577
287.208
286.838
286.468
286.099
285.731
285.364
284.998
284.633
284.269
283.906
283.543
283.181
288.316
287.948
287.578
287.208
286.838
286.468
286.098
285.729
285.362
284.996
284.631
284.267
283.904
283.542
283.181
288.32
287.951
287.58
287.209
286.837
286.466
286.096
285.726
285.359
284.992
284.628
284.264
283.902
283.541
283.18
288.326
287.955
287.583
287.21
286.836
286.463
286.092
285.722
285.354
284.988
284.623
284.261
283.899
283.539
283.18
288.334
287.961
287.587
287.211
286.835
286.46
286.087
285.715
285.347
284.981
284.617
284.255
283.895
283.537
283.179
288.345
287.97
287.592
287.212
286.832
286.454
286.079
285.707
285.338
284.972
284.609
284.248
283.89
283.533
283.178
288.361
287.981
287.598
287.213
286.828
286.447
286.069
285.695
285.325
284.96
284.598
284.239
283.883
283.529
283.176
288.383
287.997
287.605
287.213
286.822
286.435
286.054
285.678
285.308
284.944
284.584
284.228
283.875
283.524
283.175
288.413
288.017
287.614
287.211
286.811
286.418
286.033
285.656
285.286
284.923
284.566
284.213
283.864
283.517
283.172
288.456
288.044
287.624
287.205
286.794
286.394
286.005
285.626
285.258
284.897
284.543
284.195
283.851
283.509
283.17
288.518
288.078
287.631
287.192
286.767
286.358
285.966
285.587
285.221
284.864
284.515
284.172
283.834
283.499
283.166
288.609
288.121
287.632
287.164
286.722
286.306
285.912
285.536
285.174
284.823
284.481
284.146
283.815
283.488
283.162
288.743
288.164
287.612
287.109
286.653
286.233
285.841
285.471
285.116
284.774
284.44
284.114
283.792
283.474
283.158
288.938
288.179
287.542
287.008
286.546
286.131
285.749
285.389
285.046
284.715
284.393
284.077
283.766
283.458
283.153
322.885
322.656
322.427
322.196
321.964
321.731
321.496
321.257
321.015
320.766
320.51
320.24
319.946
319.604
319.164
322.89
322.671
322.451
322.23
322.009
321.787
321.564
321.34
321.113
320.884
320.651
320.411
320.156
319.862
319.424
322.895
322.685
322.475
322.265
322.055
321.844
321.634
321.424
321.214
321.005
320.797
320.593
320.395
320.222
320.161
322.9
322.7
322.5
322.3
322.1
321.902
321.704
321.508
321.314
321.125
320.941
320.769
320.617
320.505
320.462
322.905
322.714
322.524
322.334
322.145
321.958
321.773
321.59
321.412
321.24
321.078
320.931
320.812
320.74
320.759
322.909
322.728
322.548
322.368
322.189
322.013
321.839
321.669
321.505
321.348
321.203
321.075
320.973
320.911
320.896
322.914
322.742
322.571
322.401
322.232
322.066
321.903
321.745
321.592
321.448
321.316
321.2
321.108
321.048
321.041
322.918
322.755
322.593
322.432
322.273
322.117
321.964
321.816
321.674
321.541
321.418
321.309
321.219
321.15
321.106
322.923
322.768
322.615
322.463
322.313
322.165
322.022
321.883
321.75
321.625
321.51
321.406
321.315
321.236
321.158
322.927
322.781
322.635
322.492
322.35
322.211
322.076
321.946
321.821
321.704
321.594
321.494
321.402
321.32
321.247
322.931
322.792
322.655
322.519
322.385
322.254
322.127
322.004
321.887
321.776
321.672
321.575
321.484
321.397
321.305
322.934
322.803
322.673
322.545
322.418
322.295
322.175
322.059
321.949
321.844
321.745
321.652
321.563
321.478
321.399
322.938
322.814
322.691
322.569
322.45
322.333
322.22
322.111
322.006
321.907
321.814
321.725
321.64
321.555
321.46
322.941
322.824
322.707
322.592
322.479
322.369
322.262
322.159
322.061
321.967
321.879
321.796
321.717
321.639
321.564
322.944
322.833
322.723
322.614
322.507
322.402
322.301
322.204
322.111
322.023
321.941
321.864
321.792
321.722
321.64
322.947
322.842
322.737
322.634
322.532
322.434
322.338
322.246
322.158
322.076
321.999
321.928
321.865
321.813
321.788
322.95
322.85
322.75
322.652
322.556
322.463
322.372
322.285
322.202
322.124
322.052
321.987
321.931
321.886
321.856
322.952
322.857
322.763
322.67
322.579
322.49
322.404
322.321
322.243
322.169
322.101
322.04
321.989
321.949
321.93
322.955
322.864
322.774
322.686
322.599
322.515
322.433
322.354
322.279
322.209
322.145
322.087
322.038
321.998
321.968
322.957
322.871
322.785
322.701
322.618
322.538
322.46
322.385
322.313
322.246
322.184
322.128
322.08
322.041
322.015
322.959
322.877
322.795
322.715
322.636
322.559
322.484
322.412
322.344
322.279
322.219
322.164
322.116
322.074
322.039
322.961
322.882
322.805
322.728
322.652
322.578
322.507
322.438
322.372
322.309
322.25
322.196
322.147
322.103
322.068
322.962
322.887
322.813
322.74
322.667
322.597
322.528
322.461
322.398
322.337
322.279
322.224
322.173
322.126
322.082
322.964
322.892
322.821
322.751
322.681
322.613
322.547
322.483
322.421
322.362
322.305
322.25
322.198
322.147
322.094
322.966
322.897
322.828
322.761
322.694
322.629
322.565
322.503
322.443
322.385
322.329
322.274
322.221
322.169
322.117
322.967
322.901
322.835
322.77
322.706
322.643
322.582
322.522
322.464
322.407
322.352
322.298
322.245
322.191
322.134
322.968
322.905
322.842
322.779
322.718
322.657
322.598
322.54
322.483
322.428
322.374
322.321
322.268
322.215
322.161
322.969
322.908
322.848
322.788
322.728
322.67
322.612
322.556
322.501
322.448
322.395
322.344
322.292
322.239
322.181
322.971
322.912
322.853
322.795
322.738
322.682
322.626
322.572
322.519
322.467
322.416
322.366
322.317
322.266
322.215
322.972
322.915
322.859
322.803
322.748
322.693
322.64
322.587
322.536
322.486
322.437
322.389
322.342
322.294
322.241
322.973
322.918
322.864
322.81
322.756
322.704
322.652
322.601
322.552
322.503
322.456
322.411
322.367
322.327
322.294
322.974
322.921
322.868
322.816
322.765
322.714
322.664
322.615
322.567
322.52
322.475
322.432
322.391
322.353
322.319
322.974
322.923
322.873
322.822
322.772
322.723
322.675
322.627
322.581
322.536
322.492
322.451
322.412
322.377
322.348
322.975
322.926
322.877
322.828
322.78
322.732
322.685
322.639
322.594
322.55
322.508
322.468
322.43
322.396
322.364
322.976
322.928
322.881
322.833
322.787
322.74
322.695
322.65
322.606
322.564
322.523
322.484
322.447
322.413
322.383
322.977
322.93
322.884
322.838
322.793
322.748
322.704
322.66
322.618
322.577
322.536
322.498
322.461
322.426
322.394
322.978
322.933
322.888
322.843
322.799
322.756
322.713
322.67
322.629
322.588
322.549
322.51
322.474
322.439
322.407
322.978
322.935
322.891
322.848
322.805
322.763
322.721
322.679
322.639
322.599
322.56
322.522
322.485
322.449
322.413
322.979
322.936
322.894
322.852
322.81
322.769
322.728
322.688
322.648
322.609
322.571
322.533
322.496
322.458
322.419
322.979
322.938
322.897
322.856
322.816
322.775
322.736
322.696
322.658
322.619
322.582
322.544
322.507
322.469
322.431
322.98
322.94
322.9
322.86
322.821
322.781
322.743
322.704
322.666
322.629
322.592
322.555
322.518
322.48
322.439
322.98
322.941
322.902
322.864
322.825
322.787
322.749
322.712
322.675
322.638
322.602
322.566
322.529
322.492
322.454
322.981
322.943
322.905
322.867
322.83
322.792
322.756
322.719
322.683
322.648
322.612
322.577
322.541
322.504
322.465
322.981
322.944
322.907
322.87
322.834
322.798
322.762
322.726
322.691
322.657
322.622
322.588
322.554
322.519
322.483
322.982
322.946
322.909
322.874
322.838
322.802
322.768
322.733
322.699
322.665
322.632
322.6
322.567
322.534
322.498
322.982
322.947
322.912
322.876
322.842
322.807
322.773
322.739
322.706
322.674
322.642
322.611
322.58
322.552
322.528
322.983
322.948
322.914
322.879
322.845
322.811
322.778
322.745
322.713
322.682
322.651
322.621
322.593
322.566
322.542
322.983
322.949
322.915
322.882
322.848
322.816
322.783
322.751
322.72
322.689
322.66
322.631
322.604
322.579
322.558
322.983
322.95
322.917
322.884
322.851
322.819
322.788
322.756
322.726
322.696
322.667
322.64
322.614
322.589
322.567
322.984
322.951
322.919
322.886
322.854
322.823
322.792
322.761
322.731
322.702
322.674
322.647
322.622
322.598
322.578
322.984
322.952
322.92
322.888
322.857
322.826
322.795
322.765
322.736
322.708
322.68
322.654
322.629
322.605
322.583
322.984
322.953
322.921
322.89
322.859
322.828
322.799
322.769
322.74
322.713
322.686
322.66
322.635
322.612
322.59
322.984
322.953
322.922
322.891
322.861
322.831
322.801
322.772
322.744
322.717
322.69
322.665
322.64
322.616
322.593
322.985
322.954
322.923
322.893
322.863
322.833
322.804
322.775
322.748
322.72
322.694
322.669
322.644
322.62
322.596
322.985
322.954
322.924
322.894
322.864
322.835
322.806
322.778
322.75
322.724
322.698
322.673
322.648
322.625
322.601
322.985
322.954
322.924
322.894
322.865
322.836
322.807
322.779
322.752
322.726
322.701
322.676
322.652
322.628
322.605
322.985
322.955
322.925
322.895
322.865
322.837
322.808
322.781
322.754
322.728
322.703
322.679
322.655
322.632
322.61
322.985
322.955
322.925
322.895
322.866
322.837
322.809
322.782
322.755
322.729
322.705
322.681
322.658
322.636
322.614
322.985
322.955
322.925
322.895
322.866
322.837
322.809
322.782
322.756
322.73
322.706
322.682
322.66
322.639
322.619
322.985
322.954
322.924
322.895
322.865
322.837
322.809
322.782
322.755
322.73
322.706
322.683
322.661
322.641
322.621
322.985
322.954
322.924
322.894
322.864
322.836
322.808
322.781
322.754
322.729
322.706
322.683
322.662
322.642
322.625
322.985
322.954
322.923
322.893
322.863
322.834
322.806
322.779
322.753
322.728
322.704
322.682
322.662
322.643
322.626
322.984
322.953
322.922
322.891
322.861
322.832
322.804
322.776
322.75
322.726
322.702
322.68
322.66
322.642
322.625
322.984
322.952
322.92
322.889
322.859
322.829
322.8
322.773
322.747
322.722
322.699
322.677
322.658
322.639
322.623
322.984
322.951
322.919
322.887
322.856
322.826
322.797
322.769
322.742
322.718
322.694
322.673
322.654
322.636
322.619
322.983
322.95
322.917
322.884
322.852
322.821
322.792
322.764
322.737
322.712
322.689
322.668
322.649
322.632
322.616
322.983
322.948
322.914
322.881
322.848
322.816
322.786
322.757
322.73
322.705
322.682
322.661
322.642
322.626
322.611
322.982
322.947
322.911
322.877
322.843
322.81
322.779
322.75
322.722
322.696
322.673
322.652
322.635
322.62
322.607
322.981
322.945
322.908
322.872
322.837
322.804
322.771
322.741
322.712
322.686
322.663
322.642
322.625
322.611
322.602
322.981
322.942
322.904
322.867
322.831
322.796
322.762
322.731
322.701
322.674
322.65
322.629
322.612
322.6
322.591
322.98
322.94
322.9
322.861
322.823
322.787
322.752
322.719
322.688
322.66
322.635
322.614
322.597
322.586
322.581
322.979
322.937
322.895
322.855
322.815
322.777
322.74
322.705
322.673
322.644
322.618
322.596
322.578
322.567
322.561
322.978
322.934
322.89
322.847
322.806
322.765
322.727
322.69
322.656
322.625
322.598
322.574
322.555
322.544
322.543
322.977
322.93
322.884
322.839
322.795
322.753
322.712
322.674
322.638
322.605
322.575
322.549
322.528
322.513
322.506
322.975
322.926
322.878
322.83
322.784
322.739
322.696
322.655
322.617
322.581
322.549
322.52
322.495
322.477
322.473
322.974
322.922
322.871
322.821
322.772
322.724
322.679
322.635
322.594
322.556
322.521
322.488
322.459
322.431
322.397
322.972
322.918
322.863
322.81
322.758
322.708
322.659
322.613
322.57
322.529
322.491
322.455
322.421
322.389
322.357
322.971
322.913
322.855
322.799
322.743
322.69
322.639
322.59
322.543
322.5
322.459
322.42
322.383
322.346
322.303
322.969
322.907
322.846
322.786
322.728
322.671
322.616
322.564
322.515
322.469
322.425
322.384
322.345
322.306
322.271
322.967
322.901
322.837
322.773
322.71
322.65
322.592
322.537
322.485
322.436
322.39
322.347
322.306
322.265
322.221
322.965
322.895
322.826
322.758
322.692
322.628
322.566
322.508
322.452
322.401
322.353
322.308
322.267
322.227
322.191
322.963
322.888
322.815
322.743
322.672
322.604
322.538
322.476
322.417
322.363
322.313
322.268
322.226
322.187
322.145
322.96
322.881
322.803
322.726
322.65
322.578
322.508
322.441
322.379
322.322
322.271
322.224
322.184
322.148
322.12
322.958
322.873
322.79
322.708
322.627
322.549
322.475
322.404
322.338
322.278
322.224
322.177
322.137
322.105
322.088
322.955
322.865
322.776
322.688
322.602
322.519
322.439
322.363
322.293
322.229
322.173
322.125
322.086
322.052
322.013
322.952
322.856
322.761
322.667
322.575
322.486
322.4
322.319
322.243
322.175
322.115
322.067
322.03
322.004
321.981
322.949
322.847
322.745
322.645
322.547
322.451
322.359
322.271
322.189
322.115
322.051
322
321.967
321.953
321.957
322.946
322.837
322.729
322.622
322.517
322.414
322.314
322.218
322.129
322.047
321.977
321.922
321.89
321.889
321.927
322.942
322.827
322.711
322.597
322.485
322.374
322.266
322.162
322.063
321.972
321.892
321.828
321.791
321.797
321.875
322.939
322.816
322.693
322.572
322.451
322.332
322.215
322.102
321.992
321.889
321.795
321.716
321.662
321.655
321.755
289.143
288.082
287.383
286.851
286.405
286.009
285.643
285.3
284.971
284.653
284.343
284.039
283.739
283.442
283.147
288.77
287.742
287.122
286.648
286.242
285.875
285.533
285.208
284.895
284.591
284.294
284.001
283.713
283.427
283.142
287.293
287.118
286.761
286.398
286.053
285.725
285.411
285.107
284.812
284.524
284.241
283.961
283.685
283.41
283.137
286.713
286.619
286.404
286.135
285.851
285.564
285.281
285.001
284.726
284.454
284.185
283.919
283.655
283.393
283.131
286.164
286.206
286.083
285.884
285.651
285.402
285.148
284.892
284.636
284.381
284.128
283.876
283.625
283.375
283.125
285.915
285.908
285.814
285.657
285.461
285.244
285.016
284.782
284.546
284.308
284.07
283.832
283.594
283.356
283.119
285.658
285.669
285.59
285.456
285.286
285.094
284.889
284.675
284.457
284.235
284.012
283.788
283.563
283.338
283.113
285.542
285.494
285.405
285.279
285.126
284.953
284.767
284.571
284.369
284.163
283.955
283.744
283.532
283.32
283.107
285.45
285.348
285.244
285.122
284.98
284.822
284.651
284.471
284.285
284.093
283.898
283.701
283.502
283.302
283.101
285.292
285.203
285.097
284.978
284.845
284.699
284.542
284.376
284.204
284.026
283.844
283.659
283.472
283.284
283.095
285.19
285.069
284.959
284.843
284.719
284.584
284.439
284.286
284.126
283.961
283.792
283.619
283.444
283.267
283.089
285.022
284.928
284.824
284.716
284.599
284.475
284.342
284.201
284.053
283.9
283.742
283.58
283.416
283.25
283.084
284.913
284.794
284.694
284.593
284.486
284.372
284.25
284.12
283.983
283.841
283.694
283.544
283.39
283.235
283.078
284.728
284.648
284.563
284.474
284.379
284.275
284.163
284.044
283.918
283.786
283.649
283.509
283.365
283.22
283.073
284.595
284.505
284.435
284.36
284.276
284.184
284.082
283.972
283.856
283.734
283.607
283.476
283.342
283.206
283.069
284.337
284.347
284.31
284.252
284.181
284.098
284.006
283.906
283.798
283.685
283.567
283.445
283.32
283.193
283.064
284.221
284.223
284.199
284.154
284.093
284.019
283.936
283.844
283.745
283.64
283.53
283.416
283.299
283.18
283.06
284.095
284.117
284.103
284.066
284.013
283.948
283.872
283.787
283.696
283.598
283.496
283.389
283.28
283.169
283.056
284.032
284.036
284.022
283.99
283.943
283.883
283.814
283.736
283.65
283.56
283.464
283.365
283.263
283.158
283.053
283.958
283.968
283.955
283.925
283.881
283.826
283.761
283.689
283.609
283.524
283.435
283.342
283.246
283.149
283.05
283.921
283.916
283.899
283.869
283.827
283.775
283.714
283.646
283.572
283.492
283.409
283.321
283.231
283.14
283.047
283.878
283.872
283.852
283.821
283.78
283.73
283.672
283.608
283.538
283.463
283.385
283.303
283.218
283.131
283.044
283.857
283.839
283.813
283.78
283.738
283.69
283.635
283.574
283.508
283.437
283.363
283.285
283.206
283.124
283.041
283.84
283.81
283.779
283.744
283.702
283.655
283.602
283.544
283.481
283.414
283.343
283.27
283.194
283.117
283.039
283.812
283.782
283.749
283.712
283.67
283.624
283.573
283.517
283.456
283.393
283.326
283.256
283.184
283.111
283.037
283.793
283.757
283.722
283.683
283.642
283.596
283.546
283.492
283.435
283.374
283.31
283.243
283.175
283.106
283.035
283.764
283.731
283.696
283.657
283.616
283.571
283.523
283.471
283.415
283.357
283.296
283.232
283.167
283.101
283.034
283.745
283.708
283.671
283.633
283.593
283.549
283.502
283.451
283.398
283.342
283.283
283.222
283.16
283.096
283.032
283.715
283.683
283.648
283.611
283.572
283.529
283.483
283.434
283.383
283.328
283.272
283.213
283.153
283.093
283.031
283.695
283.66
283.627
283.591
283.553
283.511
283.467
283.419
283.369
283.316
283.262
283.206
283.148
283.089
283.03
283.657
283.636
283.607
283.573
283.536
283.495
283.452
283.406
283.357
283.306
283.253
283.199
283.143
283.086
283.029
283.641
283.618
283.59
283.558
283.521
283.482
283.439
283.394
283.347
283.297
283.246
283.193
283.138
283.083
283.028
283.626
283.604
283.577
283.545
283.509
283.47
283.428
283.384
283.338
283.289
283.239
283.187
283.135
283.081
283.027
283.619
283.594
283.566
283.534
283.499
283.46
283.419
283.376
283.33
283.283
283.234
283.183
283.132
283.079
283.026
283.612
283.587
283.558
283.526
283.491
283.452
283.412
283.369
283.324
283.277
283.229
283.179
283.129
283.078
283.026
283.61
283.582
283.552
283.52
283.484
283.446
283.406
283.363
283.319
283.273
283.225
283.176
283.127
283.076
283.025
283.608
283.579
283.549
283.516