/*--------------------------------*- C++ -*----------------------------------*\
| =========                 |                                                 |
| \\      /  F ield         | OpenFOAM: The Open Source CFD Toolbox           |
|  \\    /   O peration     | Version:  5.x                                   |
|   \\  /    A nd           | Web:      www.OpenFOAM.org                      |
|    \\/     M anipulation  |                                                 |
\*---------------------------------------------------------------------------*/
FoamFile
{
    version     2.0;
    format      ascii;
    class       volScalarField;
    location    "8.1";
    object      T;
}
// * * * * * * * * * * * * * * * * * * * * * * * * * * * * * * * * * * * * * //

dimensions      [0 0 0 1 0 0 0];

internalField   nonuniform List<scalar> 
6300
(
322.841
322.523
322.203
321.882
321.558
321.231
320.901
320.566
320.227
319.882
319.532
319.176
318.814
318.446
318.072
322.841
322.524
322.205
321.884
321.561
321.235
320.905
320.571
320.232
319.888
319.538
319.182
318.82
318.451
318.077
322.842
322.526
322.208
321.889
321.568
321.243
320.914
320.581
320.242
319.899
319.549
319.194
318.832
318.463
318.089
322.843
322.529
322.214
321.897
321.577
321.254
320.927
320.595
320.258
319.916
319.567
319.212
318.85
318.481
318.106
322.845
322.533
322.221
321.907
321.59
321.269
320.945
320.615
320.28
319.939
319.591
319.237
318.875
318.506
318.13
322.846
322.539
322.23
321.919
321.606
321.289
320.967
320.641
320.308
319.969
319.623
319.269
318.907
318.537
318.16
322.849
322.546
322.241
321.935
321.626
321.313
320.995
320.672
320.342
320.006
319.661
319.309
318.947
318.577
318.197
322.851
322.554
322.254
321.953
321.649
321.341
321.028
320.709
320.384
320.051
319.709
319.357
318.996
318.625
318.243
322.854
322.563
322.27
321.975
321.676
321.374
321.067
320.754
320.433
320.104
319.765
319.416
319.055
318.683
318.298
322.858
322.573
322.287
321.999
321.708
321.413
321.112
320.805
320.491
320.167
319.833
319.487
319.127
318.753
318.364
322.862
322.585
322.307
322.027
321.743
321.456
321.164
320.865
320.557
320.241
319.912
319.57
319.213
318.837
318.443
322.866
322.598
322.329
322.057
321.783
321.505
321.222
320.932
320.634
320.326
320.005
319.67
319.316
318.941
318.542
322.871
322.612
322.352
322.091
321.826
321.559
321.286
321.007
320.72
320.424
320.114
319.787
319.44
319.068
318.667
322.876
322.627
322.378
322.127
321.874
321.617
321.357
321.09
320.817
320.534
320.239
319.926
319.59
319.225
318.828
322.881
322.643
322.405
322.165
321.924
321.68
321.433
321.181
320.923
320.658
320.381
320.087
319.768
319.414
319.023
317.724
317.404
317.08
316.753
316.423
316.09
315.754
315.416
315.076
314.733
314.389
314.043
313.696
313.347
312.998
312.648
312.298
311.947
311.597
311.247
310.896
310.547
310.197
309.848
309.5
309.152
308.804
308.457
308.11
307.764
307.419
307.075
306.731
306.389
306.047
305.707
305.367
305.029
304.691
304.355
304.019
303.684
303.35
303.017
302.685
302.354
302.024
301.695
301.367
301.04
300.714
300.39
300.066
299.744
299.422
299.102
298.782
298.463
298.145
297.828
297.512
297.196
296.882
296.569
296.257
295.946
295.635
295.326
295.018
294.71
294.403
294.097
293.792
293.487
293.182
292.879
292.576
292.273
291.972
291.67
291.369
291.069
290.768
290.467
290.166
289.865
289.562
289.259
288.956
288.651
317.729
317.409
317.085
316.758
316.427
316.094
315.758
315.419
315.079
314.736
314.391
314.045
313.697
313.349
312.999
312.649
312.298
311.947
311.597
311.246
310.896
310.546
310.197
309.848
309.499
309.151
308.803
308.456
308.109
307.763
307.418
307.073
306.73
306.387
306.046
305.705
305.366
305.028
304.69
304.354
304.018
303.683
303.349
303.016
302.684
302.352
302.022
301.693
301.365
301.038
300.713
300.388
300.065
299.742
299.421
299.1
298.781
298.462
298.144
297.826
297.51
297.195
296.881
296.567
296.255
295.944
295.634
295.325
295.017
294.709
294.402
294.096
293.791
293.486
293.181
292.878
292.575
292.273
291.971
291.67
291.369
291.068
290.768
290.468
290.167
289.866
289.564
289.261
288.957
288.652
317.74
317.419
317.095
316.767
316.436
316.102
315.765
315.426
315.085
314.741
314.396
314.049
313.701
313.351
313.001
312.65
312.299
311.947
311.596
311.245
310.895
310.545
310.195
309.846
309.498
309.15
308.802
308.454
308.107
307.761
307.415
307.071
306.727
306.384
306.043
305.702
305.363
305.025
304.687
304.351
304.015
303.681
303.347
303.013
302.681
302.349
302.019
301.69
301.362
301.035
300.71
300.385
300.062
299.74
299.418
299.098
298.778
298.459
298.141
297.824
297.507
297.192
296.878
296.564
296.252
295.941
295.631
295.322
295.014
294.707
294.4
294.094
293.789
293.484
293.18
292.876
292.573
292.271
291.969
291.668
291.368
291.068
290.768
290.468
290.168
289.868
289.566
289.263
288.96
288.655
317.757
317.435
317.109
316.78
316.448
316.113
315.776
315.436
315.093
314.749
314.403
314.055
313.705
313.355
313.003
312.651
312.299
311.947
311.595
311.244
310.893
310.543
310.194
309.845
309.496
309.148
308.8
308.452
308.105
307.758
307.412
307.067
306.723
306.38
306.038
305.698
305.359
305.021
304.683
304.347
304.012
303.677
303.343
303.009
302.677
302.345
302.014
301.685
301.357
301.03
300.705
300.38
300.057
299.736
299.414
299.094
298.775
298.456
298.137
297.82
297.503
297.188
296.873
296.56
296.248
295.937
295.627
295.319
295.011
294.704
294.397
294.092
293.786
293.481
293.177
292.873
292.57
292.268
291.967
291.666
291.367
291.068
290.769
290.47
290.171
289.871
289.57
289.268
288.964
288.659
317.779
317.456
317.129
316.798
316.465
316.129
315.79
315.449
315.105
314.76
314.412
314.063
313.712
313.36
313.007
312.653
312.3
311.946
311.594
311.242
310.891
310.541
310.191
309.842
309.494
309.145
308.797
308.449
308.101
307.754
307.407
307.061
306.716
306.373
306.032
305.691
305.353
305.015
304.678
304.342
304.007
303.672
303.338
303.004
302.671
302.339
302.008
301.678
301.35
301.023
300.698
300.374
300.052
299.73
299.41
299.09
298.77
298.451
298.132
297.814
297.497
297.181
296.867
296.553
296.241
295.931
295.622
295.314
295.006
294.7
294.394
294.088
293.783
293.478
293.173
292.869
292.566
292.264
291.963
291.663
291.365
291.067
290.769
290.472
290.174
289.875
289.575
289.274
288.971
288.665
317.808
317.483
317.154
316.821
316.486
316.148
315.807
315.465
315.12
314.773
314.424
314.073
313.72
313.366
313.011
312.655
312.3
311.945
311.591
311.238
310.887
310.537
310.188
309.839
309.491
309.143
308.794
308.446
308.097
307.748
307.401
307.054
306.708
306.365
306.023
305.683
305.345
305.008
304.672
304.337
304.002
303.667
303.333
302.998
302.664
302.331
301.999
301.669
301.34
301.014
300.689
300.366
300.044
299.724
299.404
299.084
298.765
298.446
298.127
297.808
297.49
297.174
296.858
296.545
296.233
295.923
295.615
295.307
295.001
294.695
294.39
294.084
293.779
293.474
293.169
292.864
292.561
292.259
291.958
291.659
291.361
291.065
290.769
290.474
290.178
289.882
289.583
289.283
288.98
288.674
317.843
317.515
317.183
316.848
316.51
316.17
315.828
315.484
315.138
314.79
314.439
314.086
313.731
313.374
313.016
312.657
312.299
311.941
311.586
311.233
310.881
310.532
310.183
309.836
309.488
309.14
308.792
308.442
308.092
307.742
307.393
307.044
306.698
306.353
306.012
305.672
305.335
304.999
304.665
304.331
303.996
303.662
303.327
302.991
302.656
302.322
301.988
301.657
301.328
301.002
300.678
300.356
300.035
299.716
299.397
299.079
298.759
298.44
298.12
297.8
297.481
297.164
296.847
296.534
296.222
295.913
295.606
295.3
294.995
294.69
294.385
294.08
293.775
293.469
293.163
292.858
292.553
292.251
291.95
291.652
291.356
291.062
290.769
290.477
290.184
289.89
289.594
289.295
288.993
288.687
317.885
317.553
317.218
316.879
316.537
316.195
315.851
315.506
315.159
314.81
314.458
314.102
313.744
313.383
313.021
312.658
312.296
311.936
311.578
311.224
310.873
310.525
310.178
309.832
309.486
309.139
308.79
308.44
308.088
307.735
307.383
307.032
306.684
306.339
305.997
305.658
305.323
304.989
304.657
304.325
303.992
303.657
303.321
302.985
302.647
302.31
301.975
301.642
301.312
300.986
300.663
300.343
300.025
299.708
299.391
299.073
298.755
298.435
298.113
297.792
297.471
297.151
296.834
296.519
296.208
295.9
295.594
295.291
294.988
294.685
294.382
294.077
293.771
293.464
293.157
292.849
292.544
292.24
291.94
291.643
291.349
291.057
290.768
290.48
290.192
289.902
289.609
289.313
289.012
288.705
317.935
317.598
317.257
316.913
316.567
316.222
315.876
315.53
315.183
314.834
314.48
314.123
313.761
313.395
313.027
312.658
312.29
311.926
311.566
311.211
310.861
310.515
310.172
309.829
309.486
309.14
308.792
308.44
308.085
307.728
307.371
307.017
306.665
306.319
305.977
305.64
305.308
304.978
304.649
304.32
303.988
303.655
303.318
302.978
302.637
302.297
301.958
301.622
301.292
300.966
300.645
300.328
300.013
299.699
299.386
299.07
298.752
298.431
298.107
297.783
297.458
297.135
296.815
296.5
296.189
295.883
295.581
295.28
294.981
294.681
294.38
294.076
293.769
293.46
293.15
292.839
292.531
292.225
291.924
291.628
291.337
291.05
290.766
290.484
290.202
289.918
289.63
289.337
289.037
288.73
317.994
317.65
317.3
316.948
316.597
316.248
315.902
315.557
315.211
314.863
314.51
314.15
313.783
313.411
313.034
312.656
312.28
311.91
311.547
311.192
310.844
310.502
310.164
309.827
309.488
309.146
308.798
308.443
308.084
307.721
307.357
306.996
306.64
306.291
305.95
305.617
305.289
304.965
304.642
304.317
303.989
303.656
303.318
302.974
302.627
302.28
301.936
301.596
301.264
300.939
300.621
300.308
299.999
299.692
299.382
299.07
298.753
298.43
298.103
297.773
297.442
297.114
296.791
296.474
296.164
295.861
295.563
295.269
294.975
294.68
294.382
294.079
293.771
293.458
293.143
292.826
292.513
292.204
291.902
291.607
291.319
291.038
290.761
290.487
290.214
289.939
289.659
289.372
289.074
288.766
318.065
317.709
317.347
316.983
316.623
316.271
315.925
315.584
315.244
314.899
314.548
314.187
313.814
313.432
313.042
312.65
312.262
311.883
311.516
311.161
310.818
310.484
310.155
309.828
309.497
309.159
308.812
308.455
308.088
307.715
307.339
306.967
306.604
306.253
305.913
305.585
305.265
304.95
304.636
304.32
303.997
303.666
303.325
302.975
302.618
302.26
301.906
301.56
301.225
300.902
300.589
300.284
299.984
299.686
299.384
299.077
298.761
298.437
298.104
297.765
297.424
297.086
296.757
296.438
296.13
295.832
295.541
295.256
294.971
294.683
294.39
294.089
293.779
293.46
293.136
292.81
292.488
292.173
291.869
291.575
291.292
291.019
290.752
290.49
290.229
289.966
289.698
289.421
289.128
288.817
318.153
317.78
317.394
317.011
316.64
316.284
315.942
315.611
315.281
314.946
314.6
314.239
313.86
313.464
313.054
312.638
312.231
311.839
311.467
311.114
310.779
310.458
310.145
309.833
309.515
309.185
308.841
308.48
308.102
307.712
307.315
306.926
306.552
306.197
305.86
305.54
305.233
304.934
304.636
304.332
304.017
303.689
303.345
302.984
302.612
302.234
301.864
301.508
301.17
300.849
300.545
300.252
299.968
299.684
299.395
299.096
298.783
298.456
298.113
297.759
297.399
297.047
296.708
296.387
296.081
295.791
295.513
295.241
294.971
294.695
294.41
294.111
293.799
293.471
293.132
292.789
292.452
292.127
291.82
291.528
291.253
290.99
290.737
290.49
290.245
290.001
289.752
289.491
289.207
288.895
318.267
317.869
317.438
317.023
316.633
316.277
315.945
315.634
315.327
315.009
314.675
314.316
313.932
313.516
313.075
312.615
312.177
311.766
311.39
311.042
310.721
310.419
310.132
309.847
309.548
309.234
308.894
308.53
308.135
307.717
307.28
306.864
306.473
306.115
305.783
305.477
305.189
304.916
304.643
304.358
304.058
303.734
303.388
303.011
302.613
302.198
301.802
301.43
301.09
300.774
300.483
300.21
299.949
299.69
299.419
299.134
298.826
298.496
298.138
297.76
297.365
296.988
296.635
296.311
296.011
295.734
295.473
295.225
294.978
294.72
294.448
294.155
293.84
293.498
293.136
292.758
292.397
292.058
291.747
291.459
291.194
290.946
290.714
290.487
290.261
290.043
289.825
289.593
289.329
289.016
318.431
318.004
317.459
317
316.579
316.234
315.918
315.65
315.389
315.094
314.787
314.428
314.051
313.602
313.123
312.56
312.085
311.643
311.274
310.929
310.636
310.359
310.119
309.879
309.605
309.318
308.982
308.626
308.201
307.748
307.215
306.765
306.346
305.996
305.668
305.389
305.126
304.896
304.668
304.407
304.133
303.813
303.474
303.07
302.639
302.133
301.705
301.306
300.974
300.663
300.398
300.148
299.93
299.712
299.465
299.205
298.9
298.578
298.194
297.785
297.304
296.897
296.518
296.202
295.906
295.654
295.416
295.208
295.001
294.766
294.518
294.228
293.921
293.554
293.163
292.702
292.311
291.947
291.642
291.356
291.112
290.881
290.681
290.484
290.266
290.083
289.917
289.74
289.522
289.218
318.688
318.308
317.357
316.921
316.413
316.15
315.822
315.658
315.499
315.197
314.972
314.569
314.273
313.73
313.292
312.38
311.945
311.413
311.125
310.74
310.528
310.248
310.103
309.959
309.682
309.474
309.098
308.82
308.308
307.894
307.033
306.622
306.118
305.846
305.481
305.279
305.013
304.875
304.738
304.475
304.276
303.918
303.653
303.166
302.773
301.955
301.565
301.088
300.829
300.483
300.292
300.039
299.909
299.778
299.528
299.339
299
298.748
298.286
297.913
297.136
296.765
296.311
296.066
295.737
295.554
295.314
295.19
295.066
294.828
294.649
294.326
294.087
293.647
293.29
292.544
292.188
291.749
291.511
291.19
291.011
290.771
290.646
290.51
290.221
290.101
290.024
289.948
289.836
289.608
288.315
287.947
287.578
287.209
286.839
286.47
286.101
285.733
285.365
284.999
284.634
284.27
283.906
283.544
283.181
288.316
287.948
287.579
287.209
286.839
286.469
286.1
285.732
285.364
284.998
284.633
284.269
283.906
283.543
283.181
288.318
287.949
287.58
287.209
286.839
286.468
286.098
285.73
285.362
284.996
284.631
284.267
283.904
283.542
283.181
288.322
287.952
287.582
287.21
286.838
286.467
286.096
285.727
285.359
284.993
284.628
284.264
283.902
283.541
283.18
288.328
287.957
287.584
287.211
286.837
286.464
286.092
285.722
285.354
284.988
284.623
284.261
283.899
283.539
283.18
288.336
287.963
287.588
287.211
286.835
286.46
286.087
285.716
285.347
284.981
284.617
284.255
283.895
283.537
283.179
288.347
287.971
287.592
287.212
286.833
286.455
286.079
285.707
285.337
284.971
284.609
284.248
283.89
283.533
283.178
288.362
287.982
287.598
287.213
286.828
286.447
286.068
285.694
285.325
284.959
284.598
284.239
283.883
283.529
283.176
288.384
287.997
287.605
287.213
286.822
286.435
286.053
285.678
285.308
284.943
284.583
284.227
283.874
283.524
283.174
288.414
288.017
287.614
287.21
286.811
286.418
286.032
285.655
285.285
284.922
284.565
284.213
283.864
283.517
283.172
288.456
288.044
287.623
287.204
286.793
286.393
286.004
285.625
285.256
284.896
284.542
284.194
283.85
283.509
283.169
288.518
288.078
287.63
287.19
286.765
286.357
285.964
285.586
285.219
284.863
284.514
284.172
283.834
283.499
283.166
288.608
288.12
287.63
287.162
286.72
286.304
285.91
285.534
285.172
284.821
284.48
284.144
283.814
283.487
283.162
288.742
288.162
287.61
287.107
286.65
286.23
285.838
285.468
285.114
284.771
284.438
284.112
283.791
283.473
283.158
288.937
288.177
287.539
287.005
286.543
286.128
285.746
285.386
285.043
284.712
284.391
284.075
283.765
283.458
283.152
322.886
322.659
322.431
322.202
321.972
321.74
321.506
321.269
321.028
320.781
320.526
320.257
319.964
319.622
319.178
322.891
322.673
322.455
322.237
322.017
321.797
321.576
321.353
321.127
320.9
320.668
320.429
320.175
319.881
319.438
322.896
322.688
322.48
322.271
322.063
321.854
321.646
321.437
321.229
321.021
320.814
320.611
320.414
320.242
320.18
322.901
322.703
322.504
322.306
322.109
321.912
321.716
321.522
321.329
321.141
320.959
320.788
320.637
320.525
320.483
322.906
322.717
322.529
322.341
322.154
321.969
321.785
321.604
321.428
321.257
321.096
320.951
320.832
320.761
320.781
322.91
322.731
322.553
322.375
322.199
322.024
321.852
321.684
321.521
321.366
321.222
321.095
320.994
320.932
320.918
322.915
322.745
322.576
322.408
322.242
322.078
321.917
321.761
321.61
321.467
321.336
321.222
321.13
321.071
321.064
322.92
322.759
322.599
322.44
322.284
322.13
321.979
321.833
321.693
321.561
321.44
321.332
321.242
321.174
321.13
322.924
322.772
322.621
322.471
322.324
322.179
322.037
321.901
321.77
321.647
321.533
321.43
321.34
321.261
321.183
322.928
322.785
322.642
322.501
322.362
322.225
322.093
321.964
321.842
321.726
321.619
321.52
321.429
321.347
321.274
322.932
322.796
322.662
322.529
322.398
322.269
322.145
322.024
321.909
321.8
321.698
321.603
321.513
321.427
321.334
322.936
322.808
322.681
322.555
322.432
322.311
322.194
322.081
321.973
321.87
321.773
321.682
321.595
321.511
321.432
322.939
322.819
322.699
322.58
322.464
322.35
322.24
322.133
322.032
321.935
321.844
321.758
321.675
321.591
321.497
322.943
322.829
322.715
322.604
322.494
322.387
322.283
322.183
322.088
321.997
321.912
321.831
321.755
321.68
321.606
322.946
322.838
322.731
322.626
322.522
322.421
322.323
322.23
322.14
322.055
321.976
321.902
321.833
321.767
321.686
322.949
322.847
322.746
322.646
322.549
322.453
322.361
322.273
322.189
322.11
322.037
321.97
321.911
321.863
321.844
322.952
322.855
322.76
322.666
322.573
322.483
322.397
322.313
322.234
322.161
322.093
322.032
321.98
321.94
321.915
322.954
322.863
322.773
322.684
322.596
322.511
322.429
322.351
322.276
322.207
322.144
322.088
322.041
322.007
321.995
322.957
322.87
322.785
322.7
322.618
322.537
322.46
322.385
322.315
322.25
322.19
322.137
322.093
322.059
322.036
322.959
322.877
322.796
322.716
322.637
322.561
322.487
322.417
322.35
322.288
322.231
322.18
322.138
322.105
322.085
322.961
322.883
322.806
322.73
322.656
322.583
322.513
322.446
322.382
322.323
322.268
322.218
322.175
322.14
322.111
322.963
322.889
322.816
322.744
322.673
322.604
322.537
322.473
322.412
322.354
322.301
322.252
322.208
322.171
322.142
322.965
322.894
322.825
322.756
322.688
322.623
322.559
322.497
322.438
322.383
322.33
322.282
322.237
322.195
322.157
322.966
322.899
322.833
322.767
322.703
322.64
322.579
322.52
322.463
322.409
322.358
322.309
322.262
322.218
322.171
322.968
322.904
322.841
322.778
322.716
322.656
322.598
322.541
322.486
322.433
322.383
322.334
322.287
322.241
322.195
322.969
322.908
322.848
322.788
322.729
322.671
322.615
322.56
322.508
322.456
322.407
322.359
322.312
322.264
322.212
322.971
322.912
322.855
322.797
322.741
322.685
322.631
322.579
322.528
322.478
322.43
322.383
322.336
322.289
322.242
322.972
322.916
322.861
322.806
322.752
322.699
322.647
322.596
322.547
322.499
322.452
322.407
322.361
322.314
322.262
322.973
322.92
322.867
322.814
322.762
322.711
322.661
322.612
322.565
322.519
322.474
322.43
322.387
322.343
322.298
322.974
322.923
322.872
322.821
322.772
322.723
322.675
322.628
322.582
322.538
322.495
322.454
322.413
322.372
322.325
322.975
322.926
322.877
322.829
322.781
322.734
322.687
322.642
322.599
322.556
322.515
322.476
322.439
322.405
322.38
322.976
322.929
322.882
322.835
322.789
322.744
322.699
322.656
322.614
322.573
322.534
322.497
322.463
322.432
322.405
322.977
322.932
322.886
322.841
322.797
322.753
322.711
322.669
322.629
322.59
322.552
322.517
322.485
322.456
322.435
322.978
322.934
322.891
322.847
322.805
322.762
322.721
322.681
322.642
322.604
322.568
322.535
322.503
322.475
322.45
322.979
322.937
322.894
322.853
322.811
322.771
322.731
322.692
322.654
322.618
322.583
322.55
322.52
322.492
322.47
322.98
322.939
322.898
322.858
322.818
322.779
322.74
322.703
322.666
322.631
322.597
322.564
322.534
322.506
322.48
322.98
322.941
322.902
322.863
322.824
322.786
322.749
322.712
322.677
322.642
322.609
322.577
322.547
322.518
322.493
322.981
322.943
322.905
322.867
322.83
322.793
322.757
322.721
322.687
322.653
322.62
322.588
322.558
322.528
322.5
322.982
322.945
322.908
322.871
322.835
322.799
322.764
322.73
322.696
322.663
322.631
322.599
322.568
322.537
322.505
322.982
322.946
322.911
322.875
322.84
322.806
322.771
322.738
322.705
322.673
322.641
322.61
322.579
322.547
322.516
322.983
322.948
322.913
322.879
322.845
322.811
322.778
322.745
322.713
322.682
322.651
322.62
322.589
322.557
322.524
322.983
322.949
322.916
322.882
322.849
322.817
322.784
322.753
322.721
322.691
322.66
322.63
322.6
322.569
322.538
322.984
322.951
322.918
322.886
322.854
322.822
322.79
322.759
322.729
322.699
322.67
322.64
322.611
322.58
322.547
322.984
322.952
322.92
322.889
322.857
322.827
322.796
322.766
322.736
322.707
322.679
322.65
322.622
322.594
322.564
322.984
322.953
322.922
322.892
322.861
322.831
322.801
322.772
322.743
322.715
322.688
322.661
322.634
322.607
322.577
322.985
322.954
322.924
322.894
322.865
322.835
322.806
322.778
322.75
322.723
322.696
322.671
322.646
322.623
322.604
322.985
322.956
322.926
322.897
322.868
322.839
322.811
322.783
322.756
322.73
322.705
322.68
322.657
322.635
322.616
322.985
322.956
322.928
322.899
322.871
322.843
322.815
322.788
322.762
322.737
322.712
322.689
322.667
322.647
322.63
322.986
322.957
322.929
322.901
322.873
322.846
322.819
322.793
322.767
322.742
322.719
322.696
322.675
322.655
322.638
322.986
322.958
322.93
322.903
322.876
322.849
322.822
322.797
322.772
322.748
322.725
322.703
322.682
322.663
322.647
322.986
322.959
322.931
322.904
322.878
322.851
322.825
322.8
322.776
322.752
322.73
322.708
322.688
322.669
322.651
322.986
322.959
322.932
322.906
322.879
322.853
322.828
322.803
322.779
322.756
322.734
322.713
322.693
322.674
322.657
322.987
322.96
322.933
322.907
322.881
322.855
322.83
322.806
322.782
322.759
322.737
322.716
322.697
322.678
322.66
322.987
322.96
322.934
322.908
322.882
322.857
322.832
322.808
322.784
322.762
322.74
322.72
322.7
322.681
322.662
322.987
322.96
322.934
322.908
322.883
322.858
322.833
322.809
322.786
322.764
322.743
322.722
322.702
322.684
322.665
322.987
322.961
322.934
322.909
322.883
322.858
322.834
322.81
322.787
322.765
322.744
322.724
322.705
322.686
322.668
322.987
322.961
322.934
322.909
322.883
322.858
322.834
322.811
322.788
322.766
322.745
322.725
322.706
322.688
322.671
322.987
322.96
322.934
322.908
322.883
322.858
322.834
322.811
322.788
322.766
322.745
322.726
322.707
322.689
322.673
322.987
322.96
322.934
322.908
322.882
322.857
322.833
322.81
322.787
322.766
322.745
322.726
322.707
322.69
322.675
322.987
322.96
322.933
322.907
322.881
322.856
322.832
322.808
322.786
322.764
322.744
322.725
322.707
322.69
322.675
322.986
322.959
322.932
322.906
322.88
322.855
322.83
322.806
322.784
322.762
322.742
322.723
322.705
322.689
322.673
322.986
322.959
322.931
322.904
322.878
322.852
322.828
322.804
322.781
322.759
322.739
322.72
322.703
322.686
322.672
322.986
322.958
322.93
322.902
322.876
322.85
322.824
322.8
322.777
322.756
322.735
322.716
322.699
322.683
322.668
322.986
322.957
322.928
322.9
322.873
322.846
322.82
322.796
322.773
322.751
322.731
322.712
322.695
322.679
322.665
322.985
322.955
322.926
322.897
322.869
322.842
322.816
322.791
322.767
322.745
322.725
322.706
322.689
322.674
322.659
322.985
322.954
322.924
322.894
322.865
322.837
322.81
322.785
322.761
322.738
322.718
322.699
322.683
322.668
322.655
322.984
322.952
322.921
322.89
322.86
322.831
322.804
322.777
322.753
322.73
322.71
322.691
322.675
322.661
322.647
322.983
322.95
322.918
322.886
322.855
322.825
322.796
322.769
322.744
322.721
322.7
322.682
322.666
322.653
322.643
322.983
322.948
322.914
322.881
322.849
322.817
322.787
322.759
322.733
322.709
322.688
322.67
322.655
322.644
322.637
322.982
322.946
322.91
322.875
322.841
322.809
322.778
322.748
322.721
322.696
322.675
322.656
322.642
322.631
322.625
322.981
322.943
322.906
322.869
322.834
322.799
322.766
322.736
322.707
322.681
322.659
322.64
322.625
322.616
322.614
322.98
322.94
322.901
322.862
322.825
322.788
322.754
322.721
322.691
322.664
322.64
322.62
322.605
322.595
322.592
322.979
322.937
322.895
322.855
322.815
322.777
322.74
322.706
322.674
322.644
322.619
322.597
322.58
322.571
322.573
322.978
322.933
322.889
322.846
322.804
322.764
322.725
322.688
322.654
322.623
322.595
322.57
322.551
322.538
322.534
322.976
322.929
322.883
322.837
322.792
322.749
322.708
322.669
322.632
322.598
322.568
322.54
322.517
322.5
322.498
322.975
322.925
322.875
322.827
322.779
322.734
322.69
322.648
322.609
322.572
322.538
322.507
322.479
322.452
322.419
322.973
322.92
322.868
322.816
322.766
322.717
322.67
322.625
322.583
322.544
322.507
322.473
322.44
322.408
322.378
322.972
322.915
322.859
322.804
322.751
322.699
322.649
322.601
322.556
322.514
322.474
322.436
322.4
322.364
322.321
322.97
322.91
322.85
322.791
322.734
322.679
322.626
322.575
322.527
322.482
322.44
322.399
322.361
322.323
322.288
322.968
322.904
322.84
322.778
322.717
322.658
322.601
322.547
322.496
322.448
322.403
322.361
322.321
322.281
322.237
322.966
322.897
322.829
322.763
322.698
322.635
322.575
322.517
322.463
322.412
322.365
322.322
322.281
322.242
322.206
322.963
322.89
322.818
322.747
322.678
322.61
322.546
322.485
322.427
322.374
322.325
322.28
322.239
322.201
322.159
322.961
322.883
322.806
322.73
322.656
322.584
322.515
322.45
322.389
322.333
322.282
322.236
322.196
322.162
322.133
322.958
322.875
322.793
322.711
322.632
322.555
322.482
322.412
322.347
322.288
322.235
322.189
322.149
322.118
322.101
322.955
322.867
322.779
322.692
322.607
322.525
322.446
322.371
322.302
322.238
322.183
322.136
322.097
322.065
322.026
322.952
322.858
322.764
322.671
322.58
322.492
322.407
322.326
322.252
322.184
322.125
322.077
322.041
322.015
321.993
322.949
322.848
322.748
322.649
322.551
322.456
322.365
322.278
322.196
322.123
322.06
322.01
321.977
321.964
321.969
322.946
322.838
322.731
322.625
322.521
322.418
322.32
322.225
322.136
322.055
321.986
321.932
321.9
321.9
321.939
322.943
322.828
322.714
322.6
322.488
322.378
322.271
322.168
322.07
321.98
321.9
321.837
321.801
321.808
321.887
322.939
322.817
322.696
322.575
322.455
322.337
322.221
322.107
321.999
321.896
321.803
321.725
321.672
321.665
321.767
289.142
288.079
287.379
286.847
286.401
286.004
285.639
285.296
284.967
284.65
284.34
284.037
283.738
283.442
283.147
288.767
287.737
287.117
286.643
286.237
285.87
285.528
285.203
284.891
284.587
284.291
283.999
283.711
283.426
283.142
287.286
287.111
286.754
286.391
286.046
285.719
285.405
285.102
284.808
284.52
284.238
283.959
283.683
283.409
283.136
286.703
286.61
286.395
286.127
285.843
285.557
285.274
284.995
284.721
284.45
284.182
283.917
283.653
283.391
283.13
286.152
286.195
286.073
285.875
285.642
285.394
285.141
284.885
284.63
284.377
284.124
283.873
283.623
283.373
283.124
285.902
285.896
285.803
285.646
285.451
285.235
285.008
284.775
284.54
284.303
284.066
283.828
283.592
283.355
283.118
285.643
285.656
285.578
285.444
285.275
285.084
284.88
284.667
284.45
284.229
284.007
283.784
283.56
283.336
283.112
285.527
285.48
285.391
285.266
285.114
284.942
284.757
284.562
284.362
284.157
283.949
283.74
283.529
283.318
283.106
285.434
285.333
285.23
285.108
284.967
284.81
284.64
284.462
284.276
284.086
283.893
283.696
283.498
283.3
283.1
285.275
285.186
285.081
284.963
284.831
284.686
284.53
284.366
284.195
284.018
283.838
283.654
283.469
283.282
283.094
285.171
285.051
284.941
284.827
284.703
284.569
284.426
284.275
284.117
283.953
283.785
283.614
283.44
283.265
283.088
285.001
284.908
284.806
284.698
284.583
284.46
284.328
284.188
284.042
283.89
283.734
283.574
283.412
283.248
283.083
284.891
284.773
284.673
284.573
284.468
284.356
284.235
284.107
283.972
283.831
283.686
283.537
283.386
283.232
283.078
284.704
284.624
284.54
284.453
284.359
284.257
284.147
284.03
283.905
283.775
283.64
283.502
283.36
283.217
283.072
284.568
284.479
284.41
284.337
284.255
284.164
284.065
283.957
283.843
283.723
283.597
283.469
283.337
283.203
283.068
284.305
284.318
284.283
284.227
284.158
284.078
283.988
283.89
283.784
283.673
283.557
283.437
283.314
283.189
283.063
284.187
284.192
284.17
284.127
284.069
283.998
283.916
283.827
283.73
283.627
283.52
283.408
283.294
283.177
283.059
284.058
284.083
284.072
284.038
283.988
283.925
283.851
283.769
283.68
283.585
283.485
283.381
283.274
283.165
283.055
283.993
284.001
283.99
283.96
283.916
283.859
283.792
283.716
283.634
283.545
283.452
283.356
283.256
283.154
283.052
283.917
283.93
283.92
283.893
283.852
283.8
283.738
283.668
283.592
283.509
283.423
283.333
283.239
283.144
283.048
283.878
283.877
283.863
283.836
283.797
283.748
283.69
283.625
283.553
283.477
283.396
283.311
283.224
283.135
283.045
283.834
283.832
283.815
283.786
283.748
283.701
283.647
283.586
283.519
283.447
283.371
283.292
283.21
283.127
283.042
283.812
283.797
283.774
283.744
283.706
283.66
283.608
283.551
283.488
283.42
283.349
283.274
283.198
283.119
283.04
283.795
283.767
283.739
283.706
283.668
283.624
283.574
283.519
283.459
283.396
283.328
283.258
283.186
283.112
283.038
283.764
283.737
283.707
283.673
283.635
283.591
283.543
283.491
283.434
283.374
283.31
283.244
283.176
283.106
283.035
283.744
283.71
283.678
283.643
283.605
283.562
283.516
283.466
283.411
283.354
283.294
283.231
283.166
283.1
283.034
283.712
283.683
283.65
283.615
283.577
283.536
283.491
283.443
283.391
283.336
283.279
283.219
283.158
283.095
283.032
283.692
283.657
283.624
283.589
283.552
283.512
283.469
283.422
283.373
283.32
283.266
283.209
283.15
283.091
283.03
283.659
283.63
283.599
283.565
283.53
283.491
283.449
283.404
283.356
283.306
283.254
283.199
283.143
283.087
283.029
283.635
283.604
283.575
283.543
283.509
283.472
283.431
283.388
283.342
283.294
283.243
283.191
283.137
283.083
283.028
283.592
283.577
283.552
283.523
283.49
283.454
283.415
283.373
283.329
283.282
283.234
283.184
283.132
283.08
283.027
283.573
283.556
283.533
283.506
283.474
283.439
283.401
283.361
283.318
283.273
283.226
283.177
283.127
283.077
283.026
283.555
283.54
283.518
283.491
283.46
283.426
283.389
283.35
283.308
283.264
283.218
283.171
283.123
283.074
283.025
283.546
283.528
283.505
283.478
283.448
283.415
283.379
283.34
283.299
283.257
283.212
283.167
283.12
283.072
283.024
283.537
283.518
283.495
283.469
283.439
283.406
283.37
283.332
283.292
283.251
283.207
283.163
283.117
283.07
283.024
283.533
283.512
283.488
283.461
283.431
283.399
283.363
283.326
283.287
283.246
283.203
283.159
283.114
283.069
283.023
283.53
283.508
283.483
283.456
283.426
283.393
283.358