/*--------------------------------*- C++ -*----------------------------------*\
| =========                 |                                                 |
| \\      /  F ield         | OpenFOAM: The Open Source CFD Toolbox           |
|  \\    /   O peration     | Version:  5.x                                   |
|   \\  /    A nd           | Web:      www.OpenFOAM.org                      |
|    \\/     M anipulation  |                                                 |
\*---------------------------------------------------------------------------*/
FoamFile
{
    version     2.0;
    format      ascii;
    class       volScalarField;
    location    "2.6";
    object      gradTy;
}
// * * * * * * * * * * * * * * * * * * * * * * * * * * * * * * * * * * * * * //

dimensions      [0 -1 0 1 0 0 0];

internalField   nonuniform List<scalar> 
3200
(
18.1304
8.57715
11.6497
8.26157
9.68514
7.99634
8.74022
7.75589
8.19675
7.56906
7.83872
7.4878
7.69363
7.29235
7.50006
7.11788
7.3131
6.96129
7.13978
6.82134
6.982
6.6975
6.84038
6.58898
6.71509
6.49425
6.60673
6.41027
6.52329
6.35712
6.22457
6.31008
6.19384
6.25045
6.15987
6.20383
6.13082
6.16635
6.10666
6.13574
6.0867
6.11055
6.07034
6.0898
6.05715
6.07276
6.04691
6.0589
6.03969
6.04786
6.03688
6.04288
6.03172
6.03679
6.02862
6.03175
6.0279
6.02831
6.03028
6.02687
6.03706
6.02794
6.05077
6.03218
6.07637
6.03983
6.12476
6.04612
6.22161
5.99933
6.29159
7.10485
6.41956
7.94085
6.7767
9.88543
9.11654
8.99895
8.97468
8.96945
16.8985
9.68603
11.2555
8.72159
9.48487
8.22369
8.62198
7.88617
8.12111
7.65148
7.79547
7.53354
7.64324
7.34262
7.45234
7.16605
7.26926
7.00574
7.10015
6.86164
6.94663
6.73355
6.80914
6.62086
6.68761
6.52224
6.58194
6.43501
6.49628
6.36083
6.24894
6.29594
6.20912
6.2393
6.17151
6.19482
6.14016
6.15898
6.11428
6.12968
6.09295
6.10558
6.07547
6.08577
6.06132
6.06958
6.05022
6.05656
6.04217
6.04651
6.03831
6.04149
6.03313
6.0358
6.02967
6.03132
6.02843
6.02863
6.0301
6.02827
6.03589
6.03101
6.04808
6.03813
6.07114
6.05148
6.11479
6.07176
6.20171
6.0746
6.34982
6.98987
6.62079
7.75877
7.1533
9.49302
9.09049
8.99522
8.97392
8.96925
15.9549
10.4436
11.0253
9.04967
9.36552
8.38461
8.54906
7.97757
8.0736
7.70932
7.76843
7.56438
7.60922
7.37643
7.42043
7.1986
7.24006
7.03586
7.07381
6.88897
6.92315
6.75802
6.78843
6.64251
6.66939
6.54121
6.5654
6.45141
6.47712
6.36358
6.26696
6.28714
6.21972
6.23206
6.1795
6.18892
6.14654
6.15414
6.11949
6.12569
6.09723
6.10232
6.07897
6.08312
6.06417
6.0675
6.05249
6.05504
6.04389
6.04566
6.03927
6.04057
6.0341
6.03516
6.03042
6.03107
6.02884
6.02891
6.03005
6.02929
6.03521
6.03321
6.04646
6.04236
6.06802
6.05982
6.10908
6.09049
6.1921
6.13378
6.39346
6.91526
6.76173
7.64644
7.41209
9.21031
9.05214
8.98853
8.97249
8.96885
15.2318
10.9574
10.8975
9.2861
9.29805
8.49972
8.50558
8.04228
8.04452
7.75023
7.75191
7.58527
7.58631
7.39919
7.39916
7.22063
7.2207
7.05629
7.05639
6.90755
6.90766
6.77467
6.77478
6.65725
6.65738
6.55409
6.55439
6.46222
6.46353
6.36565
6.2803
6.28184
6.22712
6.22743
6.185
6.1851
6.15093
6.15099
6.12306
6.1231
6.10016
6.10019
6.08138
6.0814
6.06614
6.06615
6.05407
6.05407
6.0451
6.04513
6.03993
6.03995
6.03476
6.03475
6.03094
6.03093
6.02915
6.02914
6.03008
6.03005
6.03485
6.03479
6.04554
6.0454
6.06625
6.06585
6.10608
6.1044
6.18889
6.18024
6.42661
6.86766
6.86115
7.57886
7.58957
9.00586
9.01002
8.97994
8.97057
8.96831
14.6798
11.3026
10.8317
9.45761
9.26301
8.58268
8.48088
8.08837
8.0273
7.77931
7.74213
7.59946
7.57093
7.41446
7.38503
7.23552
7.20792
7.07014
7.04493
6.92018
6.89749
6.78601
6.76584
6.66729
6.64952
6.56283
6.54709
6.46929
6.45392
6.36723
6.29017
6.2788
6.23233
6.2245
6.18881
6.18265
6.15396
6.14896
6.12552
6.12142
6.10218
6.09882
6.08304
6.08029
6.06749
6.06529
6.05516
6.05346
6.04595
6.04481
6.04038
6.03954
6.03522
6.0345
6.03132
6.03087
6.02939
6.02933
6.03015
6.03061
6.03469
6.03594
6.04506
6.04761
6.06533
6.07026
6.10476
6.11487
6.1894
6.2165
6.45197
6.83797
6.9316
7.53957
7.71083
8.85788
8.96927
8.97052
8.96836
8.96768
14.2628
11.5317
10.8021
9.58196
9.2474
8.64251
8.46782
8.12122
8.01758
7.79996
7.73659
7.60909
7.56069
7.42466
7.37572
7.24555
7.19955
7.07951
7.03745
6.92873
6.89088
6.7937
6.76004
6.67411
6.64441
6.56874
6.54226
6.47387
6.44716
6.36842
6.29741
6.27717
6.236
6.22269
6.19144
6.1811
6.15603
6.14767
6.12721
6.12036
6.10356
6.09794
6.08417
6.07959
6.06842
6.06475
6.05592
6.05309
6.04655
6.04463
6.04069
6.03928
6.03553
6.03434
6.03159
6.03085
6.02958
6.02949
6.03023
6.03103
6.03464
6.03678
6.04484
6.0492
6.06492
6.07348
6.10442
6.12276
6.19181
6.24443
6.47132
6.81996
6.98148
7.51775
7.79306
8.75134
8.93292
8.96124
8.9661
8.96702
13.9551
11.6806
10.7921
9.6709
9.24263
8.68514
8.46164
8.14436
8.01242
7.81445
7.73361
7.61556
7.55395
7.43139
7.36966
7.25221
7.19415
7.08575
7.03265
6.93445
6.88665
6.79885
6.75634
6.67868
6.64114
6.57268
6.53912
6.47679
6.44248
6.36931
6.30262
6.27637
6.23855
6.2216
6.19324
6.18014
6.15744
6.14686
6.12835
6.11969
6.1045
6.0974
6.08495
6.07915
6.06906
6.06441
6.05643
6.05287
6.04697
6.04452
6.0409
6.03911
6.03575
6.03425
6.03178
6.03085
6.02972
6.02961
6.03031
6.03133
6.03464
6.03738
6.04476
6.05034
6.06479
6.07581
6.10458
6.12862
6.19487
6.26538
6.48579
6.80945
7.01636
7.50636
7.84797
8.67586
8.9027
8.95289
8.96399
8.9664
13.7384
11.7742
10.7915
9.73214
9.24304
8.71443
8.45923
8.1601
8.00991
7.82427
7.73214
7.61979
7.54966
7.43569
7.36584
7.2565
7.19078
7.0898
7.02967
6.93815
6.88402
6.8022
6.75405
6.68165
6.63912
6.57523
6.53714
6.47859
6.43937
6.36994
6.30622
6.27604
6.24027
6.22097
6.19443
6.17956
6.15837
6.14638
6.1291
6.11929
6.10511
6.09707
6.08545
6.07889
6.06947
6.06421
6.05678
6.05274
6.04724
6.04447
6.04104
6.039
6.03589
6.03419
6.03191
6.03086
6.02982
6.0297
6.03038
6.03155
6.03467
6.03779
6.04476
6.05113
6.06481
6.07743
6.10492
6.1328
6.19777
6.28034
6.49613
6.8036
7.03993
7.50091
7.88343
8.62442
8.87954
8.94611
8.96223
8.96587
13.6003
11.8285
10.7939
9.77058
9.24505
8.7328
8.4586
8.1699
8.00883
7.83036
7.73148
7.62233
7.54714
7.43823
7.36361
7.25906
7.18882
7.09221
7.02794
6.94038
6.88251
6.80421
6.75273
6.68344
6.63796
6.57676
6.53597
6.47963
6.43746
6.37035
6.30848
6.27594
6.24133
6.22063
6.19515
6.17924
6.15894
6.14611
6.12956
6.11906
6.10549
6.09688
6.08576
6.07874
6.06973
6.0641
6.05699
6.05267
6.04742
6.04444
6.04112
6.03894
6.03597
6.03417
6.03199
6.03087
6.02989
6.02976
6.03042
6.03168
6.03471
6.03806
6.04478
6.05162
6.06486
6.07846
6.10526
6.13548
6.19996
6.28996
6.5028
6.8006
7.0545
7.49859
7.90455
8.59242
8.86393
8.94134
8.96097
8.96549
13.5331
11.8534
10.7959
9.78913
9.24654
8.74165
8.45855
8.1746
8.00846
7.83328
7.73124
7.62353
7.54597
7.43941
7.36258
7.26025
7.18792
7.09334
7.02715
6.94141
6.88182
6.80515
6.75213
6.68427
6.63743
6.57747
6.53544
6.48009
6.43656
6.37054
6.30957
6.27592
6.24183
6.22048
6.19549
6.1791
6.1592
6.14598
6.12977
6.11896
6.10566
6.0968
6.0859
6.07868
6.06985
6.06405
6.05708
6.05264
6.0475
6.04443
6.04116
6.03892
6.03601
6.03415
6.03202
6.03088
6.02992
6.02979
6.03045
6.03175
6.03473
6.03818
6.0448
6.05186
6.0649
6.07896
6.10545
6.1368
6.20113
6.29468
6.50608
6.79935
7.06147
7.4978
7.91439
8.57708
8.85608
8.93889
8.96031
8.9653
-13.4703
-11.677
-10.4558
-9.12409
-8.31804
-7.43084
-6.87201
-6.22412
-5.81193
-5.33361
-5.04272
-4.72033
-4.48538
-4.16094
-3.9285
-3.6215
-3.40729
-3.13121
-2.94083
-2.6981
-2.53159
-2.32033
-2.1757
-1.99245
-1.86671
-1.70667
-1.59463
-1.44716
-1.33052
-1.15253
-0.98659
-0.893896
-0.798321
-0.737632
-0.665515
-0.617649
-0.558782
-0.519273
-0.470241
-0.437236
-0.396179
-0.368544
-0.334186
-0.311119
-0.282546
-0.263514
-0.240192
-0.225006
-0.206975
-0.195916
-0.183549
-0.174521
-0.162046
-0.153135
-0.141404
-0.133262
-0.122828
-0.115687
-0.10666
-0.100542
-0.0928934
-0.0877962
-0.0815732
-0.0776825
-0.0734205
-0.07175
-0.0720177
-0.0772873
-0.0943077
-0.131028
-0.22636
-0.378608
-0.537768
-0.830849
-1.13901
-1.65614
-1.87486
-1.93985
-1.95667
-1.96057
-13.5421
-11.6542
-10.4603
-9.10312
-8.32134
-7.41776
-6.87563
-6.21474
-5.81463
-5.32616
-5.04403
-4.71688
-4.48901
-4.15731
-3.93152
-3.61783
-3.4098
-3.12783
-2.94296
-2.69509
-2.53342
-2.3177
-2.17728
-1.99019
-1.86811
-1.70478
-1.59608
-1.44596
-1.333
-1.15207
-0.983683
-0.894032
-0.796945
-0.738107
-0.664562
-0.618104
-0.558022
-0.519668
-0.469613
-0.43757
-0.395653
-0.368822
-0.333743
-0.311347
-0.282172
-0.263692
-0.239873
-0.225125
-0.206701
-0.195973
-0.18342
-0.174663
-0.161907
-0.15325
-0.141263
-0.133355
-0.122698
-0.115764
-0.106544
-0.100604
-0.0927909
-0.0878404
-0.0814788
-0.0776958
-0.073315
-0.0716703
-0.0718151
-0.0768144
-0.0935165
-0.12868
-0.224079
-0.378326
-0.532406
-0.830239
-1.13065
-1.66807
-1.881
-1.94177
-1.95718
-1.96072
-13.6895
-11.6037
-10.4713
-9.0592
-8.32957
-7.39027
-6.88405
-6.19499
-5.82091
-5.31051
-5.04719
-4.70951
-4.49684
-4.14949
-3.93811
-3.60998
-3.41532
-3.1206
-2.94766
-2.68867
-2.53745
-2.3121
-2.18076
-1.98535
-1.8712
-1.70074
-1.59922
-1.4433
-1.33823
-1.15114
-0.977649
-0.894488
-0.794059
-0.739189
-0.662543
-0.619122
-0.556409
-0.520545
-0.468277
-0.438311
-0.394535
-0.369442
-0.332802
-0.311856
-0.281378
-0.264091
-0.239196
-0.225397
-0.206124
-0.196107
-0.183142
-0.174967
-0.161606
-0.153502
-0.14096
-0.13356
-0.122419
-0.115932
-0.106297
-0.10074
-0.0925734
-0.0879402
-0.0812799
-0.0777315
-0.073098
-0.0715167
-0.0714156
-0.0758703
-0.0919833
-0.123919
-0.219439
-0.378045
-0.521286
-0.829518
-1.11279
-1.69297
-1.89321
-1.94549
-1.95815
-1.961
-13.9203
-11.5151
-10.4936
-8.98804
-8.34626
-7.34553
-6.89985
-6.1627
-5.83271
-5.28503
-5.05338
-4.69719
-4.51011
-4.13628
-3.94943
-3.59685
-3.4249
-3.10855
-2.95585
-2.67798
-2.54449
-2.30278
-2.18685
-1.97731
-1.87658
-1.69397
-1.60456
-1.43863
-1.34677
-1.14969
-0.968028
-0.895657
-0.789373
-0.741163
-0.659214
-0.620928
-0.553738
-0.522093
-0.466063
-0.439617
-0.392681
-0.370533
-0.331243
-0.312754
-0.280064
-0.264802
-0.238083
-0.225893
-0.205181
-0.196364
-0.182677
-0.175483
-0.161099
-0.153933
-0.140454
-0.133916
-0.121956
-0.116227
-0.105888
-0.10098
-0.0922139
-0.0881201
-0.0809551
-0.0778087
-0.0727567
-0.0713014
-0.0708309
-0.0744566
-0.0898134
-0.11661
-0.21227
-0.378373
-0.50356
-0.829788
-1.08305
-1.73305
-1.91134
-1.95078
-1.9595
-1.96139
-14.2474
-11.3713
-10.5354
-8.8824
-8.37736
-7.27865
-6.92737
-6.11417
-5.85327
-5.24697
-5.06461
-4.67817
-4.5309
-4.11564
-3.96742
-3.57653
-3.44029
-3.08999
-2.96908
-2.66157
-2.55589
-2.28847
-2.19672
-1.96495
-1.88527
-1.68351
-1.613
-1.43104
-1.35955
-1.14765
-0.954059
-0.898206
-0.782384
-0.744507
-0.654156
-0.623909
-0.549661
-0.524632
-0.46268
-0.441756
-0.389847
-0.372322
-0.328863
-0.31423
-0.278061
-0.265978
-0.236395
-0.226737
-0.203769
-0.19682
-0.181956
-0.176291
-0.160306
-0.15462
-0.139672
-0.134491
-0.121245
-0.116707
-0.105261
-0.101374
-0.0916669
-0.0884218
-0.0804681
-0.0779604
-0.0722694
-0.0710441
-0.0700795
-0.0725704
-0.0871821
-0.106542
-0.202279
-0.380331
-0.477785
-0.832968
-1.03744
-1.792
-1.93501
-1.9573
-1.96112
-1.96184
-14.6896
-11.1459
-10.6099
-8.7309
-8.43227
-7.18193
-6.97342
-6.04362
-5.8877
-5.19201
-5.08406
-4.64963
-4.56247
-4.08437
-3.99517
-3.54608
-3.46429
-3.06231
-2.98983
-2.63712
-2.57381
-2.26717
-2.21223
-1.94655
-1.89888
-1.66784
-1.62593
-1.41906
-1.37797
-1.14491
-0.934605
-0.903176
-0.7723
-0.749969
-0.646713
-0.628666
-0.543631
-0.528662
-0.457669
-0.445147
-0.38565
-0.375158
-0.325339
-0.316576
-0.275102
-0.267861
-0.233916
-0.228118
-0.20172
-0.197598
-0.180872
-0.177515
-0.159104
-0.15568
-0.138502
-0.135391
-0.120186
-0.117465
-0.104332
-0.102001
-0.0908609
-0.088911
-0.0797619
-0.0782377
-0.0716013
-0.070774
-0.069187
-0.0701962
-0.0843573
-0.0934143
-0.18899
-0.385507
-0.441695
-0.842169
-0.969808
-1.87539
-1.9635
-1.96454
-1.96285
-1.96231
-15.2737
-10.8002
-10.7382
-8.51625
-8.52531
-7.04359
-7.04838
-5.94216
-5.94377
-5.11359
-5.11661
-4.60725
-4.60972
-4.0376
-4.03736
-3.50098
-3.50115
-3.0215
-3.02183
-2.60114
-2.60151
-2.23584
-2.2362
-1.91946
-1.91986
-1.64463
-1.64549
-1.40047
-1.4041
-1.14129
-0.908019
-0.912147
-0.757894
-0.758688
-0.63588
-0.636121
-0.534815
-0.534948
-0.450333
-0.450429
-0.379504
-0.379578
-0.320182
-0.320239
-0.270782
-0.27082
-0.230318
-0.230329
-0.198786
-0.198884
-0.179257
-0.179345
-0.157306
-0.157292
-0.136772
-0.136775
-0.118629
-0.118639
-0.102972
-0.102981
-0.0896866
-0.0896871
-0.0787493
-0.0787178
-0.0706988
-0.0705318
-0.0681878
-0.0672927
-0.0817331
-0.0768222
-0.171659
-0.39629
-0.391826
-0.862275
-0.871052
-1.99148
-1.99545
-1.97188
-1.96453
-1.96275
-16.0367
-10.2782
-10.9529
-8.21242
-8.67805
-6.84585
-7.16783
-5.79645
-6.03318
-5.0019
-5.16972
-4.54445
-4.68001
-3.968
-4.10104
-3.43448
-3.55725
-2.96152
-3.07071
-2.54836
-2.64388
-2.18991
-2.2729
-1.87972
-1.95191
-1.61042
-1.67492
-1.37198
-1.44092
-1.1365
-0.871961
-0.927475
-0.737306
-0.77237
-0.620143
-0.647654
-0.521956
-0.544639
-0.439621
-0.458565
-0.370529
-0.386388
-0.312656
-0.325891
-0.26449
-0.275407
-0.225106
-0.233809
-0.194591
-0.200964
-0.176857
-0.182063
-0.154629
-0.159728
-0.134222
-0.138888
-0.116348
-0.120442
-0.100984
-0.104492
-0.08798
-0.0908999
-0.077299
-0.0795158
-0.06948
-0.0703743
-0.0671278
-0.0637728
-0.0798793
-0.0562362
-0.149131
-0.416231
-0.322954
-0.900841
-0.727821
-2.15221
-2.02851
-1.97856
-1.96597
-1.96311
-17.0301
-9.49893
-11.3044
-7.7804
-8.92275
-6.56201
-7.35509
-5.58647
-6.17336
-4.8423
-5.2546
-4.45127
-4.78426
-3.86465
-4.19676
-3.33644
-3.64214
-2.8734
-3.1449
-2.47091
-2.70828
-2.12254
-2.32869
-1.8214
-2.00053
-1.56
-1.71908
-1.32863
-1.49271
-1.13015
-0.823125
-0.952653
-0.70773
-0.793564
-0.597234
-0.665333
-0.503178
-0.559453
-0.423965
-0.470993
-0.357409
-0.396792
-0.301661
-0.334538
-0.255313
-0.28245
-0.217539
-0.23921
-0.188577
-0.204267
-0.173289
-0.186091
-0.150655
-0.163391
-0.130468
-0.14209
-0.113002
-0.123187
-0.0980782
-0.106804
-0.0854955
-0.0927727
-0.0752147
-0.0808022
-0.0678219
-0.0703801
-0.0660693
-0.0594713
-0.0796119
-0.030985
-0.11963
-0.45058
-0.227229
-0.969435
-0.520686
-2.37486
-2.0586
-1.98374
-1.96701
-1.96335
-18.3246
-8.34594
-11.8687
-7.1615
-9.30736
-6.15179
-7.64459
-5.28207
-6.39005
-4.61276
-5.38791
-4.31244
-4.93842
-3.71105
-4.34
-3.19159
-3.76983
-2.7435
-3.25675
-2.35684
-2.80545
-2.02335
-2.41287
-1.7355
-2.07381
-1.48547
-1.7851
-1.263
-1.56545
-1.12148
-0.756738
-0.992726
-0.664848
-0.825971
-0.563683
-0.692158
-0.475605
-0.581882
-0.400959
-0.489798
-0.33813
-0.412537
-0.285511
-0.347636
-0.241854
-0.293148
-0.206487
-0.247482
-0.179892
-0.209421
-0.167955
-0.192035
-0.144742
-0.168869
-0.124925
-0.146914
-0.10808
-0.127341
-0.093818
-0.110317
-0.0818696
-0.0956417
-0.0722095
-0.0828369
-0.0655499
-0.0706688
-0.0651126
-0.0541111
-0.0821084
-0.000256706
-0.0804533
-0.507124
-0.0929047
-1.0857
-0.221463
-2.68436
-2.07907
-1.98663
-1.96756
-1.96349
18.3245
8.34594
11.8687
7.16149
9.30736
6.15178
7.64458
5.28205
6.39004
4.61274
5.3879
4.31243
4.93841
3.71103
4.33999
3.19157
3.76982
2.74349
3.25674
2.35683
2.80544
2.02334
2.41286
1.73548
2.0738
1.48546
1.7851
1.26299
1.56544
1.12147
0.756725
0.992722
0.664838
0.825968
0.563674
0.692155
0.475598
0.581881
0.400953
0.489797
0.338125
0.412537
0.285507
0.347636
0.24185
0.293149
0.206484
0.247483
0.17989
0.209422
0.167955
0.192037
0.144742
0.168872
0.124925
0.146917
0.108081
0.127344
0.0938186
0.11032
0.0818705
0.0956448
0.0722105
0.0828402
0.0655509
0.0706724
0.0651128
0.0541158
0.0821058
0.000267524
0.0804502
0.507068
0.0928999
1.08558
0.221438
2.68409
2.07886
1.98643
1.96737
1.96329
17.0302
9.49899
11.3044
7.78044
8.9228
6.56205
7.35513
5.58651
6.1734
4.84233
5.25464
4.4513
4.78429
3.86468
4.1968
3.33647
3.64217
2.87343
3.14493
2.47093
2.70831
2.12256
2.32871
1.82142
2.00055
1.56002
1.7191
1.32865
1.49273
1.13017
0.823133
0.952667
0.707739
0.793576
0.597243
0.665344
0.503185
0.559463
0.423972
0.471002
0.357415
0.3968
0.301666
0.334545
0.255317
0.282456
0.217543
0.239215
0.18858
0.204272
0.173293
0.186096
0.150658
0.163395
0.13047
0.142094
0.113003
0.12319
0.0980791
0.106806
0.0854958
0.0927741
0.0752145
0.080803
0.067821
0.0703804
0.0660671
0.0594714
0.0796065
0.0309868
0.119616
0.450526
0.227202
0.969323
0.520621
2.37461
2.05838
1.98353
1.9668
1.96315
16.0368
10.2783
10.953
8.21251
8.67814
6.84594
7.16792
5.79653
6.03326
5.00197
5.16979
4.54452
4.68008
3.96807
4.10111
3.43454
3.55731
2.96158
3.07077
2.54841
2.64394
2.18996
2.27295
1.87977
1.95195
1.61046
1.67497
1.37202
1.44096
1.13654
0.871989
0.927505
0.737331
0.772396
0.620166
0.647677
0.521976
0.544659
0.439639
0.458583
0.370543
0.386403
0.312669
0.325904
0.264501
0.275418
0.225114
0.233817
0.194598
0.200971
0.176864
0.18207
0.154635
0.159734
0.134227
0.138892
0.11635
0.120445
0.100986
0.104494
0.0879803
0.0909005
0.0772982
0.0795152
0.0694779
0.0703725
0.067124
0.0637697
0.0798717
0.0562315
0.149111
0.416177
0.322911
0.900732
0.72773
2.15198
2.02828
1.97835
1.96575
1.96291
15.2738
10.8004
10.7383
8.51635
8.52542
7.04369
7.04847
5.94226
5.94386
5.11368
5.1167
4.60733
4.6098
4.03768
4.03744
3.50106
3.50123
3.02157
3.0219
2.60121
2.60157
2.2359
2.23626
1.91952
1.91992
1.64469
1.64555
1.40052
1.40415
1.14133
0.908054
0.912182
0.757925
0.758718
0.635908
0.636148
0.534839
0.534972
0.450354
0.45045
0.379522
0.379596
0.320197
0.320254
0.270795
0.270832
0.230329
0.23034
0.198795
0.198893
0.179265
0.179352
0.157312
0.157299
0.136777
0.13678
0.118633
0.118642
0.102974
0.102982
0.0896872
0.0896875
0.0787485
0.0787169
0.0706965
0.0705294
0.0681836
0.0672884
0.0817249
0.076814
0.171636
0.396238
0.391775
0.86217
0.870945
1.99126
1.99523
1.97166
1.96431
1.96254
14.6897
11.146
10.61
8.73101
8.43238
7.18203
6.97352
6.04371
5.88779
5.1921
5.08415
4.64972
4.56255
4.08445
3.99525
3.54616
3.46437
3.06239
2.9899
2.63719
2.57388
2.26723
2.21229
1.94661
1.89894
1.6679
1.62599
1.41911
1.37802
1.14496
0.934643
0.903213
0.772334
0.750002
0.646743
0.628695
0.543657
0.528687
0.457692
0.445169
0.38567
0.375177
0.325355
0.316592
0.275116
0.267874
0.233928
0.228129
0.20173
0.197607
0.180881
0.177523
0.159111
0.155686
0.138508
0.135396
0.12019
0.117468
0.104335
0.102003
0.0908618
0.0889114
0.0797613
0.0782368
0.0715992
0.0707714
0.0691829
0.0701914
0.084349
0.093404
0.188966
0.385457
0.441638
0.842066
0.969691
1.87518
1.96328
1.96432
1.96263
1.9621
14.2475
11.3714
10.5355
8.88251
8.37747
7.27875
6.92747
6.11427
5.85336
5.24707
5.0647
4.67826
4.53099
4.11572
3.9675
3.57661
3.44037
3.09007
2.96916
2.66164
2.55596
2.28853
2.19678
1.96501
1.88534
1.68357
1.61306
1.43109
1.3596
1.1477
0.9541
0.898244
0.78242
0.74454
0.654187
0.623938
0.549688
0.524658
0.462704
0.441778
0.389868
0.372341
0.32888
0.314246
0.278076
0.265991
0.236407
0.226748
0.203779
0.19683
0.181965
0.176299
0.160313
0.154627
0.139678
0.134497
0.121249
0.116711
0.105264
0.101376
0.0916681
0.0884225
0.0804678
0.0779596
0.0722676
0.0710417
0.0700756
0.0725655
0.0871738
0.10653
0.202254
0.380283
0.477725
0.832867
1.03731
1.7918
1.93479
1.95708
1.9609
1.96162
13.9204
11.5152
10.4938
8.98815
8.34636
7.34564
6.89995
6.16279
5.8328
5.28513
5.05347
4.69728
4.5102
4.13636
3.94951
3.59693
3.42497
3.10862
2.95592
2.67806
2.54456
2.30285
2.18691
1.97737
1.87664
1.69403
1.60462
1.43869
1.34682
1.14974
0.968069
0.895696
0.789408
0.741197
0.659245
0.620958
0.553765
0.522119
0.466087
0.43964
0.392702
0.370553
0.331261
0.312771
0.280079
0.264816
0.238096
0.225905
0.205192
0.196374
0.182686
0.175492
0.161107
0.15394
0.14046
0.133922
0.121961
0.116231
0.105891
0.100982
0.0922154
0.088121
0.0809551
0.0778082
0.0727552
0.0712992
0.0708273
0.0744518
0.0898052
0.116597
0.212245
0.378326
0.503498
0.829689
1.08293
1.73286
1.91113
1.95057
1.95929
1.96117
13.6895
11.6038
10.4714
9.05931
8.32968
7.39038
6.88415
6.19508
5.821
5.3106
5.04728
4.7096
4.49692
4.14957
3.93819
3.61006
3.4154
3.12067
2.94773
2.68874
2.53752
2.31217
2.18083
1.98542
1.87126
1.70079
1.59927
1.44335
1.33828
1.15119
0.977691
0.894526
0.794095
0.739223
0.662574
0.619151
0.556436
0.520571
0.468301
0.438333
0.394556
0.369461
0.33282
0.311872
0.281393
0.264105
0.239209
0.225408
0.206134
0.196117
0.183151
0.174976
0.161614
0.153509
0.140966
0.133566
0.122424
0.115936
0.106301
0.100742
0.0925752
0.0879414
0.0812803
0.0777313
0.0730969
0.0715149
0.0714124
0.0758658
0.0919755
0.123906
0.219414
0.378
0.521223
0.829421
1.11267
1.69278
1.89301
1.94527
1.95793
1.96078
13.5421
11.6543
10.4604
9.10322
8.32144
7.41785
6.87572
6.21483
5.81471
5.32624
5.04411
4.71696
4.48909
4.15738
3.9316
3.6179
3.40988
3.1279
2.94303
2.69515
2.53348
2.31776
2.17734
1.99024
1.86817
1.70483
1.59613
1.44601
1.33305
1.15212
0.983723
0.894069
0.796979
0.738139
0.664592
0.618133
0.558049
0.519693
0.469636
0.437592
0.395673
0.368842
0.33376
0.311364
0.282187
0.263706
0.239885
0.225136
0.206711
0.195983
0.183429
0.174671
0.161915
0.153258
0.141269
0.133361
0.122703
0.115768
0.106548
0.100607
0.0927931
0.087842
0.0814796
0.077696
0.0733143
0.071669
0.0718125
0.0768103
0.0935093
0.128668
0.224054
0.378282
0.532343
0.830143
1.13052
1.66789
1.88079
1.94155
1.95696
1.9605
13.4703
11.6771
10.4559
9.12418
8.31813
7.43093
6.8721
6.2242
5.81201
5.33368
5.0428
4.7204
4.48546
4.16101
3.92857
3.62157
3.40735
3.13128
2.94089
2.69816
2.53165
2.32039
2.17576
1.99251
1.86676
1.70672
1.59468
1.44721
1.33057
1.15257
0.986628
0.893931
0.798353
0.737662
0.665543
0.617676
0.558807
0.519297
0.470263
0.437257
0.396199
0.368562
0.334202
0.311135
0.282561
0.263527
0.240204
0.225017
0.206985
0.195926
0.183558
0.17453
0.162054
0.153142
0.141411
0.133268
0.122833
0.115692
0.106664
0.100546
0.0928959
0.0877981
0.0815744
0.0776831
0.0734203
0.0717491
0.0720156
0.0772837
0.0943012
0.131017
0.226336
0.378565
0.537707
0.830755
1.13889
1.65596
1.87465
1.93964
1.95645
1.96035
-13.5366
-11.8583
-10.8026
-9.79941
-9.26087
-8.76375
-8.48952
-8.22256
-8.07458
-7.92869
-7.82822
-7.69534
-7.60175
-7.47979
-7.39467
-7.28468
-7.20812
-7.10941
-7.04085
-6.95269
-6.89165
-6.81344
-6.75948
-6.69057
-6.64307
-6.58235
-6.53983
-6.48389
-6.43992
-6.37328
-6.31176
-6.27781
-6.24345
-6.22192
-6.19674
-6.18023
-6.16019
-6.14687
-6.13055
-6.11967
-6.10628
-6.09736
-6.0864
-6.07912
-6.07024
-6.06441
-6.0574
-6.05293
-6.04775
-6.04467
-6.04138
-6.03912
-6.0362
-6.03432
-6.03217
-6.03101
-6.03004
-6.0299
-6.03055
-6.03184
-6.0348
-6.03825
-6.04486
-6.05192
-6.06495
-6.079
-6.10549
-6.13684
-6.20117
-6.29472
-6.50611
-6.79939
-7.06151
-7.49784
-7.91444
-8.57712
-8.85613
-8.93893
-8.96036
-8.96534
-13.6038
-11.8334
-10.8005
-9.78084
-9.25922
-8.75484
-8.48924
-8.21781
-8.07451
-7.92688
-7.82952
-7.69378
-7.60289
-7.47833
-7.39568
-7.28335
-7.20901
-7.10821
-7.04165
-6.95161
-6.89235
-6.81247
-6.76008
-6.68972
-6.6436
-6.58163
-6.54037
-6.48341
-6.44083
-6.37308
-6.31066
-6.27783
-6.24294
-6.22207
-6.1964
-6.18037
-6.15992
-6.147
-6.13033
-6.11977
-6.1061
-6.09744
-6.08625
-6.07919
-6.07012
-6.06446
-6.0573
-6.05295
-6.04767
-6.04468
-6.04134
-6.03914
-6.03615
-6.03433
-6.03213
-6.03101
-6.03001
-6.02987
-6.03052
-6.03177
-6.03478
-6.03813
-6.04484
-6.05168
-6.06491
-6.07851
-6.1053
-6.13552
-6.2
-6.29
-6.50284
-6.80064
-7.05454
-7.49863
-7.90459
-8.59247
-8.86398
-8.94139
-8.96102
-8.96554
-13.7417
-11.7791
-10.798
-9.74236
-9.25691
-8.73641
-8.48921
-8.20795
-8.07462
-7.92308
-7.83237
-7.69043
-7.60539
-7.47519
-7.39787
-7.28051
-7.21097
-7.10565
-7.04338
-6.94931
-6.89387
-6.81042
-6.76141
-6.6879
-6.64477
-6.58008
-6.54154
-6.48237
-6.44275
-6.37267
-6.30838
-6.27794
-6.24187
-6.22241
-6.19567
-6.18069
-6.15935
-6.14727
-6.12987
-6.12
-6.10573
-6.09763
-6.08594
-6.07934
-6.06986
-6.06457
-6.05709
-6.05302
-6.0475
-6.04471
-6.04125
-6.03921
-6.03607
-6.03436
-6.03205
-6.031
-6.02994
-6.02981
-6.03047
-6.03163
-6.03475
-6.03786
-6.04482
-6.05119
-6.06486
-6.07748
-6.10497
-6.13283
-6.19781
-6.28037
-6.49616
-6.80364
-7.03996
-7.50094
-7.88347
-8.62447
-8.87959
-8.94615
-8.96228
-8.96592
-13.9583
-11.6854
-10.7984
-9.68109
-9.25601
-8.70705
-8.49055
-8.19218
-8.07547
-7.91685
-7.83728
-7.68482
-7.6097
-7.46995
-7.40168
-7.27576
-7.21437
-7.10137
-7.0464
-6.94546
-6.89652
-6.80699
-6.76372
-6.68488
-6.64681
-6.57749
-6.54354
-6.48054
-6.44589
-6.37203
-6.30475
-6.27827
-6.24013
-6.22305
-6.19447
-6.18127
-6.15842
-6.14776
-6.12912
-6.1204
-6.10511
-6.09796
-6.08543
-6.0796
-6.06944
-6.06477
-6.05674
-6.05315
-6.04722
-6.04476
-6.04111
-6.03931
-6.03593
-6.03441
-6.03192
-6.03099
-6.02984
-6.02972
-6.0304
-6.03142
-6.03472
-6.03745
-6.04482
-6.0504
-6.06484
-6.07586
-6.10462
-6.12866
-6.19491
-6.26542
-6.48582
-6.80948
-7.0164
-7.5064
-7.84801
-8.67591
-8.90274
-8.95294
-8.96404
-8.96645
-14.2657
-11.5364
-10.808
-9.59216
-9.26008
-8.66441
-8.49518
-8.16916
-8.07801
-7.90747
-7.84512
-7.67613
-7.61661
-7.46186
-7.4078
-7.26844
-7.21984
-7.09478
-7.05126
-6.93955
-6.9008
-6.80171
-6.76746
-6.68022
-6.65011
-6.57349
-6.54671
-6.47759
-6.45061
-6.37113
-6.29948
-6.27907
-6.23756
-6.22415
-6.19266
-6.18224
-6.15699
-6.14857
-6.12797
-6.12107
-6.10416
-6.09851
-6.08465
-6.08004
-6.0688
-6.06511
-6.05622
-6.05338
-6.0468
-6.04486
-6.0409
-6.03948
-6.03571
-6.03451
-6.03173
-6.03099
-6.0297
-6.0296
-6.03032
-6.03112
-6.03471
-6.03685
-6.0449
-6.04926
-6.06497
-6.07353
-6.10446
-6.1228
-6.19185
-6.24446
-6.47135
-6.82
-6.98152
-7.51778
-7.7931
-8.75138
-8.93296
-8.96128
-8.96615
-8.96707
-14.6823
-11.3074
-10.8372
-9.46789
-9.27472
-8.60472
-8.5061
-8.13676
-8.08373
-7.89377
-7.85723
-7.66306
-7.62733
-7.44976
-7.41735
-7.25749
-7.22837
-7.08493
-7.05885
-6.93072
-6.9075
-6.79385
-6.77333
-6.67329
-6.65527
-6.56751
-6.55158
-6.47295
-6.45743
-6.36992
-6.29217
-6.28071
-6.23387
-6.22597
-6.19001
-6.1838
-6.1549
-6.14987
-6.12627
-6.12214
-6.10277
-6.09939
-6.08351
-6.08075
-6.06787
-6.06565
-6.05546
-6.05376
-6.0462
-6.04505
-6.04059
-6.03975
-6.03539
-6.03467
-6.03146
-6.03101
-6.02951
-6.02944
-6.03024
-6.0307
-6.03476
-6.03601
-6.04512
-6.04766
-6.06537
-6.0703
-6.1048
-6.11491
-6.18944
-6.21654
-6.45201
-6.838
-6.93164
-7.53961
-7.71087
-8.85793
-8.96931
-8.97057
-8.96841
-8.96773
-15.234
-10.9622
-10.9023
-9.29659
-9.30844
-8.5222
-8.52785
-8.09172
-8.09494
-7.87394
-7.87566
-7.64367
-7.64374
-7.43185
-7.432
-7.24133
-7.24149
-7.0704
-7.07054
-6.9177
-6.91783
-6.78227
-6.78238
-6.66309
-6.66322
-6.55865
-6.55896
-6.4658
-6.46713
-6.36832
-6.28222
-6.28378
-6.22861
-6.22892
-6.18617
-6.18627
-6.15186
-6.15191
-6.12379
-6.12383
-6.10074
-6.10077
-6.08184
-6.08186
-6.0665
-6.06652
-6.05436
-6.05437
-6.04534
-6.04537
-6.04014
-6.04016
-6.03493
-6.03492
-6.03109
-6.03108
-6.02926
-6.02925
-6.03017
-6.03014
-6.03492
-6.03486
-6.0456
-6.04546
-6.06629
-6.0659
-6.10612
-6.10444
-6.18892
-6.18028
-6.42665
-6.8677
-6.86119
-7.5789
-7.58961
-9.0059
-9.01007
-8.97999
-8.97062
-8.96836
-15.9566
-10.4486
-11.0293
-9.06061
-9.3741
-8.40801
-8.56729
-8.02911
-8.11514
-7.84522
-7.90345
-7.615
-7.66864
-7.40547
-7.45429
-7.21754
-7.26146
-7.04902
-7.08835
-6.89857
-6.93359
-6.76526
-6.79622
-6.64811
-6.67537
-6.5456
-6.57008
-6.45487
-6.48084
-6.36622
-6.26876
-6.28911
-6.22115
-6.23359
-6.18062
-6.19012
-6.14744
-6.15508
-6.12019
-6.12644
-6.09779
-6.10291
-6.07942
-6.0836
-6.06453
-6.06787
-6.05278
-6.05534
-6.04413
-6.0459
-6.03948
-6.04078
-6.03427
-6.03534
-6.03055
-6.03121
-6.02895
-6.02902
-6.03014
-6.02939
-6.03528
-6.03328
-6.04652
-6.04242
-6.06806
-6.05986
-6.10912
-6.09053
-6.19214
-6.13382
-6.39349
-6.9153
-6.76177
-7.64648
-7.41212
-9.21036
-9.05219
-8.98858
-8.97254
-8.9689
-16.8995
-9.69146
-11.2583
-8.73336
-9.49096
-8.24883
-8.63465
-7.94155
-8.14958
-7.80338
-7.94511
-7.57266
-7.70621
-7.36662
-7.48801
-7.18253
-7.29169
-7.01759
-7.11533
-6.87046
-6.95748
-6.74029
-6.81722
-6.62612
-6.69381
-6.52639
-6.5868
-6.43829
-6.50017
-6.36343
-6.25058
-6.29798
-6.21047
-6.24088
-6.17258
-6.19606
-6.141
-6.15996
-6.11495
-6.13045
-6.09349
-6.1062
-6.07589
-6.08626
-6.06166
-6.06997
-6.05049
-6.05687
-6.04239
-6.04677
-6.03851
-6.04171
-6.0333
-6.03598
-6.02981
-6.03147
-6.02854
-6.02875
-6.03018
-6.02837
-6.03595
-6.03109
-6.04813
-6.03819
-6.07119
-6.05153
-6.11483
-6.07181
-6.20175
-6.07464
-6.34986
-6.98991
-6.62082
-7.75881
-7.15333
-9.49308
-9.09053
-8.99527
-8.97396
-8.96929
-18.1306
-8.58323
-11.6509
-8.27474
-9.68775
-8.02447
-8.74511
-7.8179
-8.20615
-7.74199
-8.0073
-7.51004
-7.76268
-7.3093
-7.53877
-7.13091
-7.33723
-6.97125
-7.15599
-6.82905
-6.99353
-6.70354
-6.84893
-6.59376
-6.72163
-6.49805
-6.61185
-6.41329
-6.52744
-6.35967
-6.22599
-6.31224
-6.19506
-6.25212
-6.16085
-6.20514
-6.1316
-6.16738
-6.10728
-6.13655
-6.08719
-6.1112
-6.07073
-6.09031
-6.05747
-6.07317
-6.04716
-6.05923
-6.0399
-6.04813
-6.03707
-6.04311
-6.03188
-6.03698
-6.02874
-6.03191
-6.028
-6.02843
-6.03035
-6.02697
-6.03712
-6.02802
-6.05082
-6.03225
-6.07641
-6.03988
-6.1248
-6.04616
-6.22164
-5.99937
-6.29163
-7.10488
-6.41959
-7.94089
-6.77674
-9.88548
-9.11659
-8.999
-8.97473
-8.9695
)
;

boundaryField
{
    F1_1
    {
        type            calculated;
        value           nonuniform List<scalar> 
80
(
18.8283
7.91902
11.8971
7.9925
9.80984
7.86295
8.81304
7.67921
8.24306
7.52055
7.86524
7.46046
7.72371
7.2623
7.52864
7.08913
7.33939
6.93477
7.16357
6.79732
7.00325
6.67603
6.85915
6.56999
6.7316
6.47755
6.6216
6.3954
6.5391
6.35499
6.21054
6.31876
6.1848
6.25719
6.15296
6.20927
6.12528
6.1708
6.10213
6.13939
6.08298
6.11354
6.06729
6.09222
6.05467
6.07467
6.04494
6.06032
6.03822
6.04869
6.03603
6.0437
6.03088
6.03739
6.02799
6.03201
6.0276
6.02813
6.0304
6.02606
6.0378
6.02615
6.05245
6.0287
6.07963
6.03302
6.13104
6.03125
6.2347
5.95719
6.25821
7.17441
6.30106
8.05308
6.55354
10.1137
9.12517
8.99995
8.97488
8.96951
)
;
    }
    F1_2
    {
        type            calculated;
        value           nonuniform List<scalar> 
80
(
-19.0572
-7.65882
-12.2156
-6.79651
-9.54179
-5.90904
-7.82004
-5.10172
-6.52135
-4.4772
-5.46915
-4.2293
-5.03033
-3.61919
-4.42579
-3.10515
-3.84645
-2.66605
-3.32391
-2.28885
-2.86382
-1.96423
-2.46343
-1.68428
-2.1178
-1.44098
-1.82463
-1.22348
-1.60792
-1.11644
-0.718449
-1.01723
-0.639423
-0.845522
-0.543718
-0.708297
-0.459182
-0.595367
-0.387252