/*--------------------------------*- C++ -*----------------------------------*\
| =========                 |                                                 |
| \\      /  F ield         | OpenFOAM: The Open Source CFD Toolbox           |
|  \\    /   O peration     | Version:  5.x                                   |
|   \\  /    A nd           | Web:      www.OpenFOAM.org                      |
|    \\/     M anipulation  |                                                 |
\*---------------------------------------------------------------------------*/
FoamFile
{
    version     2.0;
    format      ascii;
    class       volScalarField;
    location    "2.6";
    object      gradTx;
}
// * * * * * * * * * * * * * * * * * * * * * * * * * * * * * * * * * * * * * //

dimensions      [0 -1 0 1 0 0 0];

internalField   nonuniform List<scalar> 
3200
(
45.3753
3.68844
1.63507
1.52703
0.805292
0.76193
0.459122
0.43981
0.287943
0.276985
0.167093
0.163021
0.176722
0.176877
0.169559
0.168755
0.156516
0.155443
0.14184
0.140696
0.126829
0.125689
0.112179
0.111103
0.0987337
0.0978553
0.0887245
0.0887071
0.0934009
0.161765
0.0809605
0.0542268
0.0524354
0.040974
0.0401695
0.0328197
0.0322805
0.0267841
0.0263711
0.0219878
0.0216532
0.0180251
0.0177437
0.0146336
0.0143868
0.0115893
0.0113579
0.00861997
0.00837466
0.00516984
0.00503028
0.0049018
0.00484309
0.00363909
0.00351504
0.00173951
0.00156492
-0.00083662
-0.00108036
-0.0044954
-0.00486084
-0.0101442
-0.0107489
-0.0197938
-0.0209366
-0.0387024
-0.0413614
-0.0843309
-0.0932173
-0.238457
-0.616072
-0.435158
-0.679798
-0.711107
-1.26574
-1.24019
-0.0556871
-0.00751473
-0.00152237
-52.9625
48.0421
3.08541
1.5646
1.34285
0.765202
0.672627
0.429407
0.388114
0.266441
0.24316
0.156851
0.148157
0.157448
0.157669
0.151982
0.150288
0.140633
0.138362
0.127596
0.125172
0.114191
0.111775
0.101078
0.0988003
0.0890301
0.0871847
0.0801447
0.0802686
0.0868125
0.134876
0.0751752
0.050655
0.0466651
0.0373642
0.0356388
0.0297788
0.0286318
0.024266
0.0233889
0.0199107
0.0192005
0.0163222
0.015725
0.0132577
0.0127339
0.0105136
0.0100223
0.00784808
0.00733024
0.00482762
0.00453111
0.00438489
0.00425737
0.00330679
0.00304391
0.00163613
0.00126545
-0.000642539
-0.00116059
-0.00387775
-0.00465538
-0.00886694
-0.0101561
-0.0173916
-0.0198391
-0.034166
-0.0399262
-0.0753278
-0.0951694
-0.226811
-0.51669
-0.41385
-0.600465
-0.664926
-1.08289
-1.02939
-0.121608
-0.020857
-0.00437757
-54.7569
50.6922
2.55984
1.44218
1.17291
0.705711
0.589352
0.391618
0.339635
0.241005
0.211858
0.143505
0.132574
0.138537
0.138698
0.134245
0.132139
0.124455
0.121621
0.113019
0.109991
0.101211
0.0981915
0.0896413
0.0867974
0.07901
0.0767223
0.0712788
0.0715738
0.0785639
0.112299
0.0679832
0.0462623
0.0411076
0.0334515
0.0312736
0.0265494
0.0251119
0.0216084
0.0205108
0.0177228
0.0168344
0.0145281
0.0137811
0.011804
0.0111487
0.00936885
0.00875412
0.00701004
0.00636533
0.00439728
0.00402605
0.00386739
0.00370476
0.00294718
0.00261879
0.00149147
0.00102769
-0.000503859
-0.00115268
-0.00333751
-0.0043124
-0.00770638
-0.00932537
-0.0151807
-0.0182663
-0.0299721
-0.0373052
-0.0669469
-0.0926495
-0.208835
-0.433018
-0.380965
-0.526018
-0.604605
-0.918892
-0.852755
-0.155248
-0.0308284
-0.00671765
-56.5511
53.3218
2.09949
1.28582
1.01089
0.632189
0.509335
0.348
0.293023
0.212791
0.182124
0.127863
0.116315
0.119859
0.119911
0.116416
0.114214
0.108084
0.105111
0.0982195
0.0950408
0.0879999
0.08483
0.0779764
0.0749927
0.0687703
0.0663866
0.0621839
0.0626116
0.0692462
0.0928441
0.0598879
0.0412072
0.0356503
0.0293198
0.0270104
0.0231885
0.0216747
0.0188544
0.0177003
0.0154589
0.0145251
0.0126716
0.0118865
0.0102975
0.00960866
0.00817753
0.00753118
0.00612813
0.00545346
0.00390317
0.00351262
0.0033502
0.00317612
0.0025706
0.00222581
0.00132047
0.000832834
-0.000400299
-0.00108314
-0.0028455
-0.0038725
-0.00661668
-0.00832504
-0.0130806
-0.0163486
-0.0259531
-0.0337919
-0.0587236
-0.0865102
-0.186539
-0.360395
-0.340195
-0.45423
-0.534856
-0.770113
-0.701376
-0.165964
-0.0367874
-0.00831392
-58.3452
55.9301
1.69297
1.10792
0.853025
0.548434
0.430858
0.300129
0.247422
0.182595
0.153336
0.110513
0.0994541
0.101321
0.101267
0.0985348
0.0964473
0.0915861
0.088759
0.0832718
0.0802452
0.0746349
0.0716163
0.0661571
0.0633179
0.0583775
0.0561241
0.0529042
0.0534017
0.0592505
0.075652
0.051222
0.0356275
0.0302241
0.0250274
0.0228077
0.0197354
0.0182897
0.0160338
0.0149332
0.0131427
0.0122525
0.0107723
0.0100239
0.00875496
0.00809829
0.00695487
0.00633859
0.00521716
0.00457671
0.00336277
0.00299018
0.00283363
0.00266488
0.00218375
0.00185544
0.00113294
0.000667974
-0.000318581
-0.000970255
-0.00238276
-0.00336377
-0.00556829
-0.0072027
-0.0110399
-0.0141774
-0.0220046
-0.0295947
-0.050386
-0.0774812
-0.161291
-0.295534
-0.294057
-0.383778
-0.458922
-0.633494
-0.568664
-0.160431
-0.0387183
-0.00904364
-60.1389
58.5183
1.32988
0.916821
0.69715
0.457202
0.352909
0.249139
0.202308
0.150977
0.12509
0.0918931
0.082076
0.0828605
0.0827311
0.0806283
0.0787914
0.0750076
0.0725132
0.068226
0.0655532
0.0611665
0.0585006
0.0542334
0.0517274
0.0478776
0.0459006
0.0434762
0.0439781
0.0488331
0.0600938
0.0422031
0.0296403
0.0247899
0.0206161
0.0186392
0.0162173
0.0149371
0.013167
0.0121937
0.0107904
0.0100034
0.00884376
0.00818218
0.00718795
0.00660741
0.00571117
0.00516626
0.00428704
0.00372299
0.0027888
0.00245919
0.00231766
0.00216628
0.00179094
0.00150098
0.000935265
0.000524127
-0.000250115
-0.000826802
-0.00193715
-0.00280599
-0.0045426
-0.00599215
-0.00902707
-0.0118185
-0.0180655
-0.0248695
-0.0417962
-0.0661835
-0.134025
-0.236102
-0.24427
-0.313909
-0.37901
-0.50645
-0.449689
-0.143437
-0.0369677
-0.00888196
-61.9324
61.089
1.00082
0.717985
0.542087
0.360544
0.274941
0.195872
0.157374
0.118342
0.0971376
0.0723383
0.0642743
0.0644367
0.0642741
0.0627115
0.0612137
0.0583778
0.0563394
0.0531159
0.05093
0.0476295
0.0454491
0.0422395
0.0401911
0.037303
0.0356953
0.0339314
0.0343807
0.0381599
0.045702
0.0329714
0.0233449
0.0193287
0.0161169
0.0144886
0.0126535
0.0116042
0.0102683
0.00947141
0.00841348
0.00776929
0.00689526
0.00635374
0.00560439
0.00512918
0.00445345
0.00400735
0.00334436
0.00288413
0.00219073
0.00192076
0.00180218
0.00167675
0.00139483
0.00115767
0.000731528
0.000394927
-0.000189432
-0.000661889
-0.0015011
-0.0022134
-0.0035283
-0.00471811
-0.00702392
-0.00932128
-0.0141041
-0.0197392
-0.032908
-0.0531477
-0.105389
-0.180426
-0.192024
-0.244222
-0.296606
-0.386775
-0.340693
-0.118451
-0.0320818
-0.00788647
-63.7255
63.6454
0.697279
0.514873
0.387251
0.26005
0.196711
0.140983
0.112462
0.0849952
0.0693293
0.0521144
0.0461439
0.0460261
0.0458733
0.0447924
0.0436897
0.0417164
0.0402132
0.0379644
0.0363516
0.034048
0.0324391
0.0301993
0.0286885
0.0266774
0.0254965
0.0242983
0.0246504
0.0273364
0.0321214
0.0236157
0.0168252
0.0138355
0.0115545
0.0103463
0.00905834
0.00828266
0.00734808
0.00675952
0.00601997
0.00554431
0.00493344
0.00453361
0.00400988
0.00365899
0.00318658
0.00285715
0.00239363
0.00205466
0.00157577
0.00137635
0.00128706
0.00119356
0.000997025
0.000822021
0.000524306
0.000275733
-0.000133132
-0.000482219
-0.00107004
-0.00159663
-0.00251894
-0.00339936
-0.00502105
-0.00672462
-0.0101085
-0.0143076
-0.0237369
-0.0388319
-0.0758418
-0.127288
-0.138154
-0.174527
-0.212689
-0.27255
-0.238744
-0.0880307
-0.0247089
-0.00617984
-65.5184
66.1915
0.411435
0.309571
0.232399
0.157003
0.118179
0.085007
0.067509
0.0511762
0.0415833
0.031441
0.0277795
0.0276172
0.0275099
0.0268743
0.0262007
0.0250362
0.024117
0.0227877
0.0218009
0.0204387
0.0194544
0.0181302
0.0172061
0.0160188
0.0152986
0.0146034
0.0148269
0.0164293
0.0190727
0.0141916
0.0101536
0.00831399
0.00694928
0.00620719
0.00544269
0.00496753
0.00441399
0.00405367
0.00361588
0.00332473
0.00296317
0.00271844
0.00240845
0.00219367
0.00191401
0.00171235
0.00143795
0.00123082
0.000949676
0.000827567
0.000772154
0.000714554
0.000598425
0.000491348
0.000315188
0.00016302
-7.91582e-05
-0.000292937
-0.000641373
-0.000963971
-0.00151121
-0.00205092
-0.00301487
-0.00406071
-0.00608035
-0.00866683
-0.0143392
-0.0236394
-0.045717
-0.0757735
-0.0832644
-0.104761
-0.127905
-0.162071
-0.14147
-0.0541147
-0.0155443
-0.00393285
-67.3111
68.7312
0.136
0.103283
0.0774773
0.0524931
0.0394203
0.0284039
0.0225093
0.017088
0.0138594
0.0105086
0.00927535
0.00920611
0.00916766
0.00895787
0.00873144
0.00834642
0.00803724
0.00759732
0.00726538
0.0068145
0.00648335
0.00604507
0.00573425
0.0053416
0.00509969
0.00487185
0.00494836
0.00548057
0.00632507
0.00473388
0.00339411
0.00277354
0.00231915
0.00206902
0.00181548
0.00165553
0.00147216
0.00135091
0.00120592
0.00110795
0.000988222
0.000905876
0.000803222
0.00073095
0.000638332
0.000570474
0.000479597
0.000409962
0.000317244
0.000276149
0.000257371
0.000237927
0.000199502
0.00016348
0.000105152
5.39477e-05
-2.62808e-05
-9.82306e-05
-0.000213704
-0.000322299
-0.000503743
-0.000685486
-0.00100539
-0.00135783
-0.00202947
-0.00290255
-0.00479634
-0.00793576
-0.015273
-0.0251614
-0.0278143
-0.0349288
-0.0426797
-0.0537835
-0.0468674
-0.0182472
-0.00530135
-0.00134906
-69.1037
68.7432
0.149892
0.127662
0.106874
0.0847592
0.0723064
0.0603813
0.0529936
0.0445489
0.0384442
0.0307129
0.0278958
0.0279675
0.027837
0.0269716
0.0260542
0.0245177
0.0233182
0.0216603
0.0204583
0.0188929
0.0177916
0.0163983
0.0154474
0.0142939
0.0136045
0.0129837
0.0132184
0.0147402
0.0171307
0.0129386
0.00943233
0.00781762
0.00664553
0.00599899
0.00533901
0.00491806
0.00442863
0.00410114
0.00370434
0.00343396
0.0031007
0.00287064
0.00258279
0.00237965
0.00211837
0.0019247
0.00166141
0.00145372
0.00117305
0.00107081
0.00107503
0.00106899
0.00103208
0.000993396
0.00092893
0.000878515
0.000808564
0.000757067
0.000688506
0.000637107
0.000566103
0.000505307
0.000407488
0.00029547
6.88908e-05
-0.000281766
-0.00112199
-0.00271029
-0.00662084
-0.0123542
-0.015608
-0.0226168
-0.0300976
-0.0411095
-0.036614
-0.014307
-0.00416104
-0.00105872
-69.8041
66.2273
0.453021
0.382927
0.320674
0.253891
0.216898
0.180962
0.159023
0.133553
0.115398
0.0919422
0.0835719
0.0839105
0.0835405
0.080917
0.0781876
0.0735396
0.069973
0.0649628
0.0613896
0.0566602
0.0533867
0.0491774
0.0463504
0.0428632
0.040811
0.0389171
0.0396038
0.0441862
0.0516557
0.0387885
0.0282215
0.0234353
0.0199157
0.0179976
0.0160076
0.014757
0.0132795
0.0123063
0.011108
0.0103045
0.00929805
0.0086143
0.00774505
0.00714136
0.00635248
0.00577696
0.00498205
0.00436413
0.00351205
0.00320823
0.00322555
0.00320824
0.00309637
0.00298126
0.00278627
0.00263637
0.002425
0.00227192
0.00206487
0.00191214
0.00169794
0.00151744
0.00122307
0.000891024
0.000211668
-0.000825681
-0.00333602
-0.00803794
-0.0197896
-0.0371617
-0.0466737
-0.0678314
-0.0901516
-0.123949
-0.110555
-0.0424344
-0.0122014
-0.00308643
-69.4124
63.704
0.766266
0.63788
0.534656
0.421832
0.361448
0.300984
0.265194
0.222265
0.192564
0.152568
0.1389
0.139882
0.139334
0.134867
0.130398
0.122519
0.116686
0.108208
0.102368
0.0943696
0.0890196
0.0819016
0.0772802
0.0713755
0.0680115
0.0647476
0.0658338
0.0735171
0.0869948
0.0645469
0.0467799
0.0390027
0.0331222
0.0299995
0.0266469
0.0246054
0.0221105
0.0205207
0.0184962
0.0171834
0.0154828
0.0143656
0.0128969
0.0119107
0.0105783
0.00963818
0.0082958
0.00728407
0.00582925
0.00533292
0.00537759
0.00535141
0.00516092
0.00497246
0.00464194
0.00439681
0.00403922
0.00378906
0.00343918
0.00318975
0.00282853
0.00253423
0.00204025
0.00150057
0.000368864
-0.00131058
-0.00546227
-0.0130835
-0.0327333
-0.0622833
-0.0772734
-0.112999
-0.149746
-0.208676
-0.186684
-0.0690463
-0.0193969
-0.0048498
-69.0206
61.1686
1.09665
0.891828
0.749023
0.587676
0.506002
0.42002
0.371651
0.310449
0.270142
0.212142
0.193642
0.195916
0.195286
0.188817
0.182745
0.171416
0.163505
0.151349
0.143432
0.131974
0.124724
0.114527
0.108262
0.0997869
0.0952087
0.0904048
0.0918007
0.102617
0.123772
0.0901192
0.0649395
0.054495
0.046219
0.0420111
0.0372344
0.0344725
0.0309059
0.0287531
0.0258565
0.0240783
0.0216446
0.0201315
0.0180299
0.0166943
0.0147887
0.0135158
0.0115966
0.010222
0.00810836
0.0074362
0.00753268
0.00750139
0.00722562
0.00696958
0.00649443
0.00616197
0.00564937
0.0053104
0.00480967
0.00447202
0.00395664
0.00355919
0.00285945
0.00213397
0.000548144
-0.0016964
-0.00744955
-0.0176476
-0.0452807
-0.087987
-0.107043
-0.158126
-0.208453
-0.296639
-0.266639
-0.0929384
-0.0251883
-0.00618912
-68.6286
58.6169
1.4516
1.1433
0.964134
0.750334
0.65073
0.537551
0.478623
0.397798
0.348428
0.270136
0.247555
0.252066
0.251471
0.242753
0.235304
0.220178
0.210495
0.194321
0.18464
0.169411
0.160547
0.146995
0.139333
0.128043
0.122416
0.115815
0.117392
0.131305
0.162743
0.115354
0.0825109
0.0699015
0.059154
0.0540464
0.0477421
0.0443725
0.0396454
0.0370159
0.0331727
0.0310001
0.0277702
0.0259215
0.0231329
0.0215012
0.0189744
0.0174199
0.0148761
0.0131899
0.0103302
0.00950904
0.00969322
0.00966149
0.00928988
0.0089758
0.00834154
0.00793467
0.00725288
0.00683851
0.00617393
0.00576169
0.0050803
0.0045965
0.00367992
0.00280204
0.00075402
-0.00194163
-0.00925876
-0.0215141
-0.0572247
-0.114636
-0.135531
-0.203282
-0.265645
-0.389328
-0.352341
-0.112592
-0.0290296
-0.00697039
-68.2364
56.0449
1.83906
1.3896
1.18063
0.908427
0.796001
0.652914
0.586472
0.483889
0.427872
0.325903
0.300384
0.308422
0.307983
0.296639
0.288171
0.268724
0.257746
0.237034
0.226071
0.206594
0.196559
0.179229
0.170551
0.156075
0.149663
0.1409
0.142491
0.159294
0.20487
0.140009
0.0992744
0.0852348
0.0718646
0.0661307
0.0581335
0.0543279
0.0483021
0.0453282
0.040423
0.0379651
0.0338415
0.0317499
0.0281903
0.0263447
0.0231219
0.0213641
0.0181219
0.0162053
0.0124708
0.0115421
0.0118628
0.0118356
0.0113523
0.0109953
0.01018
0.00971878
0.0088461
0.00837703
0.00752848
0.00706249
0.00619641
0.00565147
0.00449918
0.00351724
0.000986124
-0.00200167
-0.0108701
-0.0244419
-0.0683001
-0.142745
-0.162144
-0.248653
-0.320384
-0.488444
-0.446153
-0.125998
-0.0304107
-0.00709728
-67.844
53.4498
2.26755
1.62629
1.39966
1.06013
0.942501
0.765213
0.695767
0.568119
0.509156
0.378613
0.351872
0.365117
0.364932
0.350411
0.341478
0.316932
0.305388
0.279359
0.267843
0.243401
0.232864
0.211119
0.202002
0.183785
0.177006
0.165572
0.166984
0.186134
0.251417
0.163701
0.114972
0.100543
0.0842712
0.0783069
0.0683586
0.0643734
0.0568379
0.053719
0.0475765
0.0449978
0.0398325
0.037638
0.0331801
0.0312442
0.0272116
0.0253684
0.0213153
0.019294
0.0144998
0.0135256
0.0140468
0.0140285
0.0134102
0.0130336
0.0120048
0.0115199
0.0104237
0.0099312
0.00886818
0.00837974
0.0073001
0.00673115
0.00531203
0.0042948
0.00123689
-0.00182608
-0.0122928
-0.0261577
-0.0781513
-0.173055
-0.186072
-0.294615
-0.371268
-0.595973
-0.551078
-0.130421
-0.0289008
-0.00652448
-67.4514
50.8301
2.74615
1.8464
1.62321
1.20296
1.09139
0.8732
0.807392
0.649604
0.593305
0.427172
0.401762
0.422352
0.422456
0.403962
0.395412
0.364622
0.353611
0.321105
0.310135
0.279654
0.26962
0.242506
0.233818
0.211039
0.204538
0.189732
0.190769
0.211132
0.304087
0.185837
0.1293
0.115927
0.0962673
0.0906441
0.0783467
0.0745624
0.0651985
0.0622321
0.0545888
0.0521353
0.0457058
0.0436178
0.0380702
0.0362285
0.0312147
0.0294621
0.0244284
0.0224943
0.0163767
0.01545
0.0162531
0.0162461
0.015459
0.0150987
0.0138085
0.013346
0.0119777
0.0115088
0.0101855
0.00972117
0.00838388
0.00784533
0.00610929
0.00515445
0.00148832
-0.00135387
-0.0135791
-0.0263477
-0.0862852
-0.206638
-0.206178
-0.34185
-0.416229
-0.714285
-0.671033
-0.122079
-0.0242249
-0.0052715
-67.0585
48.1868
3.28429
2.03945
1.85464
1.33344
1.24454
0.975093
0.922698
0.72703
0.681848
0.470103
0.449814
0.480407
0.480725
0.457116
0.450237
0.411523
0.402696
0.361992
0.353209
0.315091
0.307061
0.273157
0.266201
0.237645
0.232403
0.21326
0.213784
0.233229
0.365209
0.205507
0.141903
0.131564
0.107704
0.10325
0.087996
0.0849763
0.0733048
0.0709338
0.0613951
0.0594332
0.051407
0.0497373
0.0428133
0.041341
0.0350885
0.0336881
0.0274184
0.0258629
0.0180466
0.0173058
0.0184924
0.0184956
0.0174915
0.0172016
0.0155797
0.0152091
0.0134964
0.0131212
0.011469
0.0110981
0.00943629
0.00900798
0.00687584
0.0061231
0.00170733
-0.000505784
-0.0148431
-0.0246504
-0.0920015
-0.245053
-0.220837
-0.391537
-0.452241
-0.846248
-0.811215
-0.0956914
-0.016393
-0.00343476
-66.6655
45.5243
3.89129
2.19011
2.09953
1.44664
1.40492
1.06831
1.04374
0.798439
0.777056
0.505378
0.495831
0.539675
0.539954
0.509603
0.506338
0.45723
0.453058
0.401604
0.397459
0.349327
0.345539
0.302734
0.29945
0.263321
0.260827
0.236005
0.236044
0.250828
0.438003
0.221337
0.152378
0.147745
0.118366
0.11629
0.097158
0.0957383
0.081041
0.0799242
0.0679
0.0669754
0.0568554
0.0560685
0.0473398
0.0466461
0.0387695
0.0381101
0.0302209
0.0294829
0.0194342
0.0190852
0.0207799
0.0207862
0.0194963
0.0193587
0.0173018
0.0171266
0.0149624
0.0147854
0.012702
0.0125274
0.01044
0.0102394
0.00758785
0.00723889
0.00183884
0.000827883
-0.0162877
-0.0206505
-0.0942887
-0.290557
-0.227698
-0.445621
-0.47492
-0.99537
-0.978616
-0.0438547
-0.00590746
-0.00119413
-66.2725
45.5242
3.89127
2.19011
2.09953
1.44664
1.40493
1.06831
1.04374
0.798444
0.77706
0.50538
0.495834
0.539678
0.539957
0.509607
0.506341
0.457233
0.453062
0.401608
0.397463
0.34933
0.345542
0.302737
0.299453
0.263324
0.26083
0.236008
0.236048
0.250833
0.438013
0.221342
0.152382
0.147748
0.11837
0.116293
0.0971608
0.0957411
0.0810436
0.0799268
0.0679025
0.0669779
0.0568578
0.0560709
0.0473419
0.0466482
0.0387714
0.038112
0.0302223
0.0294843
0.019435
0.019086
0.020781
0.0207873
0.0194976
0.01936
0.0173031
0.0171279
0.0149636
0.0147866
0.0127032
0.0125286
0.0104412
0.0102406
0.00758909
0.00724015
0.0018406
0.000829756
-0.0162837
-0.020646
-0.0942749
-0.290519
-0.227669
-0.445571
-0.474866
-0.995269
-0.978516
-0.0438501
-0.00590681
-0.00119457
-66.2729
48.1867
3.28426
2.03945
1.85464
1.33345
1.24455
0.975098
0.922704
0.727035
0.681852
0.470106
0.449816
0.48041
0.480728
0.457119
0.45024
0.411526
0.402699
0.361995
0.353213
0.315094
0.307064
0.273161
0.266204
0.237649
0.232406
0.213264
0.213788
0.233234
0.365218
0.205513
0.141907
0.131568
0.107707
0.103253
0.0879989
0.0849791
0.0733074
0.0709365
0.0613976
0.0594357
0.0514093
0.0497396
0.0428155
0.0413432
0.0350904
0.03369
0.0274199
0.0258643
0.0180475
0.0173066
0.0184935
0.0184967
0.0174928
0.0172029
0.015581
0.0152104
0.0134976
0.0131224
0.0114702
0.0110993
0.00943745
0.00900913
0.00687705
0.00612436
0.001709
-0.000503867
-0.0148395
-0.0246455
-0.0919882
-0.245021
-0.220809
-0.391492
-0.45219
-0.846161
-0.811132
-0.0956813
-0.0163912
-0.00343462
-66.6659
50.83
2.74612
1.8464
1.62321
1.20296
1.09139
0.873204
0.807397
0.649608
0.593308
0.427174
0.401765
0.422354
0.422458
0.403964
0.395415
0.364625
0.353614
0.321108
0.310138
0.279657
0.269623
0.242509
0.233821
0.211043
0.204541
0.189735
0.190773
0.211136
0.304094
0.185843
0.129304
0.11593
0.0962703
0.0906469
0.0783493
0.074565
0.0652009
0.0622345
0.0545911
0.0521375
0.045708
0.0436199
0.0380722
0.0362305
0.0312165
0.0294638
0.0244298
0.0224956
0.0163776
0.0154508
0.016254
0.0162471
0.0154601
0.0150998
0.0138096
0.0133472
0.0119788
0.0115099
0.0101865
0.00972224
0.00838493
0.00784638
0.00611039
0.00515562
0.00148982
-0.00135205
-0.0135758
-0.0263429
-0.0862729
-0.206611
-0.206152
-0.341811
-0.416182
-0.714212
-0.670965
-0.122066
-0.0242221
-0.00527033
-67.0589
53.4497
2.26751
1.62629
1.39966
1.06013
0.942505
0.765217
0.695771
0.568123
0.50916
0.378615
0.351874
0.36512
0.364934
0.350414
0.341481
0.316935
0.305391
0.279362
0.267846
0.243404
0.232867
0.211122
0.202004
0.183788
0.177009
0.165575
0.166987
0.186138
0.251423
0.163707
0.114976
0.100546
0.0842739
0.0783094
0.0683609
0.0643756
0.05684
0.0537211
0.0475785
0.0449998
0.0398344
0.0376398
0.0331819
0.0312459
0.0272132
0.0253699
0.0213166
0.0192951
0.0145007
0.0135264
0.0140477
0.0140294
0.0134111
0.0130346
0.0120058
0.0115209
0.0104247
0.00993218
0.00886914
0.00838068
0.00730102
0.00673207
0.005313
0.00429583
0.0012382
-0.00182443
-0.0122899
-0.0261531
-0.0781403
-0.173032
-0.186049
-0.294581
-0.371227
-0.595912
-0.551022
-0.130407
-0.0288973
-0.0065224
-67.4516
56.0448
1.83903
1.3896
1.18063
0.908429
0.796004
0.652918
0.586475
0.483892
0.427875
0.325905
0.300386
0.308423
0.307985
0.296641
0.288173
0.268726
0.257749
0.237036
0.226073
0.206596
0.196561
0.179232
0.170553
0.156077
0.149666
0.140902
0.142494
0.159297
0.204875
0.140014
0.0992776
0.0852374
0.0718669
0.0661328
0.0581355
0.0543298
0.0483039
0.04533
0.0404247
0.0379668
0.0338431
0.0317514
0.0281918
0.0263461
0.0231232
0.0213653
0.018123
0.0162063
0.0124716
0.0115427
0.0118635
0.0118364
0.0113531
0.0109961
0.0101808
0.00971963
0.00884694
0.00837786
0.00752928
0.00706328
0.00619719
0.00565225
0.0045
0.00351812
0.000987238
-0.00200023
-0.0108676
-0.0244378
-0.0682906
-0.142726
-0.162124
-0.248625
-0.320348
-0.488394
-0.446107
-0.125985
-0.030407
-0.00709455
-67.8442
58.6168
1.45157
1.14329
0.964134
0.750337
0.650732
0.537554
0.478626
0.3978
0.34843
0.270138
0.247556
0.252068
0.251473
0.242755
0.235306
0.22018
0.210497
0.194323
0.184642
0.169412
0.160549
0.146997
0.139335
0.128045
0.122418
0.115817
0.117394
0.131308
0.162747
0.115358
0.0825136
0.0699036
0.0591559
0.0540481
0.0477437
0.0443741
0.0396469
0.0370173
0.0331741
0.0310015
0.0277715
0.0259227
0.0231341
0.0215024
0.0189755
0.0174209
0.014877
0.0131907
0.0103308
0.00950953
0.00969375
0.00966208
0.00929053
0.00897648
0.00834223
0.00793536
0.00725356
0.00683918
0.00617458
0.00576233
0.00508093
0.00459713
0.00368058
0.00280276
0.00075493
-0.00194043
-0.0092567
-0.0215106
-0.0572169
-0.114621
-0.135515
-0.203259
-0.265616
-0.389288
-0.352304
-0.11258
-0.029026
-0.00696736
-68.2366
61.1686
1.09663
0.891823
0.749023
0.587678
0.506004
0.420022
0.371654
0.310451
0.270143
0.212143
0.193643
0.195917
0.195287
0.188819
0.182747
0.171418
0.163507
0.15135
0.143434
0.131975
0.124725
0.114528
0.108263
0.0997883
0.09521
0.0904062
0.0918021
0.102619
0.123775
0.0901223
0.0649417
0.0544966
0.0462204
0.0420124
0.0372356
0.0344737
0.030907
0.0287542
0.0258575
0.0240794
0.0216456
0.0201324
0.0180309
0.0166952
0.0147896
0.0135166
0.0115973
0.0102226
0.00810885
0.00743657
0.00753308
0.00750184
0.00722611
0.00697009
0.00649496
0.0061625
0.00564989
0.00531091
0.00481017
0.00447251
0.00395712
0.00355967
0.00285995
0.00213453
0.000548845
-0.00169546
-0.00744795
-0.0176449
-0.0452746
-0.0879756
-0.10703
-0.158108
-0.20843
-0.296608
-0.266611
-0.0929283
-0.0251851
-0.00618613
-68.6287
63.704
0.766247
0.637877
0.534656
0.421833
0.36145
0.300986
0.265196
0.222267
0.192565
0.152569
0.138901
0.139883
0.139335
0.134868
0.130399
0.12252
0.116687
0.108209
0.102369
0.0943705
0.0890206
0.0819025
0.0772811
0.0713765
0.0680124
0.0647485
0.0658347
0.0735182
0.0869968
0.0645491
0.0467814
0.0390039
0.0331232
0.0300004
0.0266478
0.0246062
0.0221113
0.0205215
0.018497
0.0171841
0.0154835
0.0143663
0.0128976
0.0119113
0.0105789
0.00963874
0.00829629
0.00728452
0.0058296
0.00533318
0.00537786
0.00535172
0.00516126
0.00497282
0.00464231
0.00439718
0.00403958
0.00378942
0.00343952
0.00319009
0.00282887
0.00253456
0.00204061
0.00150096
0.000369358
-0.00130991
-0.00546113
-0.0130815
-0.0327289
-0.0622753
-0.0772639
-0.112986
-0.14973
-0.208654
-0.186664
-0.0690387
-0.0193944
-0.0048472
-69.0207
66.2273
0.453008
0.382925
0.320674
0.253892
0.216899
0.180963
0.159024
0.133554
0.115398
0.0919427
0.0835723
0.083911
0.0835409
0.0809174
0.0781881
0.0735401
0.0699735
0.0649633
0.0613902
0.0566607
0.0533873
0.0491779
0.0463509
0.0428637
0.0408115
0.0389176
0.0396043
0.0441867
0.0516569
0.0387898
0.0282224
0.023436
0.0199163
0.0179981
0.0160081
0.0147575
0.01328
0.0123067
0.0111085
0.0103049
0.00929845
0.00861469
0.00774543
0.00714173
0.00635282
0.00577728
0.00498234
0.00436439
0.00351225
0.00320837
0.0032257
0.00320842
0.00309656
0.00298147
0.00278648
0.00263658
0.0024252
0.00227213
0.00206507
0.00191234
0.00169813
0.00151763
0.00122327
0.000891252
0.000211958
-0.000825285
-0.00333534
-0.00803674
-0.019787
-0.0371569
-0.046668
-0.0678237
-0.0901418
-0.123936
-0.110543
-0.0424298
-0.0121997
-0.0030846
-69.4125
68.7432
0.149888
0.127661
0.106874
0.0847594
0.0723067
0.0603816
0.0529939
0.0445492
0.0384444
0.0307131
0.0278959
0.0279676
0.0278371
0.0269717
0.0260544
0.0245178
0.0233183
0.0216605
0.0204585
0.018893
0.0177918
0.0163985
0.0154475
0.014294
0.0136047
0.0129839
0.0132185
0.0147404
0.0171311
0.012939
0.00943263
0.00781784
0.00664572
0.00599915
0.00533917
0.00491821
0.00442877
0.00410127
0.00370447
0.00343409
0.00310082
0.00287076
0.00258291
0.00237977
0.00211848
0.0019248
0.0016615
0.0014538
0.00117311
0.00107086
0.00107508
0.00106904
0.00103214
0.00099346
0.000928996
0.000878581
0.00080863
0.000757133
0.00068857
0.000637169
0.000566165
0.000505369
0.000407554
0.000295543
6.89841e-05
-0.000281637
-0.00112177
-0.0027099
-0.00661999
-0.0123526
-0.0156061
-0.0226142
-0.0300944
-0.0411053
-0.0366102
-0.0143054
-0.00416048
-0.00105803
-69.8042
68.7308
0.13584
0.103013
0.0770952
0.0519017
0.0385857
0.0271106
0.0207503
0.0147296
0.0123354
0.0116705
0.0113217
0.0107787
0.0103519
0.00975731
0.00932651
0.0087651
0.00836192
0.00783738
0.00745884
0.00696393
0.00660777
0.00614484
0.00581966
0.00541244
0.00516216
0.00492626
0.00500001
0.00553352
0.00638338
0.00477596
0.00342283
0.00279611
0.00233728
0.00208475
0.00182885
0.00166745
0.00148247
0.00136018
0.00121398
0.00111522
0.000994557
0.000911594
0.000808203
0.000735435
0.000642211
0.00057393
0.000482509
0.000412468
0.000319227
0.000277934
0.000259133
0.000239658
0.000201145
0.000165039
0.000106581
5.52755e-05
-2.50898e-05
-9.7139e-05
-0.000212741
-0.000321428
-0.00050299
-0.000684815
-0.00100483
-0.00135734
-0.00202908
-0.00290223
-0.00479611
-0.00793559
-0.0152729
-0.0251614
-0.0278144
-0.0349289
-0.0426799
-0.0537838
-0.0468677
-0.0182473
-0.00530138
-0.00134908
-69.1037
66.1902
0.410956
0.308764
0.231257
0.15523
0.115684
0.0811272
0.0622374
0.0440439
0.036937
0.0349989
0.0339728
0.0323315
0.0310624
0.0292654
0.0279848
0.026289
0.0250906
0.0235063
0.0223812
0.0208863
0.0198276
0.018429
0.0174623
0.0162311
0.0154859
0.0147664
0.0149817
0.016588
0.0192485
0.0143177
0.0102395
0.00838164
0.00700359
0.00625439
0.00548278
0.00500331
0.00444489
0.00408148
0.00364004
0.00334654
0.00298216
0.0027356
0.00242338
0.00220712
0.00192564
0.00172272
0.00144668
0.00123834
0.00095561
0.00083291
0.000777437
0.000719746
0.000603349
0.000496024
0.000319469
0.000167002
-7.55898e-05
-0.000289663
-0.000638489
-0.00096136
-0.00150895
-0.00204891
-0.00301318
-0.00405924
-0.00607916
-0.00866585
-0.0143385
-0.0236389
-0.0457168
-0.0757735
-0.0832647
-0.104761
-0.127905
-0.162072
-0.141471
-0.054115
-0.0155444
-0.0039329
-67.3111
63.6434
0.696483
0.513528
0.38536
0.2571
0.192582
0.134517
0.103697
0.0729149
0.061332
0.0582909
0.0566486
0.0538696
0.0517942
0.048753
0.0466598
0.0437931
0.0418349
0.039157
0.0373184
0.0347912
0.0330611
0.030696
0.0291156
0.0270304
0.0258087
0.0245693
0.0249078
0.0276003
0.0324174
0.0238255
0.0169673
0.013948
0.0116448
0.010425
0.00912504
0.00834232
0.00739951
0.0068059
0.00606018
0.00558068
0.00496505
0.00456223
0.00403473
0.00368143
0.00320594
0.00287445
0.00240815
0.00206721
0.00158561
0.00138522
0.00129586
0.00120221
0.00100523
0.000829816
0.000531432
0.000282371
-0.000127194
-0.000476762
-0.00106524
-0.00159227
-0.00251519
-0.00339601
-0.00501824
-0.00672216
-0.0101066
-0.014306
-0.0237357
-0.038831
-0.0758414
-0.127288
-0.138155
-0.174528
-0.21269
-0.272551
-0.238745
-0.0880312
-0.0247091
-0.00617992
-65.5184
61.0861
0.999712
0.716102
0.539468
0.356421
0.269224
0.186819
0.145155
0.101018
0.0853857
0.0815272
0.0793702
0.0753798
0.0725648
0.0682028
0.0653659
0.061261
0.058608
0.0547742
0.0522834
0.0486645
0.0463202
0.0429318
0.0407892
0.0377953
0.0361324
0.0343092
0.03474
0.0385279
0.0461228
0.0332641
0.0235418
0.0194859
0.0162427
0.0145988
0.0127466
0.0116878
0.0103402
0.0095364
0.00846966
0.00782026
0.00693942
0.00639384
0.00563911
0.00516063
0.00448049
0.0040316
0.00336465
0.00290173
0.00220441
0.00193313
0.0018145
0.00168887
0.00140631
0.00116859
0.000741489
0.000404226
-0.000181133
-0.000654243
-0.0014944
-0.0022073
-0.00352306
-0.0047134
-0.00701999
-0.00931784
-0.0141013
-0.0197369
-0.0329064
-0.0531465
-0.105389
-0.180426
-0.192025
-0.244223
-0.296607
-0.386777
-0.340695
-0.118452
-0.032082
-0.00788657
-63.7255
58.5146
1.32846
0.914399
0.693834
0.451909
0.345674
0.237491
0.186713
0.127982
0.108969
0.104696
0.102166
0.0968433
0.0933975
0.087592
0.0841229
0.0786711
0.0754287
0.0703379
0.0672936
0.0624869
0.0596212
0.0551179
0.0524971
0.0485071
0.0464628
0.0439592
0.0444381
0.0493035
0.0606467
0.0425776
0.0298898
0.0249913
0.0207767
0.0187809
0.0163365
0.0150447
0.0132591
0.0122774
0.0108624
0.0100691
0.00890036
0.00823381
0.00723244
0.00664791
0.00574582
0.0051975
0.00431303
0.00374569
0.00280621
0.002475
0.0023335
0.0021819
0.00180568
0.00151504
0.000948049
0.000536101
-0.00023947
-0.000816954
-0.00192856
-0.00279813
-0.00453588
-0.00598609
-0.00902204
-0.011814
-0.018062
-0.0248665
-0.0417941
-0.066182
-0.134024
-0.236102
-0.24427
-0.31391
-0.379012
-0.506453
-0.449692
-0.143437
-0.036968
-0.00888206
-61.9323
55.9256
1.69125
1.10496
0.849056
0.541971
0.422204
0.285868
0.22859
0.153358
0.131963
0.127795
0.125073
0.118232
0.114325
0.106888
0.10296
0.0959931
0.0923235
0.08582
0.0823746
0.076232
0.072988
0.0672291
0.0642601
0.0591414
0.0568118
0.0534901
0.053961
0.0598204
0.0763476
0.051676
0.0359264
0.0304695
0.0252221
0.0229811
0.0198804
0.0184215
0.0161458
0.0150357
0.0132303
0.0123329
0.0108412
0.0100872
0.0088091
0.00814792
0.00699704
0.0063769
0.00524879
0.0046046
0.00338376
0.00300936
0.00285299
0.00268401
0.00220175
0.00187267
0.00114853
0.000682645
-0.000305611
-0.000958186
-0.00237229
-0.00335414
-0.00556011
-0.00719526
-0.0110338
-0.0141719
-0.0220003
-0.029591
-0.0503834
-0.0774792
-0.16129
-0.295534
-0.294057
-0.38378
-0.458924
-0.633497
-0.568668
-0.160432
-0.0387186
-0.00904373
-60.1388
53.3167
2.09749
1.28231
1.00633
0.624542
0.499399
0.331083
0.271186
0.176581
0.154268
0.150838
0.148146
0.139504
0.135394
0.126044