/*--------------------------------*- C++ -*----------------------------------*\
| =========                 |                                                 |
| \\      /  F ield         | OpenFOAM: The Open Source CFD Toolbox           |
|  \\    /   O peration     | Version:  5.x                                   |
|   \\  /    A nd           | Web:      www.OpenFOAM.org                      |
|    \\/     M anipulation  |                                                 |
\*---------------------------------------------------------------------------*/
FoamFile
{
    version     2.0;
    format      ascii;
    class       volScalarField;
    location    "2.3";
    object      T;
}
// * * * * * * * * * * * * * * * * * * * * * * * * * * * * * * * * * * * * * //

dimensions      [0 0 0 1 0 0 0];

internalField   nonuniform List<scalar> 
2048
(
9.8102
9.81039
9.81078
9.81135
9.81208
9.81297
9.81398
9.81509
9.8163
9.81758
9.8189
9.82027
9.82166
9.82306
9.82446
9.82585
9.82722
9.82857
9.82989
9.83118
9.83243
9.83364
9.83481
9.83594
9.83702
9.83805
9.83904
9.83998
9.84086
9.84169
9.84245
9.84315
9.84378
9.84433
9.8448
9.84517
9.84545
9.84562
9.84567
9.8456
9.8454
9.84505
9.84456
9.8439
9.84307
9.84208
9.84091
9.83957
9.83805
9.83638
9.83457
9.83264
9.83063
9.82856
9.82649
9.82446
9.82251
9.8207
9.81907
9.81766
9.81649
9.81559
9.81499
9.81468
9.43873
9.43931
9.44047
9.44216
9.44435
9.44697
9.44997
9.45329
9.45688
9.46066
9.4646
9.46865
9.47276
9.47691
9.48106
9.48518
9.48924
9.49324
9.49714
9.50095
9.50465
9.50823
9.51169
9.51502
9.51822
9.52129
9.52421
9.52698
9.52959
9.53203
9.5343
9.53637
9.53823
9.53986
9.54125
9.54237
9.5432
9.54371
9.54388
9.54368
9.54308
9.54206
9.5406
9.53866
9.53623
9.53329
9.52983
9.52585
9.52138
9.51643
9.51105
9.50532
9.49933
9.49319
9.48703
9.48098
9.47519
9.4698
9.46495
9.46074
9.45727
9.4546
9.4528
9.45189
9.08306
9.08403
9.08595
9.08875
9.09236
9.0967
9.10165
9.10712
9.11302
9.11924
9.12571
9.13235
9.13911
9.1459
9.1527
9.15944
9.1661
9.17263
9.17902
9.18525
9.19129
9.19714
9.2028
9.20824
9.21347
9.21848
9.22325
9.22778
9.23206
9.23606
9.23976
9.24316
9.24621
9.2489
9.25118
9.25303
9.2544
9.25526
9.25556
9.25525
9.2543
9.25266
9.25029
9.24714
9.24319
9.23839
9.23274
9.22624
9.21891
9.21078
9.20195
9.19252
9.18264
9.1725
9.16232
9.15232
9.14275
9.13385
9.12583
9.11888
9.11314
9.10875
9.10578
9.10428
8.74227
8.74363
8.74631
8.75023
8.75527
8.76131
8.7682
8.7758
8.78396
8.79258
8.80152
8.81069
8.82001
8.82937
8.83873
8.84801
8.85717
8.86615
8.87493
8.88348
8.89177
8.8998
8.90756
8.91503
8.9222
8.92908
8.93563
8.94185
8.94773
8.95323
8.95833
8.96301
8.96723
8.97094
8.97411
8.97668
8.9786
8.97981
8.98026
8.97989
8.97864
8.97643
8.97322
8.96894
8.96354
8.95699
8.94924
8.94031
8.93021
8.919
8.90678
8.8937
8.87998
8.86588
8.85168
8.83774
8.82439
8.81198
8.8008
8.79112
8.78315
8.77704
8.77292
8.77084
8.41553
8.41729
8.42075
8.42581
8.4323
8.44006
8.44889
8.4586
8.46902
8.47999
8.49137
8.50301
8.51483
8.5267
8.53854
8.55029
8.56186
8.5732
8.58428
8.59506
8.60552
8.61564
8.62541
8.63482
8.64387
8.65253
8.6608
8.66865
8.67607
8.68302
8.68948
8.69541
8.70076
8.70548
8.70952
8.71282
8.7153
8.7169
8.71753
8.71714
8.71562
8.71291
8.70893
8.70361
8.69686
8.68864
8.6789
8.66762
8.65484
8.64061
8.62506
8.60837
8.59081
8.57271
8.55448
8.53654
8.51937
8.5034
8.48904
8.47661
8.4664
8.45859
8.45332
8.45066
8.10205
8.10423
8.10851
8.11474
8.12272
8.13223
8.14302
8.15487
8.16754
8.18085
8.19462
8.2087
8.22296
8.23727
8.25155
8.26568
8.27959
8.29322
8.30652
8.31945
8.33198
8.3441
8.35581
8.36709
8.37792
8.38831
8.39823
8.40765
8.41656
8.42492
8.43269
8.43984
8.44631
8.45203
8.45694
8.46097
8.46403
8.46603
8.46689
8.46651
8.4648
8.46166
8.45699
8.4507
8.4427
8.4329
8.42126
8.40774
8.39235
8.37517
8.35631
8.33601
8.31459
8.29245
8.27009
8.24808
8.22699
8.20739
8.18979
8.17459
8.16212
8.1526
8.14618
8.14296
7.80114
7.80376
7.80889
7.81634
7.82587
7.83719
7.84999
7.86398
7.87891
7.89454
7.91068
7.92716
7.94382
7.96053
7.97717
7.99363
8.00982
8.02566
8.0411
8.05609
8.07062
8.08467
8.09823
8.11129
8.12385
8.13589
8.1474
8.15834
8.16869
8.17841
8.18747
8.19581
8.20337
8.21009
8.21588
8.22065
8.22431
8.22675
8.22787
8.22756
8.22571
8.22221
8.21693
8.20976
8.2006
8.18933
8.17589
8.16021
8.1423
8.12221
8.10009
8.07617
8.05083
8.02456
7.99797
7.97175
7.94662
7.92328
7.90235
7.88433
7.86958
7.85835
7.8508
7.847
7.51212
7.51521
7.52124
7.53
7.54115
7.55433
7.56918
7.58536
7.60256
7.62051
7.639
7.65784
7.67687
7.69593
7.71489
7.73362
7.75202
7.77
7.78751
7.80449
7.82092
7.83681
7.85215
7.86693
7.88114
7.89478
7.90781
7.92021
7.93196
7.94301
7.95332
7.96283
7.97148
7.97919
7.98585
7.99138
7.99566
7.99857
7.99999
7.9998
7.99788
7.99408
7.98828
7.98033
7.9701
7.95747
7.94232
7.92459
7.90424
7.88131
7.85593
7.82838
7.79906
7.76854
7.73757
7.70697
7.67764
7.65043
7.62608
7.60518
7.58813
7.57519
7.56651
7.56216
7.23438
7.23797
7.24498
7.25512
7.26797
7.28311
7.30008
7.31848
7.33796
7.35823
7.37905
7.40022
7.42157
7.44294
7.46417
7.48512
7.50568
7.52574
7.54523
7.56412
7.58239
7.60004
7.61708
7.6335
7.64931
7.66447
7.67898
7.6928
7.70589
7.71823
7.72976
7.74042
7.75015
7.75884
7.76639
7.77269
7.77761
7.78103
7.78279
7.78278
7.78084
7.77682
7.77058
7.76194
7.75075
7.73686
7.72012
7.70043
7.67773
7.65202
7.62343
7.59221
7.55883
7.52393
7.48839
7.45321
7.41949
7.38825
7.36038
7.33654
7.31717
7.30254
7.29275
7.28785
6.96733
6.97147
6.97954
6.99115
7.00582
7.023
7.04216
7.06283
7.08461
7.10719
7.13032
7.1538
7.17744
7.20107
7.22453
7.24766
7.27031
7.29238
7.3138
7.33452
7.35454
7.37388
7.39254
7.41054
7.42787
7.44451
7.46044
7.47562
7.49002
7.5036
7.51633
7.52812
7.53891
7.54859
7.55704
7.56413
7.56972
7.57366
7.57582
7.57602
7.57413
7.56997
7.56337
7.55413
7.54209
7.52705
7.50883
7.4873
7.46234
7.43393
7.40215
7.36725
7.32971
7.29028
7.24996
7.20997
7.17162
7.13617
7.10466
7.07784
7.05616
7.03985
7.02898
7.02355
6.71043
6.71517
6.72439
6.73761
6.75421
6.77354
6.79497
6.81795
6.84205
6.86693
6.89234
6.91809
6.94399
6.96985
6.9955
7.02075
7.04545
7.06947
7.09274
7.11522
7.13691
7.15785
7.17807
7.19757
7.21637
7.23443
7.25173
7.26823
7.28389
7.29869
7.31257
7.32548
7.33732
7.34799
7.35735
7.36524
7.37153
7.37603
7.37861
7.37909
7.37731
7.37307
7.36619
7.35646
7.34366
7.32758
7.30801
7.28476
7.25766
7.22663
7.1917
7.1531
7.11132
7.06718
7.02184
6.97675
6.93352
6.89366
6.85839
6.82855
6.80457
6.78664
6.77473
6.76881
6.46317
6.46857
6.47905
6.49401
6.51268
6.53428
6.55806
6.5834
6.60983
6.637
6.66466
6.69264
6.72075
6.74881
6.77661
6.80396
6.83066
6.85657
6.88162
6.90577
6.92906
6.95152
6.97321
6.99416
7.01436
7.0338
7.05242
7.07019
7.08708
7.10304
7.11806
7.13206
7.14495
7.15661
7.16688
7.1756
7.1826
7.1877
7.19074
7.19154
7.18992
7.18568
7.1786
7.16847
7.15503
7.13803
7.11723
7.09237
7.06325
7.02971
6.9917
6.9494
6.90328
6.85424
6.80361
6.75311
6.7047
6.6602
6.62106
6.58818
6.56195
6.54246
6.52959
6.5232
6.22505
6.23119
6.24305
6.25991
6.28081
6.30481
6.33103
6.35878
6.38753
6.41696
6.44685
6.47701
6.5073
6.53752
6.56744
6.59684
6.6255
6.65325
6.68001
6.70576
6.73055
6.75445
6.77755
6.79988
6.82143
6.84219
6.8621
6.88109
6.89915
6.91625
6.93237
6.94744
6.96137
6.97403
6.98523
6.99479
7.00252
7.00825
7.01178
7.01294
7.01153
7.00736
7.00017
6.98972
6.97574
6.95794
6.93604
6.90972
6.87872
6.84279
6.80178
6.75579
6.70525
6.65111
6.59488
6.53862
6.48468
6.4353
6.39218
6.35626
6.32786
6.30691
6.29316
6.28636
5.9956
6.00256
6.01597
6.0349
6.05821
6.08474
6.1135
6.14369
6.17477
6.20643
6.23847
6.27078
6.3032
6.33555
6.36757
6.399
6.42957
6.4591
6.4875
6.51476
6.54097
6.56623
6.59066
6.61431
6.63717
6.65921
6.68035
6.70053
6.71972
6.73791
6.7551
6.77122
6.78619
6.79984
6.81198
6.8224
6.83089
6.83726
6.84132
6.84288
6.84174
6.83769
6.83047
6.8198
6.80538
6.7869
6.76402
6.73639
6.70366
6.66547
6.62158
6.57193
6.51689
6.45745
6.39529
6.33284
6.27298
6.21847
6.17127
6.13236
6.1019
6.07963
6.06511
6.05795
5.77439
5.78227
5.79739
5.8186
5.84451
5.87373
5.90511
5.93778
5.97117
6.005
6.03914
6.07354
6.10805
6.1425
6.1766
6.21003
6.24248
6.27374
6.30371
6.33239
6.35992
6.38646
6.41215
6.43705
6.46118
6.48446
6.5068
6.52812
6.54838
6.56763
6.58585
6.60301
6.61901
6.63366
6.64676
6.65806
6.66732
6.67435
6.67896
6.68095
6.68013
6.67626
6.66908
6.65827
6.64352
6.62447
6.60075
6.57196
6.53766
6.49739
6.45074
6.3975
6.33792
6.27297
6.20451
6.1354
6.06917
6.00924
5.95788
5.91606
5.88371
5.86029
5.84512
5.83769
5.56099
5.5699
5.58692
5.61065
5.63938
5.67144
5.70553
5.7407
5.77637
5.8123
5.84847
5.88489
5.92146
5.95797
5.99413
6.02955
6.06385
6.09678
6.12825
6.15828
6.18703
6.21475
6.24163
6.26774
6.29308
6.31758
6.34109
6.36349
6.38479
6.40503
6.42426
6.44244
6.45946
6.47513
6.48919
6.50138
6.51143
6.51915
6.52432
6.52677
6.5263
6.52268
6.51561
6.50475
6.48975
6.47025
6.44583
6.41603
6.38034
6.33818
6.28894
6.23221
6.16805
6.09738
6.02223
5.9459
5.87278
5.80712
5.75158
5.70699
5.67296
5.64859
5.63293
5.6253
5.355
5.36507
5.38421
5.41071
5.44249
5.47755
5.51444
5.55213
5.59003
5.62798
5.66609
5.70446
5.74303
5.78158
5.81981
5.85721
5.89333
5.92789
5.96078
5.99205
6.02193
6.05073
6.07873
6.106
6.13252
6.15821
6.18286
6.20631
6.22858
6.24977
6.26996
6.28914
6.30717
6.32387
6.33892
6.35201
6.36287
6.37128
6.37703
6.37997
6.37989
6.37656
6.36966
6.35884
6.34369
6.32384
6.29884
6.26819
6.2313
6.18745
6.13584
6.07575
6.00701
5.93044
5.84818
5.76401
5.68337
5.61166
5.55193
5.50477
5.46933
5.44426
5.42829
5.42055
5.15602
5.1674
5.18891
5.21848
5.25356
5.29178
5.33156
5.37178
5.41183
5.45169
5.49163
5.53189
5.57241
5.61298
5.65327
5.69267
5.73057
5.76671
5.80096
5.83337
5.86426
5.89405
5.9231
5.95148
5.97915
6.00602
6.03179
6.05624
6.07942
6.10149
6.12262
6.14277
6.16181
6.17955
6.19562
6.20962
6.22129
6.2304
6.23675
6.24018
6.24052
6.23754
6.23089
6.22016
6.20495
6.18485
6.15941
6.12806
6.09015
6.04486
5.99111
5.92785
5.85456
5.77193
5.68212
5.58937
5.50048
5.42237
5.35852
5.30909
5.27256
5.24707
5.23098
5.22322
4.96369
4.97655
5.00069
5.03366
5.07233
5.11385
5.15659
5.19934
5.24145
5.28309
5.32474
5.36682
5.40925
5.4518
5.49417
5.53559
5.57525
5.61292
5.64846
5.6819
5.71368
5.74436
5.77439
5.80384
5.83264
5.86068
5.88756
5.91296
5.93698
5.95987
5.98189
6.003
6.02305
6.04185
6.05895
6.07387
6.08636
6.09619
6.10313
6.10707
6.10786
6.10526
6.09891
6.08836
6.07316
6.0529
6.02714
5.99524
5.95651
5.91003
5.85443
5.78823
5.71048
5.62165
5.52386
5.42167
5.32364
5.23879
5.17096
5.11963
5.0824
5.05679
5.04079
5.03312
4.77763
4.79219
4.81924
4.85598
4.89855
4.94351
4.98927
5.03455
5.07861
5.12187
5.16508
5.2089
5.2532
5.29769
5.3422
5.38566
5.42706
5.46622
5.50298
5.53732
5.56987
5.60132
5.63229
5.66277
5.69265
5.72188
5.74989
5.77618
5.80095
5.82459
5.84748
5.86952
5.89057
5.91046
5.92862
5.94447
5.95778
5.96832
5.97585
5.9803
5.98155
5.9794
5.97341
5.9631
5.94797
5.92764
5.90168
5.86936
5.82999
5.78262
5.72547
5.65663
5.57453
5.47943
5.37325
5.26061
5.15236
5.06043
4.98889
4.93612
4.89865
4.87326
4.85755
4.85006
4.59752
4.61401
4.64426
4.68519
4.732
4.7805
4.82934
4.87715
4.92301
4.96771
5.01231
5.05782
5.10395
5.15033
5.19703
5.24261
5.28568
5.32629
5.36423
5.39935
5.43251
5.46462
5.49647
5.52796
5.55889
5.58935
5.6185
5.64561
5.67105
5.69534
5.71906
5.74204
5.76405
5.78507
5.80435
5.82111
5.83525
5.8465
5.8546
5.85956
5.86129
5.85961
5.85406
5.84404
5.82904
5.80872
5.78266
5.75006
5.71023
5.66225
5.60393
5.53279
5.44648
5.34511
5.2302
5.10594
4.98611
4.88677
4.81194
4.75833
4.7211
4.69628
4.68108
4.67387
4.42299
4.44171
4.47545
4.52106
4.57251
4.62458
4.67654
4.7269
4.77437
4.82031
4.8661
4.91327
4.96118
5.00937
5.05836
5.10616
5.15083
5.19284
5.23193
5.26768
5.30131
5.33392
5.36665
5.39912
5.43105
5.46279
5.49314
5.52099
5.54698
5.57183
5.59637
5.62026
5.6432
5.66541
5.68585
5.70352
5.71847
5.73045
5.7391
5.74454
5.74675
5.74561
5.74054
5.73088
5.71605
5.69578
5.66976
5.63697
5.59683
5.54858
5.48948
5.41647
5.32613
5.21853
5.09471
4.95741
4.82429
4.71733
4.63979
4.58604
4.54961
4.52571
4.51122
4.5044
4.25373
4.27506
4.31252
4.36337
4.41991
4.47549
4.53063
4.5836
4.63242
4.67937
4.7261
4.77494
4.82463
4.87447
4.9259
4.97608
5.02222
5.06561
5.10584
5.14203
5.17598
5.20893
5.24254
5.27598
5.30882
5.34194
5.37358
5.40205
5.42848
5.45376
5.47913
5.50392
5.52773
5.5512
5.57289
5.5914
5.60717
5.6199
5.62905
5.63497
5.63765
5.63708
5.63256
5.62332
5.6087
5.58851
5.56265
5.52976
5.48941
5.44125
5.3818
5.30743
5.21322
5.09954
4.96685
4.81486
4.66625
4.55158
4.47217
4.4191
4.38403
4.36141
4.34783
4.34147
4.08941
4.11384
4.15515
4.21193
4.27409
4.33297
4.39134
4.44704
4.49689
4.54463
4.59199
4.64257
4.69403
4.74529
4.79938
4.85216
4.89954
4.94431
4.98574
5.02214
5.05624
5.08933
5.12387
5.1583
5.1919
5.22656
5.25961
5.28855
5.3153
5.34083
5.36708
5.39279
5.41736
5.44219
5.46524
5.48451
5.5011
5.51459
5.52419
5.53056
5.53371
5.53377
5.52986
5.52109
5.50668
5.4866
5.46104
5.42811
5.3876
5.33992
5.28055
5.20545
5.1075
4.98794
4.84681
4.67814
4.5112
4.38899
4.30884
4.25738
4.22426
4.20324
4.19075
4.18493
3.92968
3.95789
4.00303
4.06655
4.13498
4.19675
4.25843
4.31707
4.36752
4.41582
4.46339
4.51589
4.56916
4.62146
4.67853
4.73422
4.78251
4.82866
4.87141
4.90774
4.94185
4.97481
5.0104
5.04586
5.07999
5.11638
5.15106
5.18025
5.2072
5.23278
5.25999
5.28664
5.31178
5.33814
5.3627
5.38258
5.39999
5.4143
5.42426
5.43106
5.43463
5.43539
5.43216
5.42393
5.40973
5.38972
5.36465
5.3317
5.29099
5.24427
5.1854
5.11034
5.0087
4.88352
4.73494
4.54723
4.35819
4.22907
4.14962
4.10079
4.0702
4.05109
4.03984
4.03462
3.77422
3.80712
3.85579
3.92705
4.00261
4.06649
4.13162
4.19358
4.24401
4.29271
4.33995
4.39468
4.44985
4.50259
4.56311
4.62216
4.67081
4.7184
4.76271
4.79856
4.83257
4.86505
4.90191
4.93846
4.97275
5.0112
5.04779
5.07689
5.10397
5.12929
5.15763
5.18529
5.2107
5.23882
5.2651
5.28535
5.3036
5.31883
5.329
5.33622
5.34016
5.34169
5.33922
5.3316
5.31758
5.29756
5.27324
5.24026
5.1992
5.15396
5.09597
5.02197
4.91649
4.78592
4.63174
4.42217
4.20609
4.07134
3.9944
3.94929
3.92177
3.90484
3.89495
3.89038
3.62264
3.66156
3.71298
3.79328
3.87705
3.94181
4.01064
4.07651
4.12606
4.17511
4.22124
4.27873
4.33597
4.38823
4.45286
4.51591
4.56408
4.61325
4.65951
4.69431
4.72821
4.75969
4.79819
4.83596
4.86983
4.91077
4.9497
4.97824
5.0054
5.03006
5.05982
5.08856
5.11381
5.144
5.1723
5.19255
5.2117
5.22797
5.23817
5.24583
5.25004
5.25245
5.2508
5.24387
5.22999
5.20982
5.1866
5.15353
5.11179
5.06874
5.01187
4.94024
4.83054
4.69467
4.53796
4.30315
4.05346
3.91539
3.84317
3.80285
3.77889
3.76436
3.75592
3.75205
3.47454
3.52136
3.57408
3.66508
3.75853
3.82227
3.89519
3.96589
4.0133
4.0629
4.1068
4.16787
4.22747
4.27787
4.34755
4.41552
4.46194
4.51293
4.56175
4.5947
4.6286
4.65838
4.69906
4.73826
4.77084
4.81491
4.85673
4.88402
4.91134
4.93476
4.96636
4.99634
5.02075
5.05349
5.08421
5.10389
5.12404
5.14158
5.15152
5.15966
5.164
5.16744
5.16667
5.16055
5.14673
5.12616
5.10454
5.07129
5.02831
4.98836
4.93265
4.86517
4.75045
4.6091
4.45459
4.19053
3.89847
3.76094
3.69596
3.6615
3.64151
3.62952
3.62261
3.61945
3.32945
3.38686
3.43842
3.5423
3.64738
3.70727
3.78495
3.86182
3.90532
3.95601
3.9961
4.06197
4.1244
4.17091
4.24698
4.32111
4.36393
4.41717
4.46944
4.49938
4.53365
4.56069
4.60438
4.64533
4.67533
4.7234
4.76891
4.79391
4.82169
4.84302
4.87711
4.90857
4.93114
4.96708
5.00078
5.01908
5.04042
5.05952
5.0688
5.07755
5.08179
5.08646
5.08662
5.08143
5.06762
5.04624
5.02693
4.99337
4.94826
4.91266
4.85776
4.79687
4.67585
4.52824
4.38297
4.08492
3.73884
3.60789
3.55294
3.52525
3.50954
3.50021
3.49486
3.49241
3.18682
3.25864
3.30516
3.42482
3.54414
3.5961
3.67959
3.76456
3.80156
3.85452
3.88849
3.96094
4.02691
4.06663
4.15095
4.23295
4.2695
4.32566
4.38267
4.40793
4.44335
4.46615
4.51403
4.55719
4.58278
4.63606
4.68632
4.70756
4.73639
4.75443
4.79194
4.82524
4.84455
4.8846
4.92205
4.93777
4.9606
4.98172
4.98972
4.99932
5.00316
5.00933
5.01043
5.00636
4.99248
4.96968
4.95368
4.91964
4.87107
4.84158
4.78654
4.73562
4.6063
4.45077
4.32482
3.98716
3.57165
3.45638
3.41434
3.39416
3.38291
3.37628
3.37249
3.37076
3.04599
3.13759
3.1732
3.31249
3.44959
3.48784
3.57875
3.67452
3.70136
3.75864
3.78321
3.86472
3.93531
3.96415
4.05925
4.15145
4.17799
4.23809
4.30167
4.31985
4.35778
4.3742
4.42792
4.474
4.49256
4.55274
4.60913
4.62451
4.65549
4.66852
4.71076
4.74642
4.76047
4.80589
4.8481
4.85959
4.88438
4.90814
4.91401
4.92488
4.92781
4.93588
4.9379
4.93518
4.92118
4.89604
4.88475
4.85003
4.79607
4.77518
4.71819
4.6819
4.54141
4.37485
4.28229
3.8985
3.39321
3.30697
3.28044
3.26825
3.26153
3.2576
3.25535
3.25433
2.90614
3.02501
3.04115
3.20521
3.36475
3.38134
3.48204
3.59231
3.60383
3.6688
3.67932
3.77333
3.85007
3.86241
3.97173
4.07723
4.08858
4.15417
4.22677
4.23451
4.27716
4.28416
4.34601
4.396
4.40393
4.47327
4.53763
4.54421
4.57914
4.58471
4.6335
4.67227
4.67829
4.7308
4.77912
4.78406
4.81155
4.83878
4.84133
4.85414
4.85547
4.86599
4.8688
4.86775
4.85363
4.82484
4.82015
4.78456
4.72249
4.71373
4.65166
4.63643
4.48084
4.29807
4.25809
3.82059
3.19888
3.16073
3.15159
3.14753
3.14531
3.14401
3.14327
3.14293
)
;

boundaryField
{
    left
    {
        type            zeroGradient;
    }
    right
    {
        type            zeroGradient;
    }
    interface
    {
        type            fixedValue;
        value           nonuniform List<scalar> 
64
(
2.83466
2.97268
2.97268
3.15288
3.32706
3.32706
3.43452
3.55474
3.55474
3.62633
3.62633
3.72912
3.81012
3.81012
3.92905
4.04345
4.04345
4.11296
4.19188
4.19188
4.23871
4.23871
4.30629
4.359
4.359
4.43457
4.50423
4.50423
4.54262
4.54262
4.59603
4.63692
4.63692
4.69424
4.74659
4.74659
4.77599
4.80557
4.80557
4.81991
4.81991
4.83208
4.83518
4.83518
4.82105
4.78945
4.78945
4.75331
4.68516
4.68516
4.61796
4.61796
4.452
4.25681
4.25681
3.78741
3.0885
3.0885
3.0885
3.0885
3.0885
3.0885
3.0885
3.0885
)
;
    }
    bottom
    {
        type            fixedValue;
        value           uniform 10;
    }
    defaultFaces
    {
        type            empty;
    }
}


// ************************************************************************* //
