/*--------------------------------*- C++ -*----------------------------------*\
| =========                 |                                                 |
| \\      /  F ield         | OpenFOAM: The Open Source CFD Toolbox           |
|  \\    /   O peration     | Version:  5.x                                   |
|   \\  /    A nd           | Web:      www.OpenFOAM.org                      |
|    \\/     M anipulation  |                                                 |
\*---------------------------------------------------------------------------*/
FoamFile
{
    version     2.0;
    format      ascii;
    class       volScalarField;
    location    "13.8";
    object      T;
}
// * * * * * * * * * * * * * * * * * * * * * * * * * * * * * * * * * * * * * //

dimensions      [0 0 0 1 0 0 0];

internalField   nonuniform List<scalar> 
2048
(
9.81021
9.8104
9.81079
9.81136
9.8121
9.81298
9.81399
9.81511
9.81631
9.81759
9.81892
9.82029
9.82168
9.82308
9.82448
9.82587
9.82725
9.8286
9.82992
9.83121
9.83246
9.83368
9.83485
9.83598
9.83706
9.8381
9.83909
9.84003
9.84092
9.84174
9.84251
9.84321
9.84385
9.8444
9.84487
9.84525
9.84553
9.8457
9.84576
9.84569
9.84549
9.84515
9.84465
9.84399
9.84317
9.84218
9.84101
9.83966
9.83815
9.83648
9.83467
9.83274
9.83072
9.82865
9.82658
9.82454
9.82259
9.82078
9.81915
9.81773
9.81656
9.81567
9.81506
9.81475
9.43876
9.43935
9.4405
9.4422
9.44438
9.44701
9.45001
9.45334
9.45692
9.46071
9.46465
9.4687
9.47282
9.47697
9.48112
9.48525
9.48932
9.49332
9.49723
9.50104
9.50475
9.50834
9.5118
9.51514
9.51835
9.52142
9.52435
9.52713
9.52975
9.5322
9.53448
9.53656
9.53843
9.54007
9.54147
9.5426
9.54344
9.54395
9.54413
9.54394
9.54335
9.54234
9.54088
9.53894
9.53651
9.53357
9.53012
9.52614
9.52166
9.51671
9.51133
9.5056
9.4996
9.49345
9.48728
9.48122
9.47543
9.47004
9.46518
9.46096
9.45748
9.45482
9.45301
9.4521
9.08311
9.08408
9.086
9.08881
9.09242
9.09676
9.10171
9.10719
9.11309
9.11932
9.12579
9.13244
9.1392
9.146
9.15281
9.15956
9.16622
9.17277
9.17917
9.1854
9.19145
9.19732
9.20298
9.20844
9.21368
9.2187
9.22349
9.22804
9.23232
9.23634
9.24006
9.24347
9.24654
9.24924
9.25154
9.2534
9.25479
9.25566
9.25597
9.25568
9.25474
9.25311
9.25075
9.24761
9.24365
9.23886
9.23321
9.22671
9.21937
9.21124
9.2024
9.19297
9.18308
9.17293
9.16273
9.15272
9.14314
9.13423
9.1262
9.11924
9.1135
9.1091
9.10612
9.10462
8.74234
8.74371
8.74639
8.75031
8.75536
8.7614
8.76829
8.77589
8.78406
8.79268
8.80163
8.81082
8.82013
8.82951
8.83888
8.84817
8.85734
8.86633
8.87512
8.88368
8.89199
8.90004
8.90781
8.9153
8.92249
8.92938
8.93596
8.9422
8.94809
8.95361
8.95874
8.96344
8.96767
8.97141
8.9746
8.97719
8.97913
8.98036
8.98083
8.98048
8.97924
8.97704
8.97384
8.96957
8.96418
8.95763
8.94989
8.94096
8.93085
8.91963
8.9074
8.89432
8.88058
8.86646
8.85225
8.83829
8.82493
8.8125
8.8013
8.79161
8.78363
8.77752
8.77339
8.77131
8.41562
8.41738
8.42085
8.4259
8.4324
8.44016
8.449
8.45872
8.46915
8.48013
8.49151
8.50317
8.51499
8.52687
8.53873
8.55048
8.56207
8.57343
8.58453
8.59532
8.6058
8.61594
8.62573
8.63516
8.64423
8.65291
8.66121
8.66908
8.67652
8.6835
8.68999
8.69594
8.70132
8.70607
8.71014
8.71346
8.71597
8.71759
8.71825
8.71787
8.71638
8.71369
8.70972
8.70441
8.69767
8.68945
8.67971
8.66844
8.65565
8.64141
8.62584
8.60914
8.59156
8.57345
8.55519
8.53724
8.52004
8.50405
8.48967
8.47723
8.467
8.45918
8.45391
8.45125
8.10216
8.10434
8.10862
8.11485
8.12284
8.13236
8.14316
8.15501
8.16769
8.181
8.19478
8.20888
8.22315
8.23748
8.25177
8.26591
8.27985
8.29349
8.30681
8.31976
8.33231
8.34446
8.35619
8.36749
8.37835
8.38877
8.39871
8.40816
8.4171
8.42549
8.4333
8.44048
8.44698
8.45274
8.45768
8.46174
8.46483
8.46686
8.46775
8.4674
8.46571
8.46259
8.45794
8.45166
8.44366
8.43388
8.42224
8.40871
8.39332
8.37612
8.35725
8.33694
8.31549
8.29333
8.27095
8.24891
8.22779
8.20817
8.19054
8.17532
8.16283
8.1533
8.14688
8.14365
7.80126
7.80388
7.80901
7.81647
7.82601
7.83733
7.85014
7.86414
7.87908
7.89472
7.91087
7.92736
7.94404
7.96077
7.97743
7.99391
8.01011
8.02598
8.04143
8.05645
8.071
8.08507
8.09866
8.11176
8.12435
8.13642
8.14796
8.15893
8.16931
8.17907
8.18817
8.19655
8.20415
8.21091
8.21673
8.22154
8.22523
8.22771
8.22886
8.22858
8.22676
8.22328
8.21802
8.21087
8.20172
8.19046
8.17702
8.16134
8.14342
8.12332
8.10118
8.07724
8.05187
8.02557
7.99895
7.9727
7.94754
7.92417
7.90322
7.88517
7.8704
7.85916
7.85159
7.8478
7.51226
7.51534
7.52139
7.53014
7.5413
7.55449
7.56935
7.58554
7.60274
7.62071
7.63921
7.65807
7.67711
7.69619
7.71517
7.73392
7.75235
7.77035
7.78788
7.80489
7.82135
7.83727
7.85264
7.86745
7.8817
7.89537
7.90844
7.92088
7.93266
7.94375
7.9541
7.96366
7.97235
7.9801
7.98682
7.99239
7.9967
7.99965
8.00111
8.00096
7.99906
7.99529
7.98951
7.98158
7.97137
7.95875
7.9436
7.92587
7.90551
7.88256
7.85717
7.82959
7.80024
7.76969
7.73867
7.70804
7.67867
7.65143
7.62705
7.60612
7.58905
7.57609
7.5674
7.56304
7.23453
7.23812
7.24514
7.25528
7.26814
7.28328
7.30026
7.31867
7.33816
7.35845
7.37928
7.40047
7.42184
7.44323
7.46448
7.48546
7.50604
7.52612
7.54564
7.56456
7.58286
7.60055
7.61762
7.63408
7.64992
7.66512
7.67967
7.69353
7.70667
7.71905
7.73063
7.74134
7.75111
7.75985
7.76746
7.77381
7.77877
7.78223
7.78403
7.78406
7.78215
7.77817
7.77195
7.76333
7.75216
7.73828
7.72155
7.70186
7.67914
7.65342
7.6248
7.59355
7.56013
7.5252
7.48961
7.45439
7.42063
7.38935
7.36144
7.33757
7.31818
7.30353
7.29372
7.28882
6.96749
6.97163
6.9797
6.99133
7.006
7.02319
7.04236
7.06304
7.08483
7.10743
7.13057
7.15407
7.17773
7.20139
7.22487
7.24802
7.2707
7.2928
7.31424
7.335
7.35505
7.37442
7.39312
7.41116
7.42853
7.44522
7.46119
7.47642
7.49087
7.5045
7.51727
7.52912
7.53996
7.5497
7.5582
7.56534
7.57098
7.57498
7.57717
7.57743
7.57557
7.57145
7.56487
7.55566
7.54364
7.52861
7.5104
7.48886
7.46389
7.43546
7.40365
7.36872
7.33114
7.29166
7.2513
7.21125
7.17286
7.13736
7.10581
7.07896
7.05725
7.04092
7.03003
7.0246
6.7106
6.71535
6.72457
6.73779
6.7544
6.77374
6.79518
6.81817
6.84228
6.86718
6.89261
6.91838
6.9443
6.97018
6.99586
7.02114
7.04587
7.06992
7.09322
7.11573
7.13746
7.15844
7.17869
7.19824
7.21708
7.23519
7.25254
7.26909
7.28481
7.29966
7.31359
7.32656
7.33846
7.34919
7.3586
7.36655
7.37289
7.37745
7.38008
7.38061
7.37887
7.37467
7.36782
7.35812
7.34534
7.32928
7.30971
7.28645
7.25934
7.22829
7.19333
7.1547
7.11287
7.06867
7.02328
6.97814
6.93485
6.89494
6.85963
6.82974
6.80574
6.78778
6.77586
6.76992
6.46335
6.46875
6.47924
6.4942
6.51288
6.53449
6.55828
6.58364
6.61008
6.63726
6.66495
6.69295
6.72108
6.74917
6.77699
6.80437
6.8311
6.85704
6.88213
6.90632
6.92964
6.95214
6.97388
6.99487
7.01512
7.03461
7.05328
7.07111
7.08805
7.10408
7.11915
7.13321
7.14617
7.15789
7.16822
7.17701
7.18406
7.18922
7.19232
7.19317
7.19159
7.18739
7.18036
7.17025
7.15683
7.13985
7.11905
7.0942
7.06507
7.0315
6.99346
6.95111
6.90494
6.85584
6.80515
6.75459
6.70612
6.66156
6.62237
6.58944
6.56319
6.54366
6.53078
6.52438
6.22523
6.23138
6.24325
6.26011
6.28102
6.30503
6.33126
6.35902
6.3878
6.41724
6.44714
6.47733
6.50765
6.53789
6.56784
6.59727
6.62596
6.65375
6.68054
6.70633
6.73116
6.75511
6.77825
6.80062
6.82223
6.84305
6.86301
6.88206
6.90018
6.91734
6.93352
6.94866
6.96266
6.97538
6.98665
6.99628
7.00408
7.00987
7.01346
7.01467
7.01332
7.00919
7.00204
6.99163
6.97767
6.95989
6.93799
6.91168
6.88066
6.8447
6.80365
6.75761
6.70702
6.65281
6.59652
6.54018
6.48617
6.43674
6.39356
6.35759
6.32916
6.30818
6.29441
6.2876
5.99579
6.00276
6.01617
6.03511
6.05843
6.08497
6.11374
6.14394
6.17505
6.20672
6.23878
6.27112
6.30356
6.33594
6.36799
6.39945
6.43005
6.45962
6.48806
6.51536
6.54161
6.56692
6.59139
6.61509
6.63801
6.6601
6.6813
6.70154
6.7208
6.73906
6.75631
6.77251
6.78755
6.80127
6.81349
6.82398
6.83254
6.83897
6.84309
6.84471
6.84363
6.83963
6.83245
6.82182
6.80742
6.78896
6.76609
6.73846
6.70572
6.6675
6.62357
6.57386
6.51877
6.45925
6.39702
6.33449
6.27455
6.21997
6.17271
6.13375
6.10325
6.08095
6.06641
6.05924
5.77459
5.78247
5.79759
5.81881
5.84473
5.87397
5.90536
5.93804
5.97145
6.0053
6.03947
6.07388
6.10843
6.1429
6.17703
6.2105
6.24298
6.27428
6.30429
6.33302
6.36059
6.38718
6.41291
6.43787
6.46205
6.4854
6.5078
6.52918
6.54951
6.56883
6.58712
6.60436
6.62043
6.63516
6.64834
6.65971
6.66905
6.67615
6.68082
6.68288
6.68211
6.6783
6.67117
6.6604
6.64568
6.62665
6.60294
6.57415
6.53984
6.49954
6.45284
6.39955
6.33989
6.27486
6.20632
6.13712
6.07081
6.01079
5.95938
5.9175
5.88511
5.86165
5.84647
5.83902
5.56119
5.57011
5.58713
5.61087
5.6396
5.67168
5.70578
5.74097
5.77666
5.81261
5.84881
5.88525
5.92184
5.95838
5.99458
6.03004
6.06437
6.09735
6.12886
6.15892
6.18773
6.21549
6.24242
6.26859
6.29399
6.31855
6.34212
6.3646
6.38597
6.40628
6.42558
6.44384
6.46094
6.47669
6.49084
6.5031
6.51324
6.52103
6.52627
6.52879
6.52838
6.52482
6.5178
6.50698
6.49202
6.47254
6.44813
6.41833
6.38263
6.34043
6.29115
6.23436
6.17012
6.09936
6.02412
5.94769
5.87448
5.80873
5.75312
5.70847
5.6744
5.64999
5.63432
5.62667
5.3552
5.36528
5.38443
5.41094
5.44272
5.4778
5.51471
5.55241
5.59033
5.6283
5.66643
5.70483
5.74343
5.78201
5.82027
5.85771
5.89387
5.92847
5.96141
5.99272
6.02264
6.0515
6.07955
6.10687
6.13346
6.15921
6.18393
6.20746
6.2298
6.25106
6.27134
6.29059
6.30871
6.3255
6.34064
6.35381
6.36475
6.37324
6.37907
6.38207
6.38206
6.37879
6.37195
6.36117
6.34606
6.32624
6.30126
6.27061
6.23369
6.18982
6.13815
6.078
6.00917
5.93251
5.85015
5.76586
5.68512
5.61332
5.55351
5.5063
5.47081
5.4457
5.42972
5.42195
5.15623
5.16762
5.18913
5.21871
5.2538
5.29203
5.33182
5.37206
5.41213
5.45202
5.49198
5.53227
5.57282
5.61342
5.65374
5.69318
5.73113
5.76731
5.8016
5.83405
5.86499
5.89484
5.92394
5.95238
5.98012
6.00705
6.0329
6.05742
6.08067
6.10283
6.12404
6.14427
6.16341
6.18124
6.19739
6.21148
6.22324
6.23244
6.23887
6.24237
6.24278
6.23986
6.23327
6.22259
6.20742
6.18735
6.16193
6.13058
6.09265
6.04733
5.99352
5.93019
5.85682
5.77408
5.68416
5.59128
5.50228
5.42407
5.36014
5.31064
5.27407
5.24854
5.23243
5.22466
4.96389
4.97677
5.00091
5.03389
5.07257
5.11411
5.15686
5.19963
5.24176
5.28343
5.3251
5.3672
5.40966
5.45225
5.49466
5.53611
5.57582
5.61354
5.64912
5.6826
5.71444
5.74517
5.77526
5.80477
5.83363
5.86174
5.8887
5.91418
5.93827
5.96125
5.98335
6.00455
6.02469
6.04359
6.06079
6.07581
6.08839
6.0983
6.10532
6.10934
6.1102
6.10767
6.10139
6.09089
6.07573
6.05551
6.02976
5.99786
5.95912
5.91261
5.85694
5.79067
5.71282
5.62388
5.52596
5.42364
5.32549
5.24053
5.17261
5.12121
5.08394
5.05829
5.04227
5.03458
4.77784
4.79241
4.81946
4.85622
4.89879
4.94378
4.98954
5.03484
5.07892
5.12221
5.16544
5.20929
5.25362
5.29815
5.3427
5.3862
5.42764
5.46685
5.50365
5.53805
5.57064
5.60215
5.63317
5.66372
5.69367
5.72298
5.75106
5.77743
5.80228
5.826
5.84897
5.87112
5.89225
5.91225
5.93051
5.94646
5.95987
5.9705
5.97811
5.98264
5.98397
5.98189
5.97597
5.96571
5.95063
5.93034
5.9044
5.87209
5.8327
5.78529
5.72809
5.65916
5.57696
5.48174
5.37542
5.26263
5.15424
5.06219
4.99056
4.93772
4.9002
4.87477
4.85905
4.85154
4.59772
4.61423
4.64448
4.68543
4.73225
4.78077
4.82961
4.87745
4.92332
4.96806
5.01268
5.05822
5.10438
5.1508
5.19753
5.24316
5.28628
5.32693
5.36492
5.40009
5.4333
5.46546
5.49738
5.52893
5.55993
5.59047
5.6197
5.64689
5.67241
5.69679
5.7206
5.74367
5.76578
5.78691
5.80629
5.82316
5.8374
5.84875
5.85694
5.86197
5.86378
5.86218
5.85669
5.84674
5.83179
5.81151
5.78548
5.75288
5.71303
5.66502
5.60664
5.53542
5.449
5.34749
5.23243
5.108
4.98802
4.88856
4.81363
4.75995
4.72268
4.69781
4.6826
4.67538
4.4232
4.44194
4.47566
4.5213
4.57275
4.62485
4.67682
4.72721
4.77469
4.82066
4.86647
4.91367
4.96162
5.00984
5.05887
5.10673
5.15144
5.1935
5.23263
5.26843
5.30212
5.33478
5.36757
5.4001
5.43211
5.46393
5.49436
5.52229
5.54837
5.5733
5.59794
5.62192
5.64497
5.66729
5.68785
5.70562
5.72067
5.73276
5.74149
5.74702
5.74932
5.74825
5.74325
5.73366
5.71889
5.69866
5.67267
5.63989
5.59973
5.55144
5.49229
5.41918
5.32873
5.22098
5.097
4.95952
4.82623
4.71913
4.6415
4.58767
4.5512
4.52726
4.51276
4.50592
4.25394
4.27529
4.31273
4.36362
4.42015
4.47576
4.53091
4.5839
4.63274
4.67972
4.72648
4.77535
4.82507
4.87495
4.92642
4.97665
5.02284
5.06628
5.10656
5.1428
5.1768
5.20981
5.24347
5.27698
5.3099
5.3431
5.37482
5.40338
5.4299
5.45526
5.48073
5.50562
5.52954
5.55312
5.57494
5.59356
5.60943
5.62226
5.63151
5.63751
5.64028
5.63979
5.63535
5.62618
5.61162
5.59148
5.56565
5.53277
5.4924
5.44421
5.38469
5.31023
5.2159
5.10205
4.96919
4.817
4.66821
4.55338
4.47389
4.42074
4.38563
4.36297
4.34938
4.34301
4.08961
4.11407
4.15537
4.21218
4.27433
4.33325
4.39163
4.44735
4.49722
4.54498
4.59236
4.64298
4.69447
4.74578
4.79991
4.85274
4.90017
4.94498
4.98646
5.02292
5.05707
5.09022
5.12481
5.15932
5.19299
5.22774
5.26088
5.28991
5.31674
5.34236
5.36871
5.39452
5.4192
5.44416
5.46733
5.48672
5.50341
5.51701
5.52671
5.53316
5.5364
5.53654
5.53272
5.52403
5.50968
5.48965
5.46412
5.4312
5.39068
5.34297
5.28354
5.20834
5.11026
4.99053
4.84921
4.68032
4.51316
4.3908
4.31056
4.25902
4.22587
4.20482
4.19232
4.18648
3.92988
3.95811
4.00325
4.06679
4.13523
4.19702
4.25872
4.31739
4.36785
4.41617
4.46377
4.5163
4.56961
4.62195
4.67907
4.73481
4.78315
4.82935
4.87215
4.90853
4.94269
4.97571
5.01136
5.04689
5.08109
5.11758
5.15235
5.18162
5.20867
5.23433
5.26164
5.2884
5.31365
5.34015
5.36484
5.38483
5.40235
5.41678
5.42683
5.43372
5.43738
5.43822
5.43509
5.42694
5.41281
5.39285
5.36782
5.33488
5.29416
5.2474
5.18847
5.11332
5.01153
4.88617
4.73739
4.54943
4.36017
4.23088
4.15133
4.10244
4.07181
4.05267
4.04142
4.03618
3.77441
3.80735
3.856
3.92729
4.00286
4.06676
4.13191
4.1939
4.24434
4.29307
4.34033
4.39509
4.4503
4.50308
4.56365
4.62275
4.67145
4.7191
4.76346
4.79936
4.83342
4.86595
4.90288
4.9395
4.97387
5.01241
5.0491
5.07829
5.10545
5.13086
5.15931
5.18707
5.2126
5.24086
5.26728
5.28765
5.30602
5.32135
5.33163
5.33894
5.34296
5.34459
5.34221
5.33467
5.32073
5.30078
5.27649
5.24352
5.20245
5.15718
5.09913
5.02503
4.9194
4.78864
4.63426
4.4244
4.20806
4.07314
3.99611
3.95093
3.92338
3.90643
3.89653
3.89195
3.62283
3.66178
3.71319
3.79352
3.8773
3.94209
4.01093
4.07683
4.12639
4.17547
4.22162
4.27914
4.33642
4.38872
4.4534
4.51652
4.56473
4.61396
4.66027
4.69512
4.72906
4.7606
4.79917
4.83702
4.87096
4.912
4.95103
4.97966
5.0069
5.03165
5.06151
5.09037
5.11573
5.14607
5.17452
5.19488
5.21416
5.23055
5.24085
5.24859
5.25289
5.25541
5.25385
5.24701
5.23321
5.21311
5.18993
5.15687
5.11513
5.07204
5.01512
4.94339
4.83352
4.69746
4.54053
4.3054
4.05541
3.91717
3.84486
3.80449
3.78051
3.76595
3.75751
3.75362
3.47473
3.52158
3.57429
3.66532
3.75878
3.82254
3.89548
3.96621
4.01364
4.06326
4.10718
4.16829
4.22792
4.27836
4.3481
4.41613
4.4626
4.51365
4.56252
4.59552
4.62946
4.65929
4.70005
4.73933
4.77197
4.81615
4.85809
4.88545
4.91286
4.93636
4.96808
4.99818
5.02269
5.05559
5.08647
5.10627
5.12655
5.14421
5.15425
5.16248
5.1669
5.17045
5.16979
5.16374
5.15003
5.12953
5.10795
5.07472
5.03173
4.99175
4.93597
4.8684
4.75352
4.61195
4.45723
4.19282
3.90041
3.7627
3.69765
3.66313
3.64312
3.63112
3.62421
3.62103
3.32964
3.38707
3.43863
3.54254
3.64763
3.70754
3.78525
3.86214
3.90565
3.95637
3.99647
4.06239
4.12485
4.1714
4.24754
4.32173
4.36459
4.41789
4.47022
4.5002
4.53453
4.56161
4.60538
4.6464
4.67647
4.72465
4.77029
4.79536
4.82322
4.84463
4.87885
4.91043
4.9331
4.96921
5.00309
5.02149
5.04297
5.06221
5.07157
5.08041
5.08473
5.08952
5.0898
5.08468
5.07098
5.04969
5.03041
4.99687
4.95176
4.91613
4.86116
4.80019
4.67898
4.53115
4.38568
4.08722
3.74074
3.60962
3.55461
3.52689
3.51115
3.50181
3.49645
3.494
3.18701
3.25885
3.30536
3.42505
3.5444
3.59637
3.67989
3.76488
3.8019
3.85488
3.88887
3.96135
4.02737
4.06711
4.1515
4.23358
4.27016
4.32638
4.38347
4.40876
4.44423
4.46707
4.51503
4.55827
4.58392
4.63733
4.68772
4.70902
4.73794
4.75605
4.79369
4.82712
4.84652
4.88675
4.9244
4.94022
4.96319
4.98447
4.99254
5.00224
5.00613
5.01244
5.01367
5.00966
4.99591
4.9732
4.95723
4.92322
4.87464
4.84513
4.79003
4.73904
4.60951
4.45373
4.32761
3.98949
3.57349
3.45808
3.41599
3.39578
3.38452
3.37788
3.37409
3.37236
3.04618
3.1378
3.1734
3.31272
3.44984
3.48811
3.57904
3.67484
3.7017
3.759
3.78358
3.86514
3.93577
3.96463
4.05981
4.15209
4.17865
4.23883
4.30247
4.32068
4.35866
4.37511
4.42892
4.47509
4.49369
4.55401
4.61055
4.62598
4.65705
4.67013
4.71253
4.74833
4.76244
4.80807
4.8505
4.86205
4.887
4.91094
4.91686
4.92784
4.93082
4.93904
4.94119
4.93852
4.92467
4.89964
4.88837
4.85369
4.79971
4.77881
4.72175
4.68541
4.5447
4.37786
4.28517
3.90085
3.39498
3.30864
3.28207
3.26986
3.26314
3.2592
3.25696
3.25593
2.90633
3.02521
3.04134
3.20543
3.36501
3.38161
3.48233
3.59264
3.60416
3.66916
3.67969
3.77375
3.85054
3.86288
3.97229
4.07789
4.08924
4.1549
4.22759
4.23534
4.27805
4.28506
4.34701
4.39711
4.40506
4.47455
4.53909
4.54569
4.58072
4.58631
4.63528
4.6742
4.68025
4.733
4.78158
4.78655
4.81421
4.84164
4.84421
4.85715
4.8585
4.8692
4.87215
4.87112
4.85718
4.82852
4.82384
4.78828
4.7262
4.71744
4.65529
4.64003
4.48419
4.30112
4.26109
3.82296
3.20055
3.16235
3.15321
3.14914
3.14692
3.14562
3.14488
3.14454
)
;

boundaryField
{
    left
    {
        type            zeroGradient;
    }
    right
    {
        type            zeroGradient;
    }
    interface
    {
        type            fixedValue;
        value           nonuniform List<scalar> 
64
(
2.83483
2.97289
2.97289
3.15312
3.32734
3.32734
3.43482
3.55509
3.55509
3.62671
3.62671
3.72954
3.81059
3.81059
3.92963
4.04416
4.04416
4.11376
4.19279
4.19279
4.23968
4.23968
4.30731
4.36008
4.36008
4.43592
4.50587
4.50587
4.54435
4.54435
4.59785
4.63886
4.63886
4.69647
4.74911
4.74911
4.77867
4.80842
4.80842
4.8229
4.8229
4.83529
4.83856
4.83856
4.8246
4.79312
4.79312
4.75703
4.68888
4.68888
4.6216
4.6216
4.45536
4.25984
4.25984
3.78976
3.09009
3.09009
3.09009
3.09009
3.09009
3.09009
3.09009
3.09009
)
;
    }
    bottom
    {
        type            fixedValue;
        value           uniform 10;
    }
    defaultFaces
    {
        type            empty;
    }
}


// ************************************************************************* //
