/*--------------------------------*- C++ -*----------------------------------*\
| =========                 |                                                 |
| \\      /  F ield         | OpenFOAM: The Open Source CFD Toolbox           |
|  \\    /   O peration     | Version:  5.x                                   |
|   \\  /    A nd           | Web:      www.OpenFOAM.org                      |
|    \\/     M anipulation  |                                                 |
\*---------------------------------------------------------------------------*/
FoamFile
{
    version     2.0;
    format      ascii;
    class       volScalarField;
    location    "11.1";
    object      gradTx;
}
// * * * * * * * * * * * * * * * * * * * * * * * * * * * * * * * * * * * * * //

dimensions      [0 -1 0 1 0 0 0];

internalField   nonuniform List<scalar> 
6300
(
-31.8941
-31.9649
-32.1058
-32.3155
-32.5916
-32.9309
-33.3294
-33.7814
-34.2802
-34.8178
-35.3848
-35.9709
-36.5648
-37.1554
-37.732
-31.8233
-31.8948
-32.0371
-32.249
-32.5283
-32.8719
-33.2758
-33.7345
-34.2415
-34.7884
-35.3659
-35.963
-36.5681
-37.1693
-37.7553
-31.681
-31.7538
-31.899
-32.1152
-32.4007
-32.7527
-33.1674
-33.6396
-34.1627
-34.7286
-35.3272
-35.9471
-36.5753
-37.1986
-37.8039
-31.4659
-31.5406
-31.6897
-31.9122
-32.2067
-32.5708
-33.0014
-33.4936
-34.0413
-34.636
-35.2674
-35.9228
-36.5876
-37.2459
-37.882
-31.1761
-31.2531
-31.407
-31.6372
-31.943
-32.3226
-32.7737
-33.2924
-33.8728
-34.5068
-35.1836
-35.8891
-36.6062
-37.3155
-37.9966
-30.8092
-30.8888
-31.0479
-31.2868
-31.6053
-32.003
-32.4786
-33.0293
-33.6506
-34.3349
-35.0712
-35.8439
-36.6327
-37.4133
-38.1581
-30.3629
-30.4449
-30.6092
-30.8568
-31.1886
-31.6056
-32.1083
-32.6958
-33.3654
-34.1111
-34.9223
-35.7823
-36.6676
-37.5467
-38.3819
-29.8347
-29.9186
-30.0873
-30.3425
-30.6867
-31.1226
-31.6531
-32.2802
-33.0042
-33.8217
-34.7244
-35.6956
-36.7087
-37.724
-38.6894
-29.2225
-29.3075
-29.4789
-29.7394
-30.093
-30.5451
-31.1013
-31.7678
-32.5492
-33.4473
-34.4578
-35.5671
-36.7473
-37.9514
-39.1084
-28.5255
-28.6102
-28.7814
-29.0431
-29.4011
-29.8633
-30.4394
-31.1404
-31.9776
-32.9603
-34.0925
-35.3676
-36.7619
-38.2258
-39.671
-27.7439
-27.8263
-27.9935
-28.2505
-28.6049
-29.0676
-29.6525
-30.3768
-31.2605
-32.3238
-33.5841
-35.0488
-36.7069
-38.5187
-40.3976
-26.8799
-26.9576
-27.1159
-27.3604
-27.7005
-28.1497
-28.7261
-29.4539
-30.3635
-31.4902
-32.8712
-34.5366
-36.4987
-38.7449
-41.2451
-25.9382
-26.0085
-26.152
-26.3748
-26.6872
-27.1044
-27.6482
-28.3492
-29.2492
-30.4025
-31.874
-33.7286
-36.0084
-38.7198
-41.9485
-24.9264
-24.9862
-25.1087
-25.2997
-25.5692
-25.9325
-26.4129
-27.0453
-27.8814
-28.9966
-30.4946
-32.4983
-35.0931
-38.1903
-41.6108
-23.8548
-23.9014
-23.997
-24.1461
-24.3572
-24.6434
-25.0256
-25.5377
-26.2345
-27.2082
-28.6116
-30.684
-33.696
-37.3852
-38.0856
-38.2413
-38.6814
-39.0974
-39.4873
-39.8502
-40.1861
-40.4953
-40.7784
-41.0356
-41.2667
-41.4712
-41.648
-41.7963
-41.9151
-42.0045
-42.0652
-42.0992
-42.1095
-42.0999
-42.0745
-42.0377
-41.9933
-41.9442
-41.8921
-41.8376
-41.7801
-41.7181
-41.6497
-41.5729
-41.4862
-41.3891
-41.2819
-41.166
-41.0437
-40.9178
-40.7912
-40.6664
-40.5454
-40.4289
-40.3167
-40.2076
-40.0997
-39.9906
-39.8782
-39.7605
-39.6368
-39.507
-39.3723
-39.2346
-39.0963
-38.96
-38.828
-38.7019
-38.5823
-38.4689
-38.3604
-38.255
-38.1501
-38.0438
-37.9342
-37.8203
-37.7023
-37.581
-37.4584
-37.3366
-37.2183
-37.1054
-36.9996
-36.9017
-36.8112
-36.7274
-36.6485
-36.5727
-36.4984
-36.4245
-36.351
-36.2789
-36.2104
-36.1486
-36.0974
-36.0608
-36.0425
-36.0455
-36.0714
-36.1205
-36.191
-36.2796
-36.3813
-36.49
-36.5988
-38.2715
-38.7161
-39.1349
-39.5261
-39.8891
-40.2244
-40.533
-40.8156
-41.073
-41.3051
-41.5109
-41.6893
-41.8386
-41.9575
-42.0457
-42.1037
-42.1334
-42.1382
-42.1224
-42.091
-42.0487
-42.0001
-41.9485
-41.8956
-41.842
-41.7866
-41.7274
-41.6617
-41.587
-41.5013
-41.4037
-41.2944
-41.1753
-41.0489
-40.9188
-40.7885
-40.6611
-40.5388
-40.4226
-40.3122
-40.206
-40.1014
-39.9956
-39.8856
-39.7693
-39.6455
-39.5141
-39.3766
-39.2354
-39.0934
-38.9538
-38.8196
-38.6925
-38.5734
-38.4618
-38.3562
-38.254
-38.1524
-38.0485
-37.9403
-37.8264
-37.7069
-37.583
-37.4571
-37.3318
-37.2103
-37.0952
-36.9884
-36.8907
-36.8018
-36.7203
-36.644
-36.5705
-36.4977
-36.424
-36.349
-36.2737
-36.2007
-36.1334
-36.0764
-36.0344
-36.0119
-36.0124
-36.0381
-36.0895
-36.1649
-36.2607
-36.3713
-36.4899
-36.6087
-38.3344
-38.7881
-39.2122
-39.6054
-39.9679
-40.3014
-40.6078
-40.8893
-41.147
-41.3811
-41.5903
-41.7723
-41.9245
-42.0443
-42.1304
-42.1827
-42.2035
-42.1966
-42.1676
-42.1229
-42.0689
-42.0114
-41.9544
-41.9002
-41.8489
-41.7986
-41.7459
-41.6867
-41.617
-41.5336
-41.4349
-41.3212
-41.1948
-41.0595
-40.9202
-40.7817
-40.6484
-40.5235
-40.4081
-40.3017
-40.2019
-40.1049
-40.0064
-39.9022
-39.789
-39.6649
-39.5301
-39.3864
-39.2372
-39.0869
-38.9401
-38.8008
-38.6715
-38.5536
-38.4462
-38.3469
-38.2522
-38.1578
-38.0596
-37.9544
-37.8405
-37.7178
-37.5881
-37.4547
-37.3216
-37.1931
-37.0731
-36.9641
-36.8672
-36.7817
-36.7056
-36.6354
-36.5675
-36.4983
-36.4252
-36.3473
-36.2654
-36.1826
-36.1035
-36.0338
-35.98
-35.9481
-35.943
-35.968
-36.024
-36.1095
-36.2204
-36.3499
-36.4895
-36.6296
-38.435
-38.9025
-39.3341
-39.7289
-40.0887
-40.4171
-40.7186
-40.9971
-41.2551
-41.493
-41.7087
-41.8983
-42.0569
-42.1798
-42.2635
-42.3074
-42.3134
-42.2868
-42.2354
-42.1682
-42.0943
-42.0217
-41.9563
-41.9007
-41.8544
-41.814
-41.7738
-41.7269
-41.6667
-41.5879
-41.4877
-41.3664
-41.2272
-41.0761
-40.9202
-40.7673
-40.6238
-40.4943
-40.3807
-40.2817
-40.1936
-40.1105
-40.0254
-39.9318
-39.8243
-39.6999
-39.5588
-39.404
-39.2406
-39.0755
-38.9157
-38.7673
-38.6344
-38.5186
-38.4188
-38.3311
-38.2499
-38.1686
-38.0807
-37.9812
-37.8672
-37.7388
-37.5986
-37.4518
-37.3046
-37.1638
-37.035
-36.9223
-36.8271
-36.7483
-36.6822
-36.6237
-36.5664
-36.5045
-36.4335
-36.3512
-36.2585
-36.1592
-36.0598
-35.9684
-35.8941
-35.8456
-35.8302
-35.853
-35.916
-36.0177
-36.1532
-36.3138
-36.4884
-36.6639
-38.5821
-39.0687
-39.5089
-39.9028
-40.2546
-40.5716
-40.8624
-41.1343
-41.3922
-41.6368
-41.8647
-42.069
-42.2408
-42.3715
-42.4542
-42.4864
-42.4702
-42.4129
-42.326
-42.223
-42.1177
-42.0219
-41.9441
-41.8877
-41.8515
-41.8292
-41.8113
-41.7863
-41.7432
-41.673
-41.5709
-41.4371
-41.2768
-41.0993
-40.9161
-40.7393
-40.579
-40.4424
-40.3321
-40.2461
-40.1783
-40.1189
-40.0569
-39.9814
-39.8837
-39.7591
-39.6075
-39.4338
-39.2465
-39.0565
-38.8749
-38.7115
-38.5726
-38.4607
-38.3739
-38.306
-38.2479
-38.1889
-38.1186
-38.0287
-37.9148
-37.7766
-37.6187
-37.4493
-37.2786
-37.1171
-36.9739
-36.8553
-36.7634
-36.6963
-36.6481
-36.6101
-36.5719
-36.5238
-36.4579
-36.3701
-36.2611
-36.1361
-36.0045
-35.8783
-35.7711
-35.6955
-35.6626
-35.6802
-35.7522
-35.8774
-36.0497
-36.2578
-36.486
-36.7159
-38.7895
-39.3015
-39.7505
-40.1374
-40.4707
-40.764
-41.0332
-41.2918
-41.5485
-41.8047
-42.0547
-42.2863
-42.4841
-42.6321
-42.7177
-42.7349
-42.686
-42.5818
-42.4398
-42.2811
-42.1272
-41.9963
-41.9008
-41.8459
-41.8284
-41.8381
-41.8589
-41.872
-41.8587
-41.804
-41.6998
-41.5461
-41.3513
-41.1307
-40.903
-40.6873
-40.5002
-40.3525
-40.2484
-40.1845
-40.1506
-40.1311
-40.1078
-40.0629
-39.9819
-39.857
-39.688
-39.4831
-39.2562
-39.0253
-38.8081
-38.6202
-38.4719
-38.3668
-38.3017
-38.2667
-38.2471
-38.2254
-38.1846
-38.1111
-37.9972
-37.8428
-37.6555
-37.4487
-37.2392
-37.0439
-36.8775
-36.7498
-36.6641
-36.6172
-36.5994
-36.5966
-36.5919
-36.5687
-36.5137
-36.4197
-36.2867
-36.1225
-35.9412
-35.7612
-35.6023
-35.4838
-35.4221
-35.4292
-35.5116
-35.6693
-35.8947
-36.1727
-36.481
-36.7926
-39.0787
-39.6252
-40.0814
-40.4492
-40.7442
-40.9914
-41.2191
-41.4521
-41.7054
-41.9817
-42.271
-42.5524
-42.799
-42.9825
-43.0798
-43.0787
-42.9815
-42.805
-42.5774
-42.3324
-42.1037
-41.9197
-41.7993
-41.75
-41.7662
-41.8308
-41.9177
-41.9956
-42.0336
-42.0065
-41.9
-41.714
-41.4631
-41.1722
-40.8724
-40.5945
-40.3645
-40.1998
-40.1068
-40.0798
-40.1022
-40.1488
-40.1899
-40.1962
-40.1435
-40.0182
-39.8205
-39.5638
-39.272
-38.9741
-38.6992
-38.472
-38.3088
-38.2153
-38.1862
-38.2054
-38.2492
-38.2893
-38.2977
-38.2515
-38.1378
-37.9565
-37.7204
-37.4521
-37.1791
-36.9292
-36.7255
-36.5836
-36.5089
-36.4959
-36.5293
-36.5859
-36.6383
-36.6592
-36.6259
-36.5254
-36.3573
-36.1335
-35.8762
-35.6135
-35.3755
-35.1905
-35.0825
-35.0696
-35.1626
-35.3635
-35.6641
-36.0441
-36.4714
-36.9049
-39.4828
-40.0791
-40.5395
-40.866
-41.0865
-41.2467
-41.3977
-41.5831
-41.8291
-42.1401
-42.4984
-42.8688
-43.2047
-43.4569
-43.5836
-43.5609
-43.391
-43.1019
-42.7401
-42.3603
-42.0159
-41.7512
-41.5956
-41.5598
-41.6344
-41.7916
-41.9892
-42.1767
-42.3024
-42.3234
-42.2145
-41.9757
-41.6322
-41.2268
-40.8103
-40.4325
-40.1347
-39.944
-39.8703
-39.9041
-40.0188
-40.1742
-40.3223
-40.4144
-40.4094
-40.2839
-40.0379
-39.6952
-39.2965
-38.8897
-38.5218
-38.2317
-38.0452
-37.9712
-38.0009
-38.1087
-38.2566
-38.399
-38.4895
-38.4892
-38.3757
-38.149
-37.8317
-37.4621
-37.086
-36.7478
-36.4846
-36.3207
-36.2648
-36.3079
-36.4257
-36.5813
-36.7303
-36.8276
-36.8347
-36.7287
-36.5079
-36.1926
-35.8188
-35.4304
-35.0724
-34.7862
-34.6059
-34.5577
-34.6582
-34.9143
-35.3191
-35.8474
-36.4527
-37.0708
-40.0526
-40.7288
-41.1903
-41.4356
-41.5157
-41.5153
-41.5268
-41.6267
-41.8595
-42.2304
-42.7085
-43.2346
-43.7309
-44.1122
-44.3024
-44.2551
-43.9722
-43.5034
-42.9286
-42.3373
-41.8135
-41.4256
-41.2192
-41.2105
-41.3837
-41.6942
-42.0754
-42.4465
-42.7222
-42.8273
-42.7159
-42.3882
-41.8904
-41.2971
-40.6926
-40.1555
-39.7504
-39.5198
-39.4788
-39.6119
-39.8768
-40.2102
-40.5356
-40.7722
-40.849
-40.723
-40.3945
-39.9074
-39.3325
-38.7492
-38.2323
-37.8423
-37.6195
-37.5779
-37.703
-37.9544
-38.2721
-38.5834
-38.8118
-38.8899
-38.7766
-38.4722
-38.0181
-37.4816
-36.9381
-36.4585
-36.1006
-35.9025
-35.8779
-36.0125
-36.2677
-36.5859
-36.8969
-37.1259
-37.2066
-37.0971
-36.7948
-36.3361
-35.7824
-35.2033
-34.6661
-34.2291
-33.9393
-33.8315
-33.93
-34.2508
-34.7962
-35.5398
-36.4155
-37.3195
-40.8647
-41.6876
-42.1528
-42.2434
-42.0608
-41.767
-41.5289
-41.479
-41.691
-42.1664
-42.8494
-43.6434
-44.4226
-45.0426
-45.363
-45.2887
-44.8211
-44.0576
-43.1408
-42.217
-41.4152
-40.8388
-40.5581
-40.5994
-40.9353
-41.4949
-42.1761
-42.8538
-43.3877
-43.6429
-43.5287
-43.0458
-42.286
-41.3839
-40.4775
-39.6886
-39.1149
-38.8226
-38.8365
-39.13
-39.6361
-40.2578
-40.8766
-41.36
-41.5808
-41.4536
-40.9795
-40.2461
-39.3804
-38.5134
-37.7599
-37.2121
-36.9327
-36.9448
-37.2233
-37.7045
-38.2966
-38.8873
-39.3507
-39.5663
-39.4526
-39.0107
-38.3233
-37.5111
-36.6982
-35.994
-35.4863
-35.2347
-35.2616
-35.5432
-36.019
-36.6011
-37.1813
-37.6378
-37.8523
-37.7432
-37.3067
-36.6166
-35.7824
-34.916
-34.1154
-33.4602
-33.0107
-32.8084
-32.8814
-33.2639
-33.9878
-35.042
-36.3375
-37.7008
-42.0283
-43.1615
-43.655
-43.4453
-42.7663
-41.9384
-41.2599
-40.9544
-41.1433
-41.8034
-42.8307
-44.0735
-45.3437
-46.4045
-46.9919
-46.8887
-46.0958
-44.8327
-43.3629
-41.9212
-40.6922
-39.826
-39.4331
-39.5643
-40.1647
-41.1206
-42.282
-43.4682
-44.4543
-44.9906
-44.8726
-44.102
-42.8867
-41.4765
-40.0934
-38.9119
-38.0741
-37.6846
-37.7914
-38.3421
-39.2289
-40.3095
-41.4127
-42.3259
-42.8137
-42.6835
-41.9382
-40.775
-39.4304
-38.1141
-36.9912
-36.1956
-35.8261
-35.928
-36.4516
-37.2949
-38.3232
-39.3743
-40.2466
-40.7167
-40.6013
-39.9029
-38.8082
-37.5415
-36.302
-35.2466
-34.5031
-34.1658
-34.2785
-34.7945
-35.6173
-36.6188
-37.6439
-38.4981
-38.964
-38.8607
-38.1838
-37.1047
-35.8287
-34.5341
-33.3552
-32.3949
-31.7261
-31.3888
-31.3874
-31.7853
-32.7038
-34.1965
-36.1619
-38.3024
-43.6683
-45.5541
-46.1691
-45.3253
-43.688
-41.8943
-40.4537
-39.718
-39.917
-40.9118
-42.5017
-44.4643
-46.5663
-48.4479
-49.6153
-49.4815
-48.0479
-45.9052
-43.5447
-41.3191
-39.4469
-38.1317
-37.5535
-37.8537
-38.8819
-40.4503
-42.3521
-44.3709
-46.1685
-47.2806
-47.156
-45.7985
-43.7682
-41.5303
-39.4187
-37.6403
-36.3878
-35.832
-36.1071
-37.0701
-38.5426
-40.3285
-42.2225
-43.9045
-44.9365
-44.7993
-43.4986
-41.5652
-39.4395
-37.4364
-35.7512
-34.5655
-34.0408
-34.3039
-35.2195
-36.6189
-38.3168
-40.1188
-41.7218
-42.71
-42.5897
-41.3656
-39.5407
-37.5326
-35.6405
-34.0502
-32.9349
-32.4491
-32.7145
-33.6039
-34.9583
-36.6027
-38.3527
-39.9176
-40.8952
-40.804
-39.6401
-37.8763
-35.9016
-33.9856
-32.2801
-30.9099
-29.9641
-29.4856
-29.3182
-29.557
-30.5931
-32.6705
-35.7342
-39.2887
-45.7695
-49.7653
-50.7736
-48.3507
-44.8431
-41.3432
-38.6324
-37.135
-37.5452
-39.163
-41.6363
-44.6542
-48.1061
-51.52
-54.1125
-53.9462
-51.0209
-47.2913
-43.5322
-40.2079
-37.3997
-35.3762
-34.4089
-35.0947
-36.8215
-39.2996
-42.2539
-45.5923
-48.8695
-51.3517
-51.2147
-48.4639
-44.9485
-41.4024
-38.2641
-35.6113
-33.6982
-32.783
-33.4321
-35.0644
-37.405
-40.1921
-43.3376
-46.4188
-48.7429
-48.5907
-45.97
-42.6324
-39.2719
-36.3009
-33.7918
-31.9837
-31.1211
-31.7401
-33.2907
-35.5132
-38.1605
-41.1501
-44.0822
-46.2993
-46.1677
-43.6935
-40.537
-37.3568
-34.5445
-32.1695
-30.4604
-29.6508
-30.2519
-31.7436
-33.8816
-36.4345
-39.3279
-42.1828
-44.3657
-44.2921
-41.9602
-38.9517
-35.8901
-33.1339
-30.7224
-28.8137
-27.5293
-27.1346
-26.664
-26.1804
-26.9832
-29.724
-34.5996
-40.9914
-47.2911
-58.2541
-60.2557
-52.9126
-46.0071
-39.6669
-35.0665
-31.8061
-33.4344
-36.1828
-39.9865
-44.2194
-49.7005
-55.7747
-62.5824
-62.3837
-55.1521
-48.72
-42.8935
-38.3534
-34.2224
-31.0996
-28.884
-30.8367
-33.679
-37.4635
-41.6024
-46.9016
-52.7155
-59.1944
-59.0374
-52.2304
-46.173
-40.6872
-36.4105
-32.5174
-29.5714
-27.4814
-29.3415
-32.0388
-35.6245
-39.5394
-44.5453
-50.0236
-56.115
-55.9367
-49.4737
-43.7327
-38.5433
-34.5005
-30.8229
-28.0404
-26.0679
-27.8348
-30.3942
-33.7959
-37.5112
-42.264
-47.4723
-53.2709
-53.119
-47.0036
-41.5677
-36.6511
-32.8187
-29.33
-26.6906
-24.8208
-26.5071
-28.9525
-32.2074
-35.7762
-40.3583
-45.4156
-51.0854
-51.0322
-45.2548
-40.1033
-35.4389
-31.7859
-28.4403
-25.8187
-23.8132
-24.8927
-24.0284
-20.9517
-20.5823
-23.7035
-31.2819
-44.1258
-41.2814
-79.714
-82.9671
-56.613
-46.3244
-35.4895
-29.572
-19.4377
-27.7111
-31.6828
-37.7188
-41.9872
-50.4411
-58.9733
-81.1413
-80.9486
-58.1317
-49.2768
-40.4024
-35.9099
-29.5932
-25.5167
-17.3566
-25.2978
-29.1799
-35.1168
-39.2803
-47.4697
-55.6041
-76.5926
-76.4361
-54.9175
-46.5743
-38.231
-34.0045
-28.0595
-24.2119
-16.4918
-24.0451
-27.7339
-33.37
-37.3157
-45.0726
-52.7456
-72.5156
-72.3324
-51.938
-44.0385
-36.1637
-32.174
-26.5653
-22.9306
-15.6298
-22.7884
-26.285
-31.6269
-35.3679
-42.7218
-50.0124
-68.8114
-68.6575
-49.3355
-41.8505
-34.384
-30.5982
-25.2674
-21.8127
-14.8699
-21.6693
-24.9958
-30.0811
-33.6589
-40.7044
-47.7666
-66.046
-66.0154
-47.6477
-40.5537
-33.5313
-29.9953
-25.1158
-21.9365
-15.6548
-25.4501
-24.5785
-11.8244
-9.15486
-11.2647
-20.3817
-50.2372
-36.7097
-36.8121
-36.8858
-36.9255
-36.9294
-36.8993
-36.84
-36.7584
-36.6625
-36.561
-36.4621
-36.3733
-36.301
-36.25
-36.2236
-36.7296
-36.8407
-36.9199
-36.9613
-36.9634
-36.9286
-36.8624
-36.7726
-36.6681
-36.5583
-36.4519
-36.3569
-36.2796
-36.2253
-36.1973
-36.7718
-36.9013
-36.9917
-37.0364
-37.0343
-36.9892
-36.9083
-36.8014
-36.6792
-36.5522
-36.4305
-36.3226
-36.2354
-36.1744
-36.1429
-36.8414
-37.0009
-37.1091
-37.1583
-37.1483
-37.0855
-36.9803
-36.8456
-36.6949
-36.541
-36.3953
-36.2675
-36.1651
-36.0937
-36.0572
-36.9472
-37.1519
-37.2855
-37.3393
-37.3153
-37.2242
-37.0818
-36.9058
-36.7137
-36.5214
-36.3422
-36.1869
-36.0637
-35.9784
-35.9348
-37.1038
-37.3739
-37.5418
-37.598
-37.5493
-37.4142
-37.2168
-36.982
-36.7329
-36.4888
-36.2653
-36.0743
-35.9243
-35.8213
-35.7689
-37.3345
-37.6981
-37.9099
-37.9615
-37.8697
-37.6666
-37.3892
-37.0727
-36.7469
-36.4355
-36.1559
-35.9206
-35.738
-35.6136
-35.5506
-37.6772
-38.1739
-38.4382
-38.4683
-38.3015
-37.9934
-37.6007
-37.1725
-36.7467
-36.3504
-36.0023
-35.7142
-35.4935
-35.3444
-35.2694
-38.196
-38.8822
-39.2008
-39.1719
-38.8746
-38.4047
-37.8478
-37.27
-36.7168
-36.2173
-35.7886
-35.4404
-35.1772
-35.0012
-34.9132
-39.0029
-39.9581
-40.311
-40.1439
-39.6205
-38.9028
-38.1158
-37.3428
-36.6332
-36.0132
-35.4946
-35.0815
-34.7739
-34.5702
-34.4688
-40.307
-41.6364
-41.9409
-41.4723
-40.5606
-39.4701
-38.3699
-37.3524
-36.4601
-35.7075
-35.0951
-34.6172
-34.2666
-34.0368
-33.9231
-42.5296
-44.3396
-44.3441
-43.2438
-41.6795
-40.0472
-38.5414
-37.2366
-36.1472
-35.2618
-34.5611
-34.0255
-33.6384
-33.3872
-33.2637
-46.6107
-48.8482
-47.8521
-45.4792
-42.8664
-40.4977
-38.5118
-36.9055
-35.6301
-34.6314
-33.8621
-33.2855
-32.8744
-32.61
-32.4807
-54.9314
-56.5904
-52.7369
-47.9544
-43.8094
-40.5653
-38.1028
-36.2434
-34.8366
-33.7715
-32.9704
-32.3798
-31.9635
-31.6978
-31.5684
-74.5248
-69.8451
-58.5509
-49.792
-43.8514
-39.8514
-37.0906
-35.1287
-33.7012
-32.6476
-31.8682
-31.2999
-30.9021
-30.6494
-30.5266
-22.8298
-22.8623
-22.9287
-23.032
-23.1774
-23.3736
-23.6349
-23.986
-24.4711
-25.1753
-26.2757
-28.1738
-31.8417
-39.5205
-53.7719
-21.8754
-21.8941
-21.932
-21.9899
-22.0696
-22.1739
-22.3082
-22.4821
-22.7156
-23.0527
-23.6022
-24.6846
-27.4597
-37.0936
-79.721
-20.9081
-20.9127
-20.9214
-20.9328
-20.9446
-20.9535
-20.9537
-20.9366
-20.888
-20.782
-20.5609
-20.044
-18.4623
-11.7735
25.5035
-19.9376
-19.9285
-19.9089
-19.8753
-19.8218
-19.7389
-19.6112
-19.4129
-19.0997
-18.5903
-17.7229
-16.152
-13.1453
-7.71141
-3.81381
-18.9734
-18.9518
-18.9062
-18.8316
-18.7194
-18.5556
-18.3176
-17.9688
-17.4476
-16.6462
-15.3691
-13.245
-9.53639
-2.59779
13.4636
-18.0243
-17.9917
-17.9236
-17.8141
-17.6528
-17.4236
-17.1009
-16.6444
-15.9899
-15.0328
-13.6026
-11.4313
-8.16889
-3.82533
-1.97632
-17.0979
-17.0562
-16.9699
-16.8325
-16.6335
-16.3566
-15.977
-15.4575
-14.7424
-13.7481
-12.3511
-10.3736
-7.55114
-3.322
4.94055
-16.2006
-16.1519
-16.0516
-15.8937
-15.6683
-15.3609
-14.9501
-14.4064
-13.6887
-12.743
-11.503
-9.90227
-7.9099
-5.62003
-3.47866
-15.3371
-15.2833
-15.1733
-15.0018
-14.7602
-14.4369
-14.0156
-13.4759
-12.7933
-11.9421
-10.9055
-9.70281
-8.47514
-7.81501
-10.4109
-14.5109
-14.4539
-14.3379
-14.1584
-13.909
-13.5809
-13.1634
-12.6448
-12.0149
-11.27
-10.4232
-9.52072
-8.6462
-7.74891
-5.03545
-13.7243
-13.6656
-13.5465
-13.3637
-13.1125
-12.787
-12.3814
-11.891
-11.3163
-10.6685
-9.97966
-9.3192
-8.83305
-8.94403
-11.8858
-12.9786
-12.9193
-12.7993
-12.6165
-12.3675
-12.0489
-11.6582
-11.1957
-10.6685
-10.0956
-9.51638
-8.99665
-8.60521
-8.17328
-5.53267
-12.2741
-12.215
-12.0959
-11.9152
-11.6708
-11.3608
-10.9848
-10.5455
-10.0525
-9.52719
-9.01177
-8.58501
-8.4055
-8.93628
-12.5918
-11.6106
-11.5524
-11.4354
-11.2583
-11.0197
-10.7187
-10.3553
-9.9326
-9.4589
-8.95189
-8.4456
-8.00168
-7.71256
-7.52924
-5.38973
-10.9876
-10.9307
-10.8165
-10.644
-10.4121
-10.1198
-9.76703
-9.35514
-8.88847
-8.3761
-7.83614
-7.31088
-6.94614
-7.48062
-13.5013
-10.4041
-10.3489
-10.2382
-10.071
-9.8464
-9.56304
-9.21981
-8.81575
-8.34978
-7.81949
-7.2165
-6.50862
-5.55528
-3.6221
3.75392
-9.85882
-9.80569
-9.69902
-9.53802
-9.32148
-9.04783
-8.71487
-8.31937
-7.85578
-7.31338
-6.66971
-5.87683
-4.84489
-3.54328
-3.41607
-9.3505
-9.29966
-9.19761
-9.04356
-8.83625
-8.57382
-8.25338
-7.87028
-7.41653
-6.87763
-6.22654
-5.41109
-4.32176
-2.64887
1.11961
-8.87749
-8.82921
-8.73232
-8.58609
-8.38932
-8.14011
-7.83542
-7.47029
-7.03641
-6.51981
-5.89751
-5.13556
-4.2039
-3.2097
-3.34474
-8.43801
-8.39253
-8.30131
-8.16374
-7.97883
-7.74494
-7.45944
-7.11804
-6.71377
-6.2354
-5.66549
-4.97788
-4.12947
-2.98629
-0.669216
-8.03013
-7.98764
-7.90248
-7.77427
-7.60235
-7.38562
-7.12228
-6.80947
-6.44259
-6.01457
-5.51522
-4.93189
-4.25976
-3.57805
-3.61803
-7.65176
-7.61238
-7.53355
-7.41517
-7.25701
-7.05867
-6.81951
-6.53846
-6.21387
-5.84331
-5.42326
-4.94758
-4.39671
-3.66861
-2.13606
-7.30076
-7.26452
-7.19211
-7.08371
-6.93957
-6.76008
-6.54583
-6.29769
-6.01709
-5.70641
-5.36996
-5.01549
-4.65674
-4.31781
-4.04815
-6.97492
-6.94178
-6.87568
-6.77708
-6.64669
-6.48565
-6.29569
-6.07949
-5.84119
-5.58743
-5.32919
-5.08637
-4.90302
-4.91887
-5.77286
-6.67212
-6.64192
-6.58184
-6.49252
-6.3751
-6.2313
-6.0638
-5.87664
-5.67605
-5.47156
-5.27772
-5.11596
-5.01099
-4.93785
-4.38435
-6.3903
-6.36284
-6.3083
-6.2275
-6.12183
-5.99343
-5.84555
-5.68314
-5.51364
-5.34829
-5.204
-5.10613
-5.09687
-5.2904
-6.31752
-6.12755
-6.10256
-6.053
-5.97977
-5.88436
-5.76909
-5.63742
-5.49457
-5.34834
-5.21042
-5.09804
-5.03478
-5.04194
-5.06403
-4.43001
-5.88217
-5.85936
-5.81416
-5.74745
-5.6607
-5.55613
-5.43706
-5.30836
-5.17728
-5.05482
-4.95799
-4.91452
-4.97664
-5.29329
-6.63595
-5.65265
-5.63172
-5.59026
-5.52906
-5.44942
-5.35327
-5.2434
-5.1238
-5.00026
-4.88142
-4.78089
-4.72097
-4.73458
-4.81001
-4.26446
-5.43766
-5.41835
-5.38007
-5.32348
-5.24961
-5.15995
-5.05652
-4.942
-4.81997
-4.69533
-4.57561
-4.47635
-4.44961
-4.75795
-7.02372
-5.23608
-5.21818
-5.18262
-5.1299
-5.06077
-4.9762
-4.87734
-4.76542
-4.6415
-4.50583
-4.35614
-4.18138
-3.93197
-3.34654
-0.824582
-5.04695
-5.03027
-4.99709
-4.94774
-4.88267
-4.80238
-4.70723
-4.59719
-4.47121
-4.32609
-4.15409
-3.93825
-3.64768
-3.27992
-3.40569
-4.86942
-4.85384
-4.8228
-4.7765
-4.71515
-4.63889
-4.54749
-4.44004
-4.31421
-4.16502
-3.98249
-3.74705
-3.417
-2.87053
-1.496
-4.70271
-4.68815
-4.65912
-4.61571
-4.55801
-4.48591
-4.3989
-4.29567
-4.17346
-4.02711
-3.84765
-3.62155
-3.33661
-3.03618
-3.20968
-4.54611
-4.53254
-4.50543
-4.46487
-4.41088
-4.3433
-4.26158
-4.16448
-4.04949
-3.91219
-3.74522
-3.53693
-3.26701
-2.87266
-1.96237
-4.39896
-4.38632
-4.36109
-4.32337
-4.2732
-4.21051
-4.13497
-4.04571
-3.94103
-3.8179
-3.6715
-3.49511
-3.28381
-3.06743
-3.16414
-4.2606
-4.24886
-4.22545
-4.19052
-4.14421
-4.08667
-4.0179
-3.93768
-3.84538
-3.73977
-3.61863
-3.47754
-3.30417
-3.04474
-2.39749
-4.1304
-4.11951
-4.09783
-4.06557
-4.02304
-3.97063
-3.90879
-3.83804
-3.75899
-3.67245
-3.57961
-3.48242
-3.3843
-3.29135
-3.21669
-4.00778
-3.99766
-3.97755
-3.94777
-3.90875
-3.86115
-3.80588
-3.74416
-3.67782
-3.60952
-3.54362
-3.48794
-3.46085
-3.52523
-3.98392
-3.8922
-3.88275
-3.86402
-3.83639
-3.80043
-3.75702
-3.70744
-3.65352
-3.598
-3.54495
-3.50053
-3.47363
-3.47389
-3.48524
-3.24924
-3.78319
-3.77429
-3.75668
-3.73079
-3.69729
-3.6572
-3.61203
-3.56401
-3.51647
-3.47441
-3.4453
-3.44047
-3.47925
-3.61701
-4.17088
-3.68037
-3.67188
-3.65512
-3.6305
-3.59874
-3.56091
-3.5186
-3.47418
-3.43116
-3.39487
-3.37321
-3.37704
-3.41589
-3.45979
-3.1626
-3.58346
-3.57524
-3.55901
-3.53517
-3.50441
-3.46774
-3.42666
-3.38337
-3.34119
-3.3052
-3.28342
-3.2893
-3.34902
-3.5394
-4.26225
-3.49226
-3.48418
-3.46819
-3.44467
-3.4142
-3.37764
-3.33625
-3.29181
-3.24695
-3.20566
-3.17443
-3.16419
-3.19144
-3.24923
-2.97809
-3.40668
-3.39861
-3.38262
-3.35901
-3.32822
-3.29092
-3.24797
-3.20055
-3.15022
-3.09916
-3.05088
-3.01306
-3.01265
-3.18746
-4.39118
-3.32672
-3.31856
-3.30236
-3.27833
-3.24678
-3.20812
-3.16282
-3.11133
-3.05401
-2.99074
-2.92007
-2.83596
-2.7122
-2.41113
-1.08907
-3.25243
-3.24411
-3.22755
-3.20288
-3.17029
-3.12995
-3.08196
-3.02618
-2.96195
-2.88747
-2.7986
-2.68642
-2.53488
-2.34381
-2.41973
-3.18392
-3.17539
-3.15837
-3.13295
-3.09919
-3.0571
-3.00652
-2.94691
-2.87701
-2.79421
-2.69333
-2.56422
-2.38503
-2.09105
-1.35498
-3.12135
-3.11257
-3.09505
-3.06881
-3.03388
-2.99016
-2.93736
-2.87479
-2.80104
-2.7135
-2.60769
-2.47681
-2.31491
-2.14528
-2.22697
-3.06488
-3.05584
-3.03778
-3.01073
-2.97468
-2.92953
-2.875
-2.81045
-2.73466
-2.6455
-2.53946
-2.41097
-2.25016
-2.02496
-1.53069
-3.0147
-3.00539
-2.98678
-2.95891
-2.92181
-2.87543
-2.8196
-2.75392
-2.67758
-2.58924
-2.48682
-2.36757
-2.23014
-2.09146
-2.11594
-2.97101
-2.96139
-2.9422
-2.91351
-2.87539
-2.8279
-2.77107
-2.70479
-2.62884
-2.54277
-2.44588
-2.33681
-2.21099
-2.04464
-1.69291
-2.93399
-2.92406
-2.90424
-2.87467
-2.83548
-2.78688
-2.7291
-2.6624
-2.58713
-2.50382
-2.41342
-2.3177
-2.22001
-2.12651
-2.0507
-2.90389
-2.89359
-2.87308
-2.8425
-2.80212
-2.75224
-2.69333
-2.62597
-2.55102
-2.46982
-2.38466
-2.29997
-2.22612
-2.19609
-2.35572
-2.88095
-2.87023
-2.8489
-2.81717
-2.77535
-2.7239
-2.66344
-2.59482
-2.51926
-2.43857
-2.35558
-2.27472
-2.20182
-2.13395
-1.96844
-2.86546
-2.85425
-2.83196
-2.79884
-2.75528
-2.70182
-2.63922
-2.5685
-2.49107
-2.40893
-2.32503
-2.24394
-2.17404
-2.13959
-2.26916
-2.85775
-2.84598
-2.82256
-2.78778
-2.74209
-2.68609
-2.62064
-2.54684
-2.46616
-2.38053
-2.29254
-2.20541
-2.12165
-2.0313
-1.82297
-2.85824
-2.84579
-2.82105
-2.78431
-2.73605
-2.67695
-2.60788
-2.52998
-2.44469
-2.35378
-2.25947
-2.16454
-2.07385
-2.00491
-2.06879
-2.86738
-2.85416
-2.82787
-2.78884
-2.73757
-2.67474
-2.60125
-2.51826
-2.42712
-2.32942
-2.22682
-2.12075
-2.01095
-1.88628
-1.65725
-2.88571
-2.8716
-2.84355
-2.80189
-2.74711
-2.67993
-2.60124
-2.5122
-2.41412
-2.30846
-2.1966
-2.07957
-1.95838
-1.84011
-1.78819
-2.91383
-2.89874
-2.8687
-2.82405
-2.76529
-2.69311
-2.60844
-2.51242
-2.4064
-2.29182
-2.16997
-2.04128
-1.9038
-1.74783
-1.53066
-2.95246
-2.93626
-2.90401
-2.85602
-2.79278
-2.71497
-2.62352
-2.51959
-2.40462
-2.28025
-2.14808
-2.00911
-1.86207
-1.69804
-1.47456
-3.00233
-2.98493
-2.95025
-2.89859
-2.8304
-2.74633
-2.64727
-2.53443
-2.40939
-2.2741
-2.13094
-1.98254
-1.83214
-1.68951
-1.62182
-3.06431
-3.0456
-3.0083
-2.95265
-2.87905
-2.78809
-2.6806
-2.55777
-2.42127
-2.27343
-2.11744
-1.95736
-1.79682
-1.62893
-1.36336
-3.13928
-3.11919
-3.07909
-3.01918
-2.93977
-2.84134
-2.72459
-2.5906
-2.44102
-2.27841
-2.10679
-1.93252
-1.76662
-1.63616
-1.66848
-3.22822
-3.20667
-3.16365
-3.09926
-3.01371
-2.90731
-2.78056
-2.63427
-2.46984
-2.28967
-2.09797
-1.90187
-1.7118
-1.53034
-1.24791
-3.33212
-3.30909
-3.26305
-3.19404
-3.10213
-2.98742
-2.8501
-2.69055
-2.50959
-2.30894
-2.09222
-1.86705
-1.651
-1.49461
-1.59847
-3.45202
-3.42749
-3.3784
-3.30473
-3.20638
-3.08323
-2.93508
-2.76171
-2.56302
-2.33939
-2.09234
-1.82591
-1.54877
-1.27814
-1.05376
-3.58896
-3.56294
-3.51084
-3.43256
-3.32787
-3.19642
-3.03758
-2.85045
-2.63378
-2.38609
-2.10593
-1.79221
-1.44204
-1.02953
-0.353172
-3.74399
-3.7165
-3.66147
-3.57872
-3.46797
-3.32863
-3.15973
-2.9597
-2.72608
-2.45534
-2.14285
-1.78382
-1.37859
-0.964133
-0.836056
-3.91811
-3.88921
-3.83134
-3.74435
-3.62791
-3.48136
-3.30352
-3.09229
-2.84418
-2.5536
-2.21207
-1.80753
-1.32157
-0.699848
0.423283
-4.1123
-4.08203
-4.02144
-3.93044
-3.80876
-3.65584
-3.47049
-3.25049
-2.99177
-2.68723
-2.32507
-1.88777
-1.35884
-0.783751
-0.700484
-4.32752
-4.2959
-4.23267
-4.13784
-4.01133
-3.85283
-3.66153
-3.43558
-3.17119
-2.86089
-2.49026
-2.03164
-1.42816
-0.526103
1.39674
-4.56471
-4.53173
-4.46585
-4.36724
-4.23611
-4.07261
-3.87663
-3.64737
-3.38251
-3.07643
-2.71657
-2.27611
-1.70484
-0.977322
-0.789651
-4.82481
-4.7904
-4.72176
-4.61923
-4.48338
-4.31495
-4.11484
-3.88389
-3.62246
-3.32933
-2.99886
-2.61142
-2.09002
-1.05364
2.77331
-5.10881
-5.07286
-5.0012
-4.89437
-4.75327
-4.5793
-4.37446
-4.14158
-3.88442
-3.60816
-3.32071
-3.03976
-2.83284
-3.06784
-6.08319
-5.41778
-5.38012
-5.30507
-5.19331
-5.046
-4.86508
-4.65358
-4.41612
-4.15967
-3.89477
-3.63805
-3.41671
-3.26876
-3.15123
-1.95654
-5.75292
-5.71333
-5.63444
-5.51693
-5.36207
-5.1721
-4.95072
-4.70386
-4.44077
-4.1757
-3.93083
-3.74268
-3.68358
-3.98262
-5.91085
-6.11555
-6.07384
-5.99065
-5.86649
-5.70253
-5.50093
-5.26556
-5.00288
-4.72326
-4.44259
-4.18424
-3.97903
-3.84968
-3.68264
-2.29354
-6.50714
-6.46318
-6.37529
-6.24371
-6.06913
-5.85323
-5.59937
-5.31367
-5.00646
-4.694
-4.40073
-4.16272
-4.04196
-4.23129
-5.88829
-6.92927
-6.88301
-6.79028
-6.65078
-6.46444
-6.23188
-5.95528
-5.63942
-5.29332
-4.93209
-4.57884
-4.26499
-4.0189
-3.76072
-2.45696
-7.38352
-7.33512
-7.23775
-7.09039
-6.89183
-6.64114
-6.33845
-5.98616
-5.59068
-5.16464
-4.72959
-4.32021
-4.00424
-4.01624
-5.61822
-7.87139
-7.82124
-7.71994
-7.56556
-7.35543
-7.0865
-6.75606
-6.3629
-5.90926
-5.40346
-4.86251
-4.31056
-3.76182
-3.1676
-2.39393
-8.39408
-8.34289
-8.239
-8.07945
-7.85986
-7.57459
-7.21724
-6.78165
-6.26405
-5.6667
-5.00307
-4.29868
-3.55099
-2.44356
1.36765
-8.95233
-8.90112
-8.79671
-8.63505
-8.40991
-8.11274
-7.73274
-7.25736
-6.67423
-5.97596
-5.17195
-4.31686
-3.58997
-3.59715
-6.95617
-9.54615
-9.4963
-9.39417
-9.23473
-9.00997
-8.70842
-8.31447
-7.80791
-7.16437
-6.35865
-5.3763
-4.24603
-3.11919
-2.42308
-2.88052
-10.1746
-10.1278
-10.0314
-9.87976
-9.66337
-9.36827
-8.9744
-8.45359
-7.76713
-6.864
-5.68338
-4.17282
-2.34928
-0.447923
0.877489
-10.8355
-10.7937
-10.7071
-10.5697
-10.3714
-10.0967
-9.72248
-9.21429
-8.52037
-7.56205
-6.21959
-4.31696
-1.63341
1.9272
5.55594
-11.5255
-11.4907
-11.4181
-11.302
-11.1325
-10.8943
-10.5636
-10.104
-9.45723
-8.52686
-7.1448
-5.0034
-1.52661
4.255
12.7544
-12.2398
-12.2138
-12.1593
-12.0714
-11.9414
-11.756
-11.4942
-11.1236
-10.5911
-9.80533
-8.59734
-6.61721
-3.02037
4.69547
25.8552
-146.554
-88.0584
-61.5563
-48.893
-42.111
-38.061
-35.4304
-33.6172
-32.3178
-31.3659
-30.6643
-30.1535
-29.7963
-29.5693
-29.459
-182.314
-82.3982
-54.6781
-43.9917
-38.6314
-35.4479
-33.3533
-31.8862
-30.8189
-30.027
-29.4374
-29.0048
-28.7005
-28.5064
-28.4119
47.0114
-26.6021
-35.9709
-35.3916
-33.6404
-32.0784
-30.8407
-29.8775
-29.1286
-28.5476
-28.1014
-27.7669
-27.5282
-27.3744
-27.2991
-7.01405
-15.4202
-24.1722
-27.6052
-28.518
-28.4837
-28.1374
-27.7201
-27.3219
-26.9746
-26.6879
-26.4626
-26.2968
-26.1879
-26.134
25.9767
-3.99815
-16.0672
-21.5691
-24.0532
-25.1056
-25.4833
-25.5495
-25.4796
-25.3595
-25.2316
-25.1169
-25.0258
-24.9633
-24.9316
-1.39528
-5.01065
-12.5227
-17.6288
-20.5827
-22.1961
-23.0456
-23.4734
-23.6723
-23.7499
-23.7662
-23.7549
-23.735
-23.7172
-23.7071
11.5132
-3.3171
-10.6491
-15.183
-18.0431
-19.817
-20.9007
-21.5561
-21.9493
-22.1829
-22.32
-22.3989
-22.4428
-22.4658
-22.4755
-3.04929
-6.83066
-10.7187
-13.8994
-16.2578
-17.9173
-19.0534
-19.821
-20.3369
-20.683
-20.9142
-21.0671
-21.1652
-21.2236
-21.2507
-14.9858
-10.2701
-11.2795
-13.187
-14.9578
-16.381