/*--------------------------------*- C++ -*----------------------------------*\
| =========                 |                                                 |
| \\      /  F ield         | OpenFOAM: The Open Source CFD Toolbox           |
|  \\    /   O peration     | Version:  5.x                                   |
|   \\  /    A nd           | Web:      www.OpenFOAM.org                      |
|    \\/     M anipulation  |                                                 |
\*---------------------------------------------------------------------------*/
FoamFile
{
    version     2.0;
    format      ascii;
    class       volScalarField;
    location    "11.1";
    object      gradTy;
}
// * * * * * * * * * * * * * * * * * * * * * * * * * * * * * * * * * * * * * //

dimensions      [0 -1 0 1 0 0 0];

internalField   nonuniform List<scalar> 
6300
(
32284.1
32252.2
32220.2
32188.1
32155.7
32122.9
32089.9
32056.3
32022.3
31987.8
31952.7
31917.1
31880.8
31843.9
31806.5
0.0533972
0.159692
0.264457
0.366558
0.464706
0.557406
0.642946
0.719412
0.784752
0.836902
0.873974
0.894506
0.897746
0.883929
0.854474
0.0895463
0.267846
0.443708
0.615309
0.780542
0.936939
1.08163
1.21134
1.32252
1.41152
1.47492
1.50997
1.51509
1.49049
1.43851
0.126488
0.378438
0.627219
0.870423
1.10521
1.32818
1.53527
1.72179
1.88246
2.01174
2.10422
2.15534
2.16218
2.12445
2.04531
0.164454
0.492193
0.8163
1.13394
1.44168
1.73527
2.00948
2.25806
2.47378
2.64874
2.77489
2.845
2.85384
2.79983
2.68651
0.203587
0.609573
1.01184
1.40735
1.7923
2.16172
2.50931
2.82718
3.10586
3.33453
3.50161
3.59592
3.6084
3.53453
3.37719
0.243905
0.730671
1.21411
1.69132
2.15841
2.60999
3.03884
3.43547
3.78795
4.08192
4.30114
4.42871
4.44935
4.3528
4.13858
0.285263
0.855091
1.42259
1.98542
2.54
3.08098
3.60057
4.08792
4.52857
4.9041
5.19236
5.36852
5.4076
5.28886
5.00292
0.327318
0.981833
1.63573
2.28773
2.93519
3.57336
4.19453
4.78708
5.33433
5.81361
6.19575
6.44552
6.52381
6.39229
6.0221
0.369493
1.10919
1.85075
2.59458
3.33966
4.08271
4.81714
5.53158
6.20812
6.82036
7.33163
7.69413
7.84995
7.73447
7.28266
0.410959
1.23466
2.0635
2.90019
3.74615
4.6007
5.45976
6.31402
7.14628
7.92818
8.61636
9.14946
9.4473
9.41261
8.92819
0.45064
1.35499
2.26841
3.1965
4.14404
5.11418
6.10723
7.1185
8.13489
9.1298
10.0562
10.8398
11.3764
11.5384
11.1753
0.487255
1.46623
2.45862
3.47338
4.51933
5.60477
6.7365
7.91791
9.14509
10.4
11.6388
12.7765
13.6771
14.1822
14.2317
0.519402
1.56406
2.62647
3.71906
4.85515
6.04908
7.31615
8.6716
10.1277
11.6862
13.322
14.9486
16.3666
17.261
17.7012
0.545693
1.64414
2.76413
3.92126
5.13311
6.42026
7.80744
9.32471
11.0079
12.8953
15.0139
17.3266
19.5666
20.7466
18.0423
31771.6
31739.5
31707.1
31674.3
31641.3
31607.9
31574.3
31540.4
31506.3
31472
31437.5
31402.8
31368
31333.1
31298.1
31263.1
31228
31192.9
31157.8
31122.7
31087.6
31052.6
31017.6
30982.7
30947.8
30913
30878.2
30843.4
30808.7
30774.1
30739.6
30705.1
30670.8
30636.5
30602.4
30568.3
30534.4
30500.5
30466.8
30433.2
30399.6
30366.2
30332.8
30299.5
30266.3
30233.2
30200.2
30167.4
30134.6
30102
30069.5
30037.1
30004.8
29972.6
29940.5
29908.5
29876.5
29844.7
29812.9
29781.3
29749.7
29718.2
29686.9
29655.6
29624.4
29593.4
29562.4
29531.6
29500.8
29470.1
29439.4
29408.9
29378.3
29347.9
29317.5
29287.2
29256.9
29226.7
29196.6
29166.5
29136.4
29106.4
29076.4
29046.4
29016.3
28986.2
28956
28925.7
28895.4
28864.9
0.815527
0.773333
0.726626
0.677619
0.628159
0.579482
0.532082
0.48573
0.439651
0.392819
0.344293
0.293552
0.240727
0.186699
0.133037
0.0817756
0.035083
-0.00511946
-0.0375046
-0.0615873
-0.0778276
-0.0875722
-0.0928505
-0.0960594
-0.0995905
-0.105458
-0.11499
-0.128627
-0.145877
-0.165418
-0.185352
-0.203564
-0.218109
-0.227565
-0.231288
-0.229523
-0.223353
-0.214514
-0.205099
-0.197211
-0.192605
-0.192401
-0.196898
-0.205519
-0.216922
-0.229231
-0.240378
-0.248467
-0.25211
-0.250662
-0.244324
-0.234098
-0.221605
-0.208808
-0.197677
-0.189858
-0.186391
-0.187539
-0.192736
-0.200688
-0.209599
-0.217485
-0.222528
-0.223389
-0.219432
-0.21082
-0.198468
-0.183871
-0.168831
-0.155135
-0.144232
-0.136959
-0.133369
-0.132671
-0.13333
-0.133278
-0.130232
-0.122049
-0.107071
-0.0843973
-0.0540566
-0.0170637
0.0246415
0.068356
0.110861
0.148738
0.178724
0.198083
0.204938
0.198522
1.36999
1.29604
1.21468
1.13006
1.04566
0.963744
0.885098
0.809065
0.733893
0.657319
0.577266
0.492485
0.40304
0.310502
0.217836
0.12896
0.0480908
-0.0210183
-0.0757615
-0.115168
-0.140094
-0.153111
-0.158099
-0.159648
-0.162332
-0.170002
-0.185185
-0.208697
-0.239544
-0.275121
-0.311703
-0.345145
-0.371641
-0.388423
-0.394243
-0.38958
-0.376539
-0.358481
-0.339455
-0.323517
-0.31406
-0.31325
-0.321657
-0.338159
-0.360136
-0.383936
-0.405523
-0.42121
-0.428305
-0.425573
-0.41342
-0.393799
-0.36986
-0.345402
-0.324238
-0.309551
-0.303357
-0.306167
-0.316883
-0.332988
-0.350986
-0.367016
-0.377547
-0.379992
-0.373138
-0.357331
-0.334372
-0.307181
-0.279277
-0.254151
-0.23465
-0.222452
-0.217721
-0.219
-0.223383
-0.226924
-0.225249
-0.214245
-0.19071
-0.152868
-0.100681
-0.0359333
0.0378827
0.115867
0.192154
0.260476
0.314808
0.350056
0.362702
0.351292
1.94125
1.82944
1.70742
1.58219
1.45958
1.34329
1.23434
1.13115
1.03014
0.926819
0.817034
0.698126
0.569797
0.434486
0.297173
0.164616
0.0441647
-0.0576009
-0.1361
-0.189592
-0.219504
-0.230202
-0.228295
-0.221594
-0.217887
-0.22372
-0.243376
-0.278197
-0.326392
-0.383366
-0.44257
-0.496719
-0.539154
-0.565057
-0.572285
-0.561694
-0.536941
-0.503837
-0.469355
-0.440481
-0.423058
-0.420819
-0.43475
-0.462905
-0.500721
-0.541818
-0.579156
-0.606316
-0.618645
-0.614043
-0.593261
-0.559712
-0.518854
-0.477247
-0.441467
-0.417005
-0.407354
-0.413403
-0.433261
-0.462559
-0.495199
-0.524459
-0.544205
-0.549977
-0.539733
-0.514136
-0.476363
-0.431515
-0.385718
-0.345062
-0.314548
-0.29719
-0.293412
-0.300858
-0.314644
-0.328077
-0.333698
-0.324482
-0.294946
-0.241994
-0.165389
-0.0678587
0.0451246
0.165824
0.284919
0.39236
0.478374
0.53458
0.555108
0.537491
2.53732
2.37754
2.20481
2.03056
1.8644
1.71225
1.57529
1.45007
1.32968
1.2056
1.06991
0.917309
0.746586
0.561335
0.369646
0.182828
0.0133226
-0.127694
-0.23245
-0.297977
-0.326586
-0.325445
-0.305393
-0.279229
-0.259704
-0.257536
-0.279728
-0.328439
-0.400597
-0.488402
-0.580717
-0.665161
-0.730472
-0.768584
-0.775988
-0.7542
-0.709372
-0.651176
-0.591181
-0.540957
-0.510193
-0.505103
-0.527362
-0.57374
-0.636581
-0.705116
-0.767448
-0.812779
-0.833368
-0.825813
-0.791485
-0.736153
-0.668924
-0.600704
-0.542399
-0.503133
-0.488742
-0.500753
-0.536049
-0.587315
-0.64428
-0.695603
-0.730985
-0.743024
-0.728438
-0.688472
-0.628541
-0.557217
-0.484755
-0.421368
-0.375501
-0.352369
-0.352943
-0.373583
-0.406413
-0.440477
-0.463512
-0.463978
-0.432901
-0.365179
-0.260228
-0.122036
0.041256
0.218092
0.394467
0.555102
0.684862
0.770482
0.802445
0.776624
3.1682
2.94434
2.7044
2.4673
2.24908
2.05935
1.89931
1.76204
1.63452
1.50108
1.34713
1.16256
0.944273
0.697432
0.435089
0.176094
-0.0585538
-0.250013
-0.385297
-0.459526
-0.476512
-0.447921
-0.391296
-0.327305
-0.276527
-0.256273
-0.277897
-0.344917
-0.452271
-0.586945
-0.7302
-0.861155
-0.96096
-1.01633
-1.02173
-0.979887
-0.901054
-0.801107
-0.698938
-0.613413
-0.560357
-0.550009
-0.585244
-0.660872
-0.764242
-0.877348
-0.980223
-1.05487
-1.08862
-1.07614
-1.01996
-0.929727
-0.820424
-0.709884
-0.615914
-0.553445
-0.53211
-0.554572
-0.615844
-0.703863
-0.801486
-0.889704
-0.951378
-0.974413
-0.953689
-0.891558
-0.797123
-0.684556
-0.570725
-0.472443
-0.403717
-0.373411
-0.38358
-0.428753
-0.496402
-0.56876
-0.625825
-0.648895
-0.623625
-0.541971
-0.402933
-0.212357
0.017885
0.271023
0.526683
0.762303
0.954911
1.08365
1.13299
1.09583
3.84797
3.5344
3.19999
2.87691
2.5928
2.36371
2.19059
2.05995
1.94788
1.82609
1.66841
1.45632
1.18306
0.855826
0.495694
0.134282
-0.192635
-0.453233
-0.626072
-0.70351
-0.692075
-0.610766
-0.487809
-0.356357
-0.249397
-0.194709
-0.210694
-0.303318
-0.464605
-0.673132
-0.897397
-1.10201
-1.25543
-1.33606
-1.33549
-1.25884
-1.12314
-0.954241
-0.78273
-0.639114
-0.549027
-0.529277
-0.584963
-0.708057
-0.877884
-1.06432
-1.23364
-1.35586
-1.41045
-1.38938
-1.29747
-1.15077
-0.973709
-0.795203
-0.644071
-0.544522
-0.512414
-0.552507
-0.657122
-0.806581
-0.972237
-1.12203
-1.22741
-1.26882
-1.23857
-1.14116
-0.991817
-0.813715
-0.634305
-0.480954
-0.376609
-0.33617
-0.363807
-0.451557
-0.579611
-0.719065
-0.837087
-0.903422
-0.895541
-0.801395
-0.619854
-0.359794
-0.0384557
0.320324
0.687759
1.03144
1.31693
1.51117
1.58808
1.53481
4.59904
4.15465
3.67941
3.23052
2.8574
2.58758
2.42075
2.33116
2.27525
2.20276
2.06802
1.83816
1.49954
1.06158
0.558119
0.0427789
-0.422229
-0.782837
-1.00423
-1.07548
-1.00826
-0.833587
-0.596559
-0.350143
-0.146997
-0.0313781
-0.0331344
-0.162843
-0.408917
-0.736659
-1.09289
-1.41659
-1.65471
-1.77271
-1.75881
-1.62284
-1.39305
-1.11114
-0.826357
-0.587739
-0.436413
-0.399919
-0.487616
-0.687952
-0.967615
-1.27592
-1.5549
-1.75425
-1.84122
-1.80466
-1.65386
-1.41552
-1.12908
-0.841107
-0.597948
-0.438488
-0.38875
-0.457533
-0.633826
-0.885975
-1.16583
-1.41831
-1.59556
-1.6664
-1.62015
-1.46555
-1.22793
-0.944756
-0.660357
-0.418899
-0.257472
-0.200899
-0.257473
-0.416321
-0.646402
-0.900233
-1.12278
-1.26482
-1.29168
-1.18667
-0.94984
-0.595472
-0.14871
0.357161
0.883042
1.38438
1.81034
2.10766
2.23061
2.15423
5.46159
4.8196
4.12114
3.47517
2.97334
2.66328
2.53976
2.55396
2.62649
2.66911
2.60461
2.37658
1.95905
1.36161
0.637637
-0.121221
-0.802175
-1.31292
-1.59861
-1.64684
-1.4792
-1.1462
-0.718829
-0.281623
0.0814412
0.300971
0.328675
0.145193
-0.235626
-0.759161
-1.33525
-1.85439
-2.22699
-2.39928
-2.35791
-2.12195
-1.738
-1.27216
-0.803518
-0.410666
-0.158443
-0.091733
-0.22807
-0.553622
-1.0161
-1.52977
-1.99084
-2.31448
-2.44986
-2.38445
-2.13631
-1.74954
-1.28667
-0.822478
-0.431299
-0.174459
-0.0944162
-0.207744
-0.501301
-0.925468
-1.39887
-1.82291
-2.11695
-2.2326
-2.15777
-1.9095
-1.52961
-1.07757
-0.624576
-0.241595
0.0126536
0.0973025
-0.00386077
-0.278508
-0.678993
-1.12645
-1.52439
-1.79208
-1.87771
-1.76174
-1.44909
-0.964195
-0.344081
0.365184
1.11367
1.84586
2.48899
2.95525
3.16017
3.05122
6.51509
5.56642
4.48783
3.51256
2.81312
2.47043
2.46062
2.69286
3.02086
3.28971
3.3767
3.18786
2.6776
1.84386
0.767362
-0.39742
-1.42723
-2.1671
-2.53495
-2.52906
-2.18824
-1.59472
-0.855263
-0.106342
0.516567
0.909544
0.994593
0.73739
0.143172
-0.705994
-1.6596
-2.50322
-3.08774
-3.33351
-3.23724
-2.83417
-2.20086
-1.43724
-0.671541
-0.0310927
0.386663
0.508837
0.303939
-0.222127
-0.990861
-1.85937
-2.62466
-3.14579
-3.34766
-3.22737
-2.81839
-2.19316
-1.44618
-0.698708
-0.071204
0.344156
0.478368
0.301573
-0.180698
-0.894071
-1.70298
-2.41469
-2.89524
-3.07308
-2.94513
-2.54296
-1.93522
-1.21174
-0.487977
0.121082
0.527004
0.663075
0.499569
0.0405115
-0.643941
-1.42397
-2.11357
-2.58149
-2.75403
-2.62006
-2.19635
-1.52764
-0.667827
0.31673
1.36778
2.43557
3.42235
4.17916
4.54171
4.39048
7.92928
6.50098
4.70727
3.15401
2.13901
1.79801
2.03295
2.69395
3.50049
4.17221
4.54599
4.46198
3.86197
2.67563
1.0242
-0.867991
-2.46983
-3.55701
-4.00948
-3.89359
-3.26118
-2.2534
-1.00533
0.250396
1.28279
1.96153
2.15335
1.81489
0.889095
-0.502438
-2.14233
-3.52516
-4.43627
-4.76031
-4.55834
-3.87794
-2.85138
-1.60533
-0.359201
0.669154
1.3574
1.58038
1.29843
0.458806
-0.821956
-2.33761
-3.6101
-4.43682
-4.70939
-4.48602
-3.81188
-2.8121
-1.60638
-0.402194
0.594375
1.26762
1.499
1.25077
0.472691
-0.725108
-2.14704
-3.33936
-4.10944
-4.35387
-4.1274
-3.47242
-2.50751
-1.34631
-0.186208
0.776275
1.42994
1.66024
1.4286
0.6841
-0.471254
-1.85171
-3.02198
-3.79623
-4.07174
-3.89561
-3.2964
-2.36626
-1.17121
0.172536
1.59777
3.14193
4.68687
5.97081
6.66311
6.4736
10.0865
7.95871
4.58337
2.02648
0.495514
0.295752
0.991437
2.48535
4.17423
5.48375
6.37452
6.47912
5.89061
4.17714
1.62771
-1.75668
-4.25356
-5.8609
-6.30244
-6.00194
-4.87463
-3.25811
-1.16641
0.928724
2.55827
3.71469
4.0757
3.73813
2.30568
0.058752
-2.99523
-5.2264
-6.63019
-6.94454
-6.56841
-5.42019
-3.81795
-1.77356
0.266737
1.85915
2.99811
3.37904
3.09595
1.77498
-0.314818
-3.166
-5.23744
-6.52583
-6.78529
-6.39375
-5.27431
-3.72758
-1.76438
0.193281
1.72554
2.82737
3.21027
2.96295
1.73047
-0.233389
-2.92177
-4.87203
-6.08059
-6.31276
-5.92671
-4.84821
-3.36245
-1.47928
0.400128
1.87616
2.94254
3.3226
3.09613
1.91933
0.0255737
-2.5821
-4.50066
-5.72914
-6.03982
-5.78036
-4.87301
-3.58635
-1.88871
-0.0889996
1.65651
3.84717
6.32722
8.61441
10.0543
9.9163
13.8511
11.1781
3.26773
-0.560683
-3.05501
-2.49327
-1.19891
1.99612
5.3943
7.39831
9.33514
9.49433
9.53919
6.88242
3.43354
-3.92341
-7.31824
-9.84355
-9.66393
-9.3009
-7.19255
-4.94709
-1.33244
2.2775
4.51503
6.61325
7.00401
7.238
4.89511
1.7821
-5.03299
-8.11907
-10.3929
-10.1231
-9.69031
-7.61624
-5.42122
-1.9359
1.53762
3.70211
5.73037
6.13387
6.38801
4.19824
1.28871
-5.11721
-7.9924
-10.0965
-9.79863
-9.34969
-7.35203
-5.24281
-1.91438
1.40133
3.47651
5.42237
5.82905
6.09373
4.04145
1.30163
-4.75938
-7.47275
-9.45773
-9.16191
-8.72312
-6.81045
-4.78965
-1.60684
1.56732
3.56596
5.44344
5.85835
6.13214
4.18697
1.55045
-4.30481
-6.97306
-8.98368
-8.82889
-8.59809
-6.99583
-5.39825
-2.75317
-0.272491
1.07424
4.13567
8.24531
12.4781
15.7178
16.1883
20.8387
21.7265
-4.11857
-5.10138
-11.0038
-6.33581
-6.12574
1.21454
8.62206
9.40962
14.8556
12.6742
17.0781
10.7283
10.867
-11.7956
-11.635
-17.7213
-13.2895
-15.1131
-9.70793
-8.6077
-1.49171
5.60257
6.67239
11.9706
10.1581
14.4486
8.59353
8.83643
-12.4405
-12.1814
-17.8185
-13.5362
-15.1757
-9.98648
-8.88252
-2.08128
4.69352
5.74124
10.8023
9.10378
13.1993
7.65797
7.92701
-12.1527
-11.8577
-17.126
-13.0295
-14.5358
-9.59038
-8.51369
-2.04609
4.39574
5.41368
10.2338
8.65229
12.561
7.34249
7.61914
-11.4176
-11.1224
-16.1192
-12.2169
-13.6419
-8.92837
-7.89015
-1.72194
4.42725
5.43025
10.0504
8.59731
12.3635
7.45016
7.7103
-10.6168
-10.3924
-15.3564
-11.7274
-13.3907
-9.1119
-8.71854
-3.38089
1.1769
-1.97719
2.91476
9.98613
17.7717
25.3689
29.6199
30.3722
70.7433
-47.3299
-2.57987
-34.1826
-3.76096
-21.3206
0.336024
21.3825
4.71287
31.3595
6.37126
40.1023
5.23115
51.1342
-52.5331
-6.95619
-40.745
-7.90733
-31.3347
-6.0241
-20.9309
-1.61966
17.6029
2.741
27.5672
4.52388
36.2687
3.51095
46.8794
-50.8601
-7.75287
-39.5283
-8.42161
-30.4945
-6.47388
-20.5478
-2.18852
16.0965
2.00124
25.608
3.73038
33.8876
2.75082
43.8675
-48.5275
-7.7121
-37.6406
-8.19237
-29.0123
-6.25775
-19.5474
-2.14065
15.2006
1.87573
24.2637
3.56972
32.1713
2.7306
41.7479
-45.9137
-7.15131
-35.5956
-7.60054
-27.4003
-5.75376
-18.3778
-1.80962
14.6977
2.08579
23.403
3.82054
31.0933
3.26357
40.6358
-43.643
-6.34054
-34.1029
-7.00506
-26.74
-5.63291
-19.1586
-2.8856
13.7314
-16.6149
-1.44453
10.6986
23.3364
39.8387
66.3894
28831.3
28794.5
28757.7
28720.7
28683.8
28646.8
28610
28573.1
28536.4
28499.8
28463.3
28426.9
28390.6
28354.3
28318.1
0.177363
0.138377
0.0881888
0.0325516
-0.022683
-0.0723583
-0.112525
-0.14065
-0.155575
-0.157327
-0.146855
-0.125769
-0.0961146
-0.0602034
-0.0204923
0.313206
0.243032
0.153028
0.053825
-0.0439431
-0.131114
-0.200875
-0.249041
-0.273896
-0.275771
-0.256536
-0.219125
-0.167137
-0.104558
-0.0355677
0.477677
0.367519
0.227067
0.073665
-0.0757991
-0.207281
-0.310818
-0.380743
-0.415197
-0.415323
-0.384394
-0.327056
-0.248751
-0.155324
-0.0527879
0.687054
0.522301
0.314056
0.0895674
-0.125637
-0.31139
-0.454373
-0.547914
-0.590826
-0.58593
-0.538659
-0.455954
-0.345488
-0.215199
-0.0730479
0.963471
0.720575
0.417289
0.0961864
-0.204926
-0.45827
-0.64737
-0.765713
-0.814263
-0.798912
-0.728359
-0.612612
-0.462049
-0.286934
-0.097253
1.33839
0.979241
0.538341
0.0828158
-0.331984
-0.669392
-0.911126
-1.0533
-1.1016
-1.06709
-0.963254
-0.804086
-0.60316
-0.373237
-0.126283
1.85818
1.31966
0.674017
0.0287208
-0.536432
-0.976187
-1.27444
-1.43477
-1.47174
-1.40461
-1.25347
-1.03732
-0.77327
-0.476569
-0.160924
2.59352
1.7672
0.809351
-0.105517
-0.866279
-1.42449
-1.77566
-1.93959
-1.946
-1.82613
-1.60871
-1.31844
-0.976033
-0.598844
-0.20177
3.6559
2.34625
0.901708
-0.393859
-1.39868
-2.07982
-2.46414
-2.60194
-2.54651
-2.34522
-2.03679
-1.6517
-1.21358
-0.741005
-0.24908
5.22656
3.0602
0.845092
-0.972948
-2.25476
-3.03195
-3.39915
-3.4575
-3.2929
-2.97144
-2.54155
-2.03797
-1.48558
-0.902517
-0.302625
7.60319
3.82288
0.391411
-2.08827
-3.61544
-4.39409
-4.64301
-4.536
-4.19614
-3.70608
-3.11999
-2.47306
-1.78825
-1.08086
-0.361527
11.2367
4.23674
-1.01406
-4.15608
-5.72466
-6.28596
-6.24279
-5.84735
-5.24959
-4.53676
-3.75926
-2.94601
-2.11352
-1.27113
-0.424151
16.4685
2.90142
-4.52833
-7.79735
-8.84114
-8.78229
-8.19484
-7.36104
-6.41808
-5.43212
-4.43428
-3.43821
-2.44869
-1.466
-0.488098
20.9205
-4.57129
-12.2033
-13.6638
-13.0603
-11.8072
-10.3932
-8.98387
-7.62959
-6.33936
-5.10753
-3.92385
-2.77704
-1.65606
-0.550341
0.563898
1.69956
2.85933
4.06099
5.32525
6.67743
8.15007
9.7867
11.6475
13.817
16.4123
19.5734
23.3378
26.8547
23.9205
0.574455
1.73159
2.91396
4.14039
5.43306
6.81971
8.33719
10.0372
11.9964
14.3369
17.2684
21.1947
27.0242
37.25
60.3205
0.5793
1.74609
2.93801
4.1738
5.47558
6.87114
8.39757
10.1075
12.0806
14.4466
17.4355
21.5019
27.6746
38.6791
62.9333
0.578459
1.74314
2.93159
4.16138
5.45299
6.83168
8.33049
9.99503
11.8919
14.1235
16.8548
20.3537
25.0136
31.0648
36.0245
0.572229
1.72368
2.89646
4.10603
5.3699
6.7088
8.14831
9.72118
11.4704
13.4529
15.7394
18.3972
21.4042
24.3689
26.0675
0.561147
1.68941
2.83578
4.01298
5.23472
6.51603
7.87348
9.32478
10.887
12.571
14.3648
16.1925
17.8105
18.5748
16.9414
0.54592
1.64257
2.75369
3.889
5.05816
6.27039
7.53344
8.85129
10.2191
11.6128
12.967
14.1323
14.8019
14.4431
12.6482
0.527353
1.58569
2.65482
3.74152
4.85169
5.98944
7.15533
8.34303
9.53319
10.682
11.7004
12.4168
12.5053
11.308
7.11374
0.506264
1.52132
2.54376
3.57775
4.62608
5.68896
6.76205
7.83303
8.8759
9.84159
10.6435
11.1373
11.1013
10.2538
8.54669
0.483423
1.45183
2.42469
3.40404
4.39037
5.38139
6.37022
7.34252
8.27216
9.11488
9.80042
10.2258
10.2607
9.79633
8.90593
0.459497
1.37927
2.30111
3.2255
4.15142
5.07535
5.98987
6.88164
7.72875
8.49725
9.13792
9.58544
9.76681
9.63462
9.25757
0.435037
1.30527
2.17576
3.04591
3.91388
4.77587
5.62531
6.45178
7.23991
7.96837
8.60952
9.12984
9.49055
9.64289
9.49986
0.410467
1.2311
2.05067
2.86786
3.6805
4.48513
5.27673
6.04856
6.7925
7.50013
8.16501
8.78506
9.35897
9.85625
10.1318
0.386108
1.15769
1.92723
2.69299
3.45269
4.20345
4.94188
5.66473
6.37032
7.06157
7.75163
8.47232
9.28059
10.2236
11.0274
0.362195
1.08569
1.80642
2.52233
3.23111
3.93034
4.61788
5.29292
5.9581
6.62387
7.31698
8.09879
9.10866
10.6875
13.7972
0.338907
1.01562
1.68897
2.35663
3.01619
3.66537
4.30259
4.92796
5.54551
6.16718
6.82077
7.56691
8.54163
10.0884
13.2664
0.316388
0.947878
1.57548
2.19656
2.80847
3.40874
3.99553
4.56846
5.13009
5.68836
6.26031
6.87631
7.57735
8.35654
8.74523
0.294763
0.882837
1.46654
2.04288
2.60884
3.16147
3.69811
4.21682
4.717
5.20006
5.66929
6.12669
6.55883
6.89587
6.95913
0.274145
0.820837
1.3627
1.8964
2.41848
2.92532
3.41314
3.87805
4.31584
4.72137
5.08652
5.39462
5.60637
5.62537
5.20147
0.254639
0.762193
1.26453
1.75801
2.23872
2.70237
3.14411
3.55813
3.93709
4.27072
4.54337
4.72948
4.78777
4.66245
4.34574
0.236328
0.707173
1.17252
1.62847
2.0708
2.49466
2.89432
3.26257
3.58981
3.86245
4.06033
4.15312
4.09669
3.83244
3.2779
0.219277
0.655972
1.08702
1.50841
1.9157
2.30375
2.66634
2.99549
3.28047
3.50609
3.65026
3.6804
3.54995
3.20402
2.66224
0.203515
0.608692
1.00824
1.39814
1.77395
2.13052
2.46158
2.7591
3.01234
3.20631
3.3194
3.3192
3.15284
2.71162
1.65254
0.189039
0.565322
0.93615
1.29765
1.64557
1.97502
2.28011
2.55346
2.78537
2.9627
3.0672
3.07338
2.94662
2.64828
2.20257
0.175811
0.52574
0.870537
1.2066
1.53002
1.83642
2.12069
2.37659
2.59631
2.76966
2.88327
2.91989
2.85956
2.68728
2.41372
0.163759
0.489722
0.81099
1.12432
1.42629
1.7132
1.98095
2.22486
2.43944
2.61811
2.75281
2.83373
2.85023
2.7966
2.69881
0.152785
0.456963
0.756954
1.04993
1.33302
1.60329
1.85777
2.09348
2.30751
2.49711
2.65968
2.79231
2.88961
2.9366
2.88614
0.142778
0.427112
0.707789
0.982408
1.24865
1.50434
1.74763
1.97716
2.19255
2.39486
2.58734
2.77544
2.96391
3.14426
3.26873
0.13362
0.399801
0.662829
0.920703
1.1716
1.41401
1.64702
1.87067
2.08666
2.29945
2.51804
2.7583
3.04385
3.39073
3.68625
0.125198
0.374677
0.621449
0.863843
1.10043
1.33022
1.55292
1.7695
1.98298
2.2
2.43369
2.70971
3.0812
3.67285
4.83736
0.117411
0.351434
0.583108
0.811014
1.03399
1.25134
1.46308
1.67047
1.87684
2.08899
2.31994
2.59482
2.96565
3.55714
4.73929
0.110177
0.329823
0.547384
0.761606
0.971469
1.17635
1.37624
1.57216
1.7667
1.96491
2.17568
2.41329
2.69687
3.03125
3.26808
0.103435
0.30966
0.513978
0.715224
0.912406
1.10481
1.29217
1.47482
1.654
1.83211
2.01277
2.19983
2.39282
2.57311
2.68531
0.0971414
0.29082
0.482706
0.671664
0.856657
1.03679
1.21136
1.37988
1.54204
1.69754
1.84543
1.98227
2.09757
2.16225
2.09502
0.0912671
0.273226
0.453466
0.630856
0.804283
0.972635
1.13476
1.28935
1.4347
1.56827
1.68575
1.77965
1.83748
1.84301
1.79998
0.0857919
0.256826
0.426205
0.592801
0.755432
0.912802
1.06339
1.20523
1.33555
1.45016
1.54245
1.60207
1.61371
1.55748
1.40722
0.0806986
0.241575
0.400877
0.557498
0.710234
0.857681
0.998092
1.1291
1.24731
1.34755
1.42184
1.45782
1.43708
1.33724
1.16837
0.0759665
0.227419
0.377409
0.524895
0.668707
0.807448
0.939324
1.06188
1.17154
1.26295
1.32784
1.35297
1.31536
1.16495
0.738777
0.0715685
0.214277
0.355681
0.494843
0.630703
0.761981
0.88703
1.0036
1.10844
1.19679
1.26144
1.29167
1.27198
1.18416
1.03931
0.067468
0.202041
0.33551
0.467085
0.595879
0.720839
0.840628
0.953457
1.05681
1.14707
1.21895
1.26505
1.27592
1.24297
1.16578
0.0636197
0.190572
0.316654
0.441258
0.56372
0.683288
0.79906
0.909896
1.01428
1.1101
1.19437
1.26289
1.31029
1.3325
1.34084
0.0599708
0.179707
0.298826
0.416918
0.53357
0.648373
0.760921
0.870819
0.977688
1.08115
1.18074
1.27541
1.36214
1.43168
1.45527
0.0564647
0.16927
0.281712
0.393577
0.504705
0.615024
0.724622
0.833844
0.943461
1.0549
1.17051
1.29343
1.42593
1.56277
1.6786
0.0530447
0.159086
0.264998
0.370749
0.4764
0.582178
0.688586
0.796596
0.907966
1.02576
1.15521
1.30481
1.4867
1.70846
1.90904
0.049658
0.148992
0.248397
0.347991
0.448009
0.548893
0.651437
0.757016
0.868008
0.988536
1.12592
1.29377
1.51979
1.86886
2.5255
0.0462591
0.138847
0.231666
0.324939
0.419016
0.514458
0.61218
0.713678
0.82143
0.939606
1.07546
1.24234
1.46742
1.81566
2.4798
0.0428117
0.128543
0.214618
0.301329
0.389075
0.478441
0.570301
0.665998
0.767613
0.878402
1.00345
1.15048
1.32954
1.54308
1.71364
0.0392891
0.118002
0.19713
0.276999
0.358011
0.440691
0.525759
0.614208
0.707426
0.807296
0.916187
1.03639
1.16772
1.30036
1.40595
0.0356733
0.107171
0.179128
0.251877
0.325787
0.401285
0.478869
0.559109
0.642621
0.729926
0.821066
0.91458
1.00498
1.07643
1.08429
0.0319529
0.096021
0.160577
0.225949
0.292462
0.360433
0.430134
0.501739
0.575183
0.649895
0.724297
0.794936
0.855389
0.896661
0.919975
0.0281197
0.0845325
0.14146
0.199228
0.258127
0.318378
0.380079
0.443094
0.506865
0.570082
0.630143
0.682368
0.719125
0.729366
0.695509
0.0241663
0.0726865
0.12176
0.171723
0.222852
0.275318
0.329113
0.383925
0.438933
0.492461
0.541433
0.580542
0.601277
0.592696
0.559212
0.0200827
0.0604564
0.101443
0.14341
0.18665
0.231336
0.277442
0.324623
0.37203
0.418006
0.459574
0.491479
0.50379
0.473323
0.32204
0.0158545
0.0478009
0.0804463
0.114212
0.149445
0.18637
0.225025
0.265164
0.306124
0.346613
0.384429
0.416024
0.436011
0.437851
0.42709
0.0114617
0.0346603
0.0586719
0.0839965
0.111065
0.140203
0.171578
0.205139
0.240545
0.27708
0.313606
0.348632
0.380838
0.411133
0.448648
0.006878
0.0209554
0.0359863
0.0525704
0.0712505
0.0924843
0.116614
0.143835
0.174184
0.207556
0.243829
0.283199
0.326996
0.379404
0.450179
0.00207123
0.00658865
0.0122226
0.0196897
0.0296635
0.0427563
0.0595039
0.0803612
0.105725
0.136019
0.171903
0.214696
0.267179
0.334922
0.428784
-0.00299578
-0.00855308
-0.0128133
-0.0149308
-0.0140884
-0.00950844
-0.000457783
0.01376
0.0338448
0.0606047
0.0951811
0.139468
0.196766
0.272307
0.370781
-0.00836421
-0.0245951
-0.0393367
-0.0516058
-0.0604347
-0.0648762
-0.0640059
-0.0569133
-0.0426684
-0.0202352
0.0117191
0.0552094
0.11369
0.193771
0.311457
-0.014078
-0.0416711
-0.0675763
-0.0906688
-0.109826
-0.123931
-0.131873
-0.132551
-0.124865
-0.107684
-0.0797502
-0.0394555
0.0156194
0.0891243
0.181762
-0.0201823
-0.0599189
-0.0977683
-0.132463
-0.162726
-0.187264
-0.204783
-0.213995
-0.213653
-0.202596
-0.1798
-0.14438
-0.0952445
-0.028802
0.0752396
-0.0267228
-0.0794768
-0.13015
-0.177335
-0.219598
-0.25547
-0.283459
-0.302071
-0.30988
-0.305657
-0.288612
-0.258825
-0.218121
-0.172831
-0.148137
-0.0337433
-0.100479
-0.164953
-0.225625
-0.280907
-0.32915
-0.368644
-0.397646
-0.414459
-0.417618
-0.406268
-0.380845
-0.344178
-0.302551
-0.261247
-0.0412849
-0.123052
-0.202396
-0.277657
-0.347102
-0.408902
-0.461114
-0.501685
-0.528516
-0.539652
-0.533694
-0.51067
-0.473673
-0.432041
-0.409651
-0.0493839
-0.147306
-0.242675
-0.333727
-0.418605
-0.495312
-0.561666
-0.615261
-0.653472
-0.673552
-0.672968
-0.650194
-0.606382
-0.548163
-0.488068
-0.0580699
-0.173334
-0.28595
-0.394082
-0.49578
-0.58891
-0.671076
-0.73952
-0.791014
-0.8218
-0.82765
-0.804322
-0.749091
-0.665582
-0.579228
-0.067364
-0.2012
-0.332338
-0.458906
-0.578903
-0.69012
-0.790015
-0.875546
-0.942935
-0.98736
-1.00259
-0.980603
-0.911434
-0.784975
-0.608796
-0.0772774
-0.230938
-0.381899
-0.528291
-0.668123
-0.79919
-0.918926
-1.02417
-1.1108
-1.17319
-1.20337
-1.18965
-1.11356
-0.938892
-0.555462
-0.0878115
-0.262552
-0.434632
-0.60223
-0.763428
-0.916128
-1.0579
-1.18571
-1.29549
-1.38139
-1.43464
-1.44199
-1.38413
-1.23778
-1.00733
-0.0989582
-0.296013
-0.490478
-0.680613
-0.864633
-1.04065
-1.20656
-1.35978
-1.49677
-1.61226
-1.69778
-1.73962
-1.71616
-1.59507
-1.32055
-0.110703
-0.331271
-0.549331
-0.76324
-0.971391
-1.1722
-1.36404
-1.5451
-1.71299
-1.86393
-1.99126
-2.0826
-2.11599
-2.05889
-1.89953
-0.123031
-0.36827
-0.611065
-0.849866
-1.08325
-1.30997
-1.52901
-1.73958
-1.94096
-2.132
-2.30971
-2.46583
-2.57865
-2.59374
-2.37015
-0.135929
-0.406965
-0.675571
-0.940253
-1.19973
-1.45307
-1.69986
-1.94043
-2.17612
-2.40932
-2.64316
-2.87912
-3.10917
-3.29432
-3.34145
-0.149398
-0.447349
-0.742803
-1.03425
-1.32047
-1.60071
-1.87502
-2.14469
-2.41299
-2.6862
-2.97512
-3.29652
-3.67086
-4.09075
-4.3039
-0.163455
-0.489465
-0.812814
-1.13189
-1.44537
-1.75248
-2.05339
-2.34989
-2.64644
-2.95218
-3.28452
-3.67715
-4.20091
-5.03075
-6.70952
-0.178138
-0.533428
-0.885792
-1.2334
-1.57468
-1.90855
-2.23484
-2.55504
-2.87352
-3.19969
-3.55205
-3.96672
-4.51839
-5.38121
-7.03549
-0.193505
-0.579422
-0.962072
-1.33932
-1.70915
-2.06988
-2.42051
-2.76139
-3.09525
-3.429
-3.77629
-4.16115
-4.61979
-5.18203
-5.71754
-0.20963
-0.627686
-1.0421
-1.45038
-1.84993
-2.23822
-2.61296
-2.9726
-3.31707
-3.6489
-3.97446
-4.30432
-4.64925
-5.00142
-5.28694
-0.22659
-0.678476
-1.1264
-1.56749
-1.99853
-2.41596
-2.81589
-3.19434
-3.54766
-3.87317
-4.16963
-4.43704
-4.67368
-4.8671
-4.97208
-0.24445
-0.732015
-1.21545
-1.69158
-2.15659
-2.60586
-3.03373
-3.43352
-3.79757
-4.11759
-4.38497
-4.59111
-4.72812
-4.79418
-4.82182
-0.263235
-0.788421
-1.30957
-1.82338
-2.32559
-2.81062
-3.27108
-3.69751
-4.07807
-4.39857
-4.64284
-4.7932
-4.83182
-4.74794
-4.57375
-0.282914
-0.847632
-1.40879
-1.96323
-2.50653
-3.03242
-3.53207
-3.99336
-4.40026
-4.73249
-4.9659
-5.0729
-5.02058
-4.7644
-4.30884
-0.303362
-0.909313
-1.51268
-2.11081
-2.69955
-3.27245
-3.8197
-4.32699
-4.77429
-5.13504
-5.37676
-5.46322
-5.35092
-4.91932
-3.46371
-0.324346
-0.972789
-1.6202
-2.26491
-2.90358
-3.53028
-4.13507
-4.70229
-5.20842
-5.62025
-5.89542
-5.99158
-5.90299
-5.78537
-6.41845
-0.345504
-1.03698
-1.72961
-2.42319
-3.11593
-3.80332
-4.47653
-5.12
-5.70803
-6.20038
-6.53838
-6.64825
-6.4752
-6.13009
-6.45062
-0.366334
-1.10038
-1.83834
-2.58206
-3.332
-4.08621
-4.83863
-5.57621
-6.2741
-6.88769
-7.33975
-7.5014
-7.16689
-6.01257
-3.38782
-0.386207
-1.16105
-1.94308
-2.7366
-3.5451
-4.37035
-5.21105
-6.05997
-6.89871
-7.68717
-8.34278
-8.69912
-8.4279
-6.91618
-3.20757
-0.404391
-1.21675
-2.03983
-2.88076
-3.74655
-4.64377
-5.57775
-6.5508
-7.55822
-8.57892
-9.55365
-10.3326
-10.5503
-9.34542
-4.90684
-0.420094
-1.26499
-2.12417
-3.00765
-3.92619
-4.89166
-5.9173
-7.01778
-8.20851
-9.50259
-10.9004
-12.3559
-13.6608
-14.0203
-10.3388
-0.432526
-1.30332
-2.19165
-3.11018
-4.07323
-5.09777
-6.20489
-7.42207
-8.78702
-10.3542
-12.2073
-14.4837
-17.4277
-21.5013
-27.5737
-11.2915
-25.7856
-24.3684
-20.8104
-17.5061
-14.7363
-12.4172
-10.4328
-8.69099
-7.12485
-5.68611
-4.33923
-3.05706
-1.81788
-0.603293
-111.141
-57.9455
-37.3937
-27.243
-21.192
-17.0784
-14.0128
-11.5707
-9.52523
-7.74374
-6.14325
-4.66825
-3.27931
-1.94648
-0.645402
-123.57
-67.4358
-43.1961
-30.8287
-23.5324
-18.6925
-15.1754
-12.4334
-10.1761
-8.23694
-6.51322
-4.93751
-3.46258
-2.05304
-0.680374
-67.8787
-54.7772
-40.754
-30.8928
-24.1671
-19.3882
-15.7997
-12.9593
-10.6061
-8.58052
-6.78041
-5.13679
-3.60044
-2.134
-0.707069
-47.9129
-42.7588
-35.4215
-28.7794
-23.4497
-19.2571
-15.9046
-13.147
-10.8085
-8.76753
-6.93893
-5.26158
-3.68975
-2.18751
-0.72488
-30.4234
-32.2564
-29.6061
-25.7547
-21.9427
-18.5426
-15.5964
-13.0435
-10.8044
-8.80704
-6.99241
-5.31308
-3.73074
-2.21351
-0.733757
-22.4409
-24.8675
-24.6249
-22.7027
-20.1497
-17.5128
-15.0151
-12.7221
-10.6323
-8.71968
-6.95193
-5.29724
-3.72651
-2.21348
-0.734135
-12.4664
-19.3323
-20.8101
-20.0887
-18.4149
-16.3863
-14.2917
-12.2597
-10.3372
-8.53173
-6.83293
-5.22309
-3.68221
-2.19005
-0.726824
-15.0385
-17.5387
-18.5224
-18.1361
-16.9266
-15.3057
-13.5249
-11.7211
-9.96074
-8.26971
-6.65214
-5.10104
-3.60407
-2.14654
-0.712859
-15.694
-16.7982
-17.1861
-16.7552
-15.7239
-14.3361
-12.7739
-11.1524
-9.53617
-7.95667
-6.4252
-4.94141
-3.49855
-2.08647
-0.69336
-16.3124
-16.555
-16.4185
-15.7912