/*--------------------------------*- C++ -*----------------------------------*\
| =========                 |                                                 |
| \\      /  F ield         | OpenFOAM: The Open Source CFD Toolbox           |
|  \\    /   O peration     | Version:  5.x                                   |
|   \\  /    A nd           | Web:      www.OpenFOAM.org                      |
|    \\/     M anipulation  |                                                 |
\*---------------------------------------------------------------------------*/
FoamFile
{
    version     2.0;
    format      ascii;
    class       volScalarField;
    location    "11";
    object      gradTx;
}
// * * * * * * * * * * * * * * * * * * * * * * * * * * * * * * * * * * * * * //

dimensions      [0 -1 0 1 0 0 0];

internalField   nonuniform List<scalar> 
2048
(
0.00630502
0.0187345
0.0306388
0.0417202
0.0517499
0.0605784
0.0681354
0.0744187
0.0794779
0.0833959
0.0862725
0.0882121
0.0893165
0.0896827
0.089403
0.0885665
0.0872602
0.0855676
0.0835665
0.0813253
0.0788998
0.0763308
0.0736431
0.0708468
0.0679397
0.0649097
0.0617372
0.0583966
0.0548572
0.0510829
0.0470336
0.0426656
0.0379336
0.0327932
0.0272025
0.0211238
0.0145249
0.00737965
-0.000331529
-0.00862031
-0.0174882
-0.0269229
-0.0368931
-0.0473413
-0.058176
-0.0692624
-0.0804133
-0.0913818
-0.101857
-0.111465
-0.119783
-0.12636
-0.130754
-0.13257
-0.131512
-0.127416
-0.120278
-0.110248
-0.0976158
-0.0827653
-0.0661298
-0.0481504
-0.029247
-0.00980743
0.0187886
0.0558183
0.091257
0.124206
0.15398
0.180138
0.20248
0.221014
0.235902
0.247402
0.25582
0.261469
0.264654
0.26566
0.264759
0.262215
0.258284
0.253216
0.247243
0.240572
0.233368
0.225752
0.217798
0.209534
0.20095
0.192008
0.182651
0.172801
0.162367
0.151242
0.139307
0.126432
0.11248
0.097318
0.0808214
0.0628777
0.0433914
0.0222843
-0.000502329
-0.0250049
-0.0512309
-0.0791485
-0.10867
-0.139634
-0.171775
-0.204705
-0.237874
-0.270557
-0.301832
-0.330586
-0.355549
-0.375361
-0.388675
-0.394291
-0.391298
-0.379194
-0.357963
-0.328075
-0.290413
-0.246153
-0.196609
-0.14311
-0.0869054
-0.0291384
0.0311404
0.0924837
0.151107
0.205486
0.254474
0.297354
0.333829
0.363956
0.388046
0.406567
0.420046
0.429014
0.433971
0.435384
0.43369
0.429318
0.422689
0.414216
0.40429
0.393256
0.381391
0.368895
0.355884
0.342397
0.328413
0.313863
0.298648
0.282643
0.265696
0.247634
0.228257
0.207348
0.184681
0.160031
0.13319
0.103972
0.0722213
0.0378075
0.00063223
-0.0393693
-0.0822185
-0.127876
-0.176218
-0.226998
-0.279811
-0.334041
-0.388817
-0.442962
-0.494968
-0.542991
-0.5849
-0.618386
-0.641138
-0.651078
-0.646613
-0.626864
-0.591803
-0.542255
-0.47977
-0.40639
-0.324374
-0.235962
-0.143224
-0.0480094
0.0436001
0.129427
0.211275
0.286941
0.354798
0.413874
0.463825
0.504821
0.53739
0.562257
0.580209
0.592004
0.598336
0.599833
0.597086
0.590673
0.581178
0.569181
0.555236
0.539837
0.523378
0.506135
0.48826
0.469794
0.450692
0.430849
0.41012
0.388332
0.365279
0.34072
0.314377
0.285943
0.255095
0.221516
0.184911
0.145023
0.101632
0.0545617
0.00367199
-0.0511357
-0.109908
-0.172617
-0.239125
-0.309137
-0.382141
-0.457344
-0.533594
-0.609306
-0.682412
-0.750336
-0.810048
-0.858208
-0.891423
-0.906597
-0.901333
-0.874294
-0.825435
-0.756015
-0.668383
-0.565594
-0.450975
-0.327746
-0.198793
-0.066611
0.0563836
0.16727
0.272723
0.369773
0.456287
0.53107
0.593801
0.644856
0.685074
0.715513
0.737262
0.751322
0.758569
0.759774
0.755653
0.746922
0.734318
0.7186
0.700501
0.680677
0.65965
0.637772
0.61522
0.592022
0.568092
0.543278
0.517387
0.490199
0.461459
0.430863
0.398053
0.362626
0.324157
0.282225
0.236448
0.186492
0.132084
0.0729988
0.00905687
-0.0598798
-0.133897
-0.212998
-0.297065
-0.38579
-0.478605
-0.574593
-0.672378
-0.770024
-0.864936
-0.953806
-1.03265
-1.09699
-1.14217
-1.16387
-1.15868
-1.1247
-1.06186
-0.971946
-0.858332
-0.725317
-0.577484
-0.419135
-0.253976
-0.0850564
0.0696956
0.2066
0.336343
0.455075
0.560124
0.650111
0.724844
0.785035
0.831955
0.867093
0.891894
0.907613
0.91529
0.915801
0.909953
0.898576
0.882563
0.862861
0.840411
0.816055
0.790455
0.764041
0.737003
0.709328
0.68087
0.651413
0.620713
0.588509
0.554506
0.518344
0.479583
0.437716
0.3922
0.342503
0.288146
0.228724
0.163909
0.0934385
0.0170951
-0.0653034
-0.153895
-0.248742
-0.349775
-0.456724
-0.569016
-0.685674
-0.805174
-0.925295
-1.04297
-1.15418
-1.25392
-1.33642
-1.39554
-1.42544
-1.42144
-1.38086
-1.30359
-1.19214
-1.05119
-0.886626
-0.704543
-0.510467
-0.308918
-0.103386
0.0837404
0.247998
0.403005
0.543884
0.667385
0.772015
0.857847
0.926101
0.978644
1.01751
1.04457
1.06132
1.06895
1.06837
1.06043
1.04605
1.02627
1.00227
0.97521
0.946169
0.915971
0.885119
0.853795
0.821917
0.789245
0.755477
0.720315
0.683471
0.644625
0.603373
0.55919
0.511451
0.459478
0.40261
0.340262
0.27196
0.197333
0.11609
0.0279842
-0.0672144
-0.16971
-0.279649
-0.397053
-0.521729
-0.653165
-0.790394
-0.931832
-1.07507
-1.21664
-1.35184
-1.47462
-1.57774
-1.65328
-1.69349
-1.69205
-1.64522
-1.55282
-1.41832
-1.24812
-1.05014
-0.832388
-0.601758
-0.363565
-0.121568
0.0987294
0.29206
0.473585
0.637214
0.779082
0.897679
0.993534
1.0686
1.12553
1.16706
1.19554
1.21273
1.21985
1.21782
1.20744
1.18968
1.16575
1.13705
1.10507
1.07115
1.03631
1.00113
0.965748
0.929967
0.89341
0.855664
0.816376
0.775248
0.731968
0.6861
0.637035
0.584009
0.526182
0.462738
0.392979
0.316363
0.232494
0.141071
0.0418271
-0.0655125
-0.181234
-0.305595
-0.438745
-0.580622
-0.73083
-0.888499
-1.05208
-1.2191
-1.3858
-1.54687
-1.69518
-1.82185
-1.91682
-1.96997
-1.97277
-1.92006
-1.81151
-1.65187
-1.44985
-1.21608
-0.960868
-0.692713
-0.417663
-0.139506
0.114889
0.339416
0.548992
0.736087
0.896185
1.02791
1.13248
1.21288
1.27281
1.31585
1.34491
1.36196
1.36821
1.36442
1.35129
1.32977
1.30123
1.26739
1.23011
1.19108
1.15154
1.11216
1.07298
1.03364
0.993545
0.952152
0.909049
0.863964
0.816635
0.766623
0.713228
0.655517
0.592451
0.523028
0.446422
0.362031
0.269458
0.168418
0.0586447
-0.0601782
-0.188433
-0.326519
-0.474755
-0.633254
-0.8018
-0.979697
-1.16555
-1.35696
-1.55005
-1.73902
-1.91566
-2.06931
-2.18734
-2.25664
-2.26575
-2.20758
-2.08149
-1.89395
-1.65681
-1.38424
-1.08945
-0.78274
-0.470767
-0.157037
0.132464
0.390749
0.630192
0.841554
1.01964
1.16341
1.27514
1.35913
1.42047
1.46379
1.49259
1.50903
1.51414
1.5084
1.49224
1.46657
1.43293
1.39343
1.3504
1.30596
1.26167
1.21825
1.17559
1.13307
1.08983
1.04511
0.99847
0.949709
0.898683
0.844992
0.787833
0.726064
0.658391
0.583587
0.500675
0.409011
0.30823
0.198101
0.0783864
-0.0512628
-0.191341
-0.342423
-0.505039
-0.679521
-0.865883
-1.06369
-1.27182
-1.48811
-1.70879
-1.92775
-2.13581
-2.32034
-2.46574
-2.5551
-2.57315
-2.50999
-2.36452
-2.14549
-1.86906
-1.55403
-1.21724
-0.870957
-0.52226
-0.173942
0.151728
0.446805
0.718227
0.954714
1.1504
1.30485
1.4218
1.50737
1.56833
1.61062
1.6384
1.65386
1.65771
1.64992
1.63055
1.60033
1.56103
1.51526
1.46594
1.41577
1.36666
1.31941
1.27367
1.22843
1.18244
1.13472
1.08476
1.03254
0.97813
0.921215
0.860879
0.795707
0.724084
0.644495
0.55579
0.457307
0.348762
0.230029
0.100939
-0.0388808
-0.190052
-0.353367
-0.529609
-0.71937
-0.922933
-1.14018
-1.37042
-1.61191
-1.86123
-2.11225
-2.35502
-2.57486
-2.75268
-2.86688
-2.89712
-2.82962
-2.66238
-2.40726
-2.0863
-1.72443
-1.34295
-0.956208
-0.571361
-0.189946
0.172983
0.508408
0.814227
1.07672
1.28938
1.45278
1.57267
1.65746
1.71604
1.75593
1.78199
1.79629
1.79893
1.78918
1.76647
1.73131
1.68572
1.63296
1.57672
1.52041
1.46644
1.41563
1.3673
1.31986
1.2716
1.22117
1.16805
1.11249
1.05495
0.995262
0.932366
0.864486
0.789597
0.70582
0.611801
0.506892
0.390965
0.264064
0.126132
-0.0232018
-0.184712
-0.35946
-0.548534
-0.752809
-0.972858
-1.20895
-1.4609
-1.72764
-2.00641
-2.29149
-2.5724
-2.83247
-3.0486
-3.19342
-3.23999
-3.169
-2.97693
-2.67984
-2.30787
-1.89402
-1.46495
-1.03709
-0.617153
-0.204734
0.196568
0.576474
0.919426
1.20881
1.43751
1.60769
1.72779
1.80908
1.86308
1.89917
1.92294
1.93609
1.9378
1.92635
1.90031
1.85978
1.80718
1.74659
1.68267
1.61976
1.56088
1.50688
1.45655
1.40756
1.35752
1.30467
1.24844
1.18956
1.12907
1.06706
1.00227
0.932424
0.854991
0.76763
0.668728
0.557715
0.434716
0.300021
0.15375
-0.00444329
-0.175512
-0.360856
-0.56193
-0.779907
-1.01564
-1.2698
-1.54285
-1.83459
-2.1433
-2.46416
-2.78673
-3.0924
-3.35362
-3.53606
-3.60422
-3.53098
-3.31021
-2.96367
-2.5327
-2.0609
-1.58124
-1.11198
-0.658619
-0.217962
0.222864
0.652014
1.03517
1.35229
1.59572
1.76999
1.8871
1.96179
2.00875
2.03963
2.06073
2.07302
2.07433
2.06165
2.03239
1.98605
1.92559
1.8562
1.7837
1.71362
1.64981
1.5931
1.54152
1.49171
1.44048
1.38548
1.32608
1.26372
1.20037
1.13651
1.07054
0.999535
0.920332
0.829998
0.72659
0.609703
0.479859
0.337679
0.18353
0.0171356
-0.162678
-0.357744
-0.569959
-0.8008
-1.05134
-1.32264
-1.61592
-1.93207
-2.27077
-2.6288
-2.99645
-3.35353
-3.66759
-3.89603
-3.99251
-3.91885
-3.66447
-3.25896
-2.75924
-2.2227
-1.6895
-1.1791
-0.694678
-0.229274
0.252297
0.736143
1.16294
1.50854
1.7649
1.93997
2.05041
2.11499
2.1522
2.17648
2.19478
2.2068
2.20849
2.19532
2.1631
2.11045
2.04112
1.96182
1.87969
1.80176
1.73301
1.67423
1.62232
1.57256
1.52079
1.46389
1.40107
1.3349
1.26869
1.20347
1.13712
1.06583
0.985692
0.893018
0.785404
0.662767
0.526217
0.376783
0.215173
0.0412406
-0.146461
-0.350332
-0.572821
-0.815684
-1.08011
-1.36749
-1.67989
-2.01945
-2.38767
-2.78376
-3.19973
-3.61437
-3.98996
-4.27439
-4.40782
-4.33649
-4.04233
-3.5657
-2.98539
-2.37656
-1.78714
-1.23656
-0.724243
-0.238319
0.285349
0.830086
1.30431
1.67906
1.94589
2.11781
2.21743
2.26797
2.29244
2.30876
2.32445
2.33717
2.34031
2.32766
2.29294
2.23335
2.15397
2.06349
1.97048
1.88388
1.81021
1.75019
1.69907
1.65034
1.59881
1.54027
1.47359
1.40296
1.33379
1.26777
1.20196
1.13132
1.05116
0.956812
0.845196
0.716798
0.573592
0.417056
0.248346
0.0675469
-0.12713
-0.338842
-0.57074
-0.824818
-1.10219
-1.40446
-1.73463
-2.09623
-2.49286
-2.92724
-3.39444
-3.87304
-4.31978
-4.67191
-4.85339
-4.78855
-4.44681
-3.88355
-3.20839
-2.51911
-1.87132
-1.28246
-0.746274
-0.244771
0.322569
0.935169
1.46101
1.86546
2.1395
2.3035
2.38776
2.41989
2.42831
2.43538
2.44909
2.46391
2.46978
2.45898
2.42247
2.35516
2.26427
2.16126
2.05592
1.95962
1.88108
1.8209
1.77195
1.72533
1.67492
1.61506
1.54379
1.46774
1.39536
1.32922
1.265
1.196
1.11682
1.02155
0.906001
0.771666
0.621777
0.458198
0.282681
0.0957033
-0.104962
-0.32349
-0.563953
-0.828516
-1.11792
-1.43378
-1.78019
-2.16208
-2.58529
-3.05734
-3.57818
-4.12729
-4.65565
-5.08894
-5.33274
-5.28072
-4.88151
-4.21169
-3.4247
-2.64645
-1.93908
-1.31497
-0.759841
-0.248354
0.364596
1.05281
1.63487
2.0695
2.3464
2.49684
2.56095
2.56986
2.55851
2.55516
2.56805
2.58689
2.59688
2.58964
2.55243
2.47631
2.37215
2.25522
2.13584
2.02853
1.94523
1.88629
1.84119
1.79779
1.74958
1.68885
1.61187
1.52895
1.45301
1.38759
1.32624
1.25986
1.1828
1.08746
0.967858
0.827208
0.67056
0.499901
0.317779
0.125334
-0.080231
-0.304472
-0.552698
-0.827139
-1.12774
-1.45578
-1.81674
-2.21687
-2.66402
-3.17211
-3.74828
-4.37452
-4.99562
-5.52521
-5.84963
-5.82002
-5.3507
-4.54865
-3.62982
-2.75421
-1.9874
-1.33241
-0.764184
-0.248858
0.412195
1.1845
1.82778
2.29313
2.56712
2.69734
2.73654
2.71693
2.68156
2.66676
2.68075
2.70608
2.72153
2.72
2.68375
2.59723
2.47762
2.34551
2.21008
2.09008
2.00217
1.94633
1.9071
1.86795
1.82324
1.76234
1.67804
1.58623
1.50623
1.44268
1.38571
1.32286
1.2492
1.15487
1.03081
0.883211
0.719741
0.54185
0.353208
0.156041
-0.0532052
-0.281949
-0.537195
-0.821093
-1.13216
-1.47087
-1.84461
-2.26078
-2.72828
-3.26954
-3.9019
-4.61186
-5.33727
-5.9795
-6.40792
-6.41525
-5.85954
-4.89199
-3.81816
-2.83757
-2.01339
-1.3334
-0.758772
-0.246156
0.466324
1.33178
2.04168
2.53863
2.80196
2.90411
2.91418
2.86018
2.79584
2.76872
2.78663
2.8217
2.84354
2.85041
2.81764
2.71833
2.58055
2.4324
2.27852
2.14364
2.05132
2.00099
1.97011
1.93596
1.89635
1.8365
1.74255
1.63905
1.5544
1.49428
1.44355
1.38489
1.3161
1.22425
1.09491
0.939386
0.769154
0.583742
0.388497
0.187402
-0.0241379
-0.25603
-0.517633
-0.810818
-1.13181
-1.47951
-1.86424
-2.29427
-2.77754
-3.34765
-4.03596
-4.83627
-5.67774
-6.44928
-7.01143
-7.07755
-6.41423
-5.23789
-3.98285
-2.89143
-2.01441
-1.31693
-0.743341
-0.240214
0.528246
1.49613
2.27842
2.80872
3.0509
3.11576
3.09374
2.99873
2.89949
2.85941
2.8853
2.93427
2.96249
2.98111
2.95573
2.83995
2.68055
2.51636
2.34109
2.18843
2.09197
2.05032
2.03086
2.00182
1.96933
1.91256
1.80569
1.6867
1.59676
1.5422
1.50006
1.44574
1.38357
1.29627
1.16015
0.995326
0.8187
0.625287
0.423125
0.218969
0.00673492
-0.226752
-0.494151
-0.796789
-1.12744
-1.48216
-1.87616
-2.31824
-2.81152
-3.40447
-4.14723
-5.04465
-6.01388
-6.93017
-7.66354
-7.82118
-7.02223
-5.58057
-4.11559
-2.91051
-1.98823
-1.28245
-0.71793
-0.2311
0.599713
1.67895
2.53964
3.10683
3.31347
3.33018
3.27554
3.13181
2.99042
2.93701
2.97646
3.04478
3.07755
3.11217
3.10028
2.96228
2.77684
2.59817
2.3978
2.22349
2.12327
2.09444
2.09029
2.06528
2.04247
1.99221
1.86774
1.72826
1.63237
1.5863
1.5558
1.50502
1.45156
1.37189
1.22651
1.05045
0.868398
0.666223
0.456514
0.250272
0.0391955
-0.194066
-0.466823
-0.779499
-1.11993
-1.47927
-1.88091
-2.33409
-2.83022
-3.4381
-4.23224
-5.23398
-6.34265
-7.41532
-8.36674
-8.66456
-7.69251
-5.91148
-4.20658
-2.88966
-1.93326
-1.22994
-0.682889
-0.21898
0.683252
1.88142
2.82656
3.4375
3.58858
3.54423
3.46066
3.25877
3.06626
2.99948
3.05998
3.15496
3.18735
3.24339
3.25445
3.08525
2.86805
2.67915
2.44874
2.24765
2.14417
2.13351
2.14976
2.12568
2.11589
2.07776
1.92896
1.76248
1.66012
1.62652
1.61166
1.56204
1.51989
1.4525
1.29385
1.10392
0.918466
0.706321
0.488003
0.280816
0.0730407
-0.157816
-0.435643
-0.759456
-1.11036
-1.47116
-1.87893
-2.34382
-2.83399
-3.4467
-4.28729
-5.40152
-6.66159
-7.89459
-9.12184
-9.63161
-8.43577
-6.21829
-4.24455
-2.82414
-1.8487
-1.15996
-0.638869
-0.204108
0.782602
2.10428
3.13956
3.80687
3.87425
3.75346
3.65136
3.37909
3.12425
3.04449
3.13587
3.26756
3.28962
3.37406
3.42272
3.2084
2.95201
2.76139
2.49406
2.25947
2.15343
2.16776
2.21129
2.1818
2.18936
2.17236
1.98954
1.78779
1.67872
1.66281
1.6691
1.61571
1.58815
1.54015
1.36185
1.15452
0.969429
0.745377
0.516828
0.310091
0.108074
-0.117723
-0.40051
-0.737156
-1.10007
-1.45797
-1.87044
-2.3502
-2.82341
-3.42858
-4.30829
-5.54486
-6.96971
-8.35356
-9.92686
-10.7536
-9.26464
-6.4835
-4.21687
-2.71003
-1.73469
-1.07367
-0.586791
-0.186818
0.903356
2.34768
3.47779
4.22352
4.16732
3.95156
3.85171
3.49231
3.16119
3.06945
3.20418
3.38682
3.38082
3.50281
3.61143
3.3306
3.02534
2.84815
2.53393
2.25718
2.14957
2.19743
2.27786
2.23154
2.26222
2.28035
2.04946
1.80219
1.68665
1.69517
1.73035
1.66432
1.65559
1.63773
1.42996
1.20056
1.02228
0.783201
0.542084
0.337586
0.144088
-0.0733574
-0.36122
-0.713054
-1.09075
-1.43959
-1.8552
-2.35699
-2.79935
-3.38222
-4.29064
-5.66204
-7.26869
-8.77243
-10.7756
-12.0713
-10.1939
-6.6827
-4.11007
-2.54471
-1.59243
-0.972734
-0.527803
-0.1675
1.05387
2.61081
3.83838
4.69948
4.46299
4.12978
4.06839
3.59784
3.17336
3.07142
3.26487
3.51911
3.45565
3.62721
3.82954
3.44981
3.08307
2.94435
2.56843
2.23865
2.13085
2.22266
2.35379
2.27166
2.33309
2.40767
2.10834
1.80321
1.68224
1.72353
1.79872
1.70526
1.72096
1.74942
1.49717
1.23965
1.0787
0.819566
0.562695
0.362815
0.180841
-0.0241256
-0.317463
-0.687504
-1.08463
-1.41556
-1.83229
-2.36923
-2.76276
-3.30642
-4.229
-5.75134
-7.56454
-9.12469
-11.6557
-13.6382
-11.2405
-6.78246
-3.91055
-2.32735
-1.42423
-0.859317
-0.463213
-0.146582
1.24649
2.89155
4.2156
5.25167
4.75429
4.27618
4.31177
3.69469
3.15649
3.0472
3.31754
3.67371
3.50644
3.74345
4.08957
3.56266
3.11812
3.05732
2.59735
2.2013
2.09531
2.24331
2.44525
2.29734
2.39969
2.56247
2.16513
1.7879
1.66368
1.74767
1.87903
1.73478
1.78235
1.88104
1.56191
1.26849
1.14133
0.85414
0.577366
0.385355
0.218019
0.0307646
-0.268838
-0.660677
-1.08463
-1.38499
-1.79976
-2.39361
-2.7145
-3.20043
-4.11704
-5.81101
-7.86983
-9.37571
-12.5457
-15.5239
-12.4234
-6.73761
-3.60583
-2.05937
-1.23349
-0.735934
-0.394421
-0.124504
1.49925
3.18597
4.59961
5.90368
5.03128
4.37465
4.59728
3.78092
3.10569
2.99334
3.36096
3.86387
3.52232
3.84578
4.4088
3.6639
3.1206
3.19762
2.61984
2.14213
2.0408
2.25871
2.56101
2.30167
2.45848
2.75577
2.21779
1.7528
1.62911
1.76693
1.97811
1.74751
1.83694
2.04069
1.62175
1.28262
1.21417
0.88636
0.584541
0.404913
0.255179
0.0923359
-0.214884
-0.632425
-1.09461
-1.34651
-1.75418
-2.439
-2.65501
-3.06425
-3.94712
-5.83858
-8.20647
-9.4812
-13.4123
-17.8185
-13.7637
-6.48824
-3.18625
-1.74484
-1.02455
-0.605331
-0.322851
-0.101702
1.83794
3.48771
4.97492
6.68808
5.2802
4.4038
4.94711
3.85295
3.01548
2.90635
3.39249
4.10815
3.48833
3.92592
4.81076
3.7458
3.0771
3.38019
2.63394
2.05773
1.96508
2.26721
2.71325
2.27504
2.50429
3.00235
2.26272
1.69399
1.57671
1.77994
2.10554
1.73604
1.88069
2.23941
1.67307
1.27612
1.30299
0.91525
0.582369
0.421404
0.291683
0.161886
-0.155135
-0.602107
-1.11971
-1.29818
-1.6901
-2.51706
-2.58383
-2.89902
-3.71006
-5.82973
-8.60921
-9.38569
-14.2059
-20.6383
-15.2834
-5.956
-2.64747
-1.39076
-0.80249
-0.47033
-0.249876
-0.0785867
2.29879
3.78723
5.31854
7.64918
5.4823
4.33569
5.39234
3.90447
2.87999
2.78293
3.40712
4.43204
3.38435
3.97231
5.32696
3.79731
2.9698
3.62572
2.63593
1.94432
1.86599
2.26562
2.91862
2.20446
2.52991
3.32179
2.29411
1.60721
1.50495
1.78411
2.27441
1.69033
1.90806
2.49198
1.7107
1.24125
1.41596
0.93917
0.568669
0.435059
0.326593
0.24105
-0.0892141
-0.568338
-1.16663
-1.23754
-1.5994
-2.64311
-2.49897
-2.70749
-3.3949
-5.77665
-9.12975
-9.02098
-14.8558
-24.1317
-17.0052
-5.04013
-1.99353
-1.00697
-0.572825
-0.333681
-0.176771
-0.0555288
2.93171
4.07101
5.59771
8.84629
5.61248
4.13435
5.97541
3.9251
2.69309
2.62031
3.39635
4.86991
3.1838
3.96927
5.99888
3.80314
2.77547
3.96224
2.61939
1.79797
1.7417
2.24845
3.19955
2.0727
2.52556
3.7397
2.303
1.48807
1.41276
1.77506
2.50235
1.59708
1.91161
2.81791
1.72741
1.16809
1.56426
0.955473
0.540925
0.446561
0.358556
0.331877
-0.0169757
-0.528676
-1.2441
-1.16156
-1.47052
-2.83709
-2.39603
-2.49473
-2.98878
-5.66584
-9.84154
-8.30476
-15.2645
-28.4863
-18.9509
-3.61294
-1.24084
-0.605817
-0.341148
-0.197924
-0.104659
-0.032851
3.80402
4.32047
5.76733
10.3575
5.6377
3.75416
6.75298
3.89855
2.44882
2.41683
3.34662
5.46726
2.8523
3.89601
6.88026
3.74267
2.46444
4.42705
2.5741
1.61476
1.59102
2.20693
3.5857
1.85741
2.47833
4.28916
2.2763
1.33229
1.29987
1.7458
2.81264
1.43899
1.88156
3.24248
1.71337
1.04411
1.7629
0.960086
0.496294
0.457198
0.385652
0.436942
0.0613066
-0.47923
-1.36328
-1.06677
-1.28748
-3.12477
-2.26707
-2.26893
-2.477
-5.47515
-10.8452
-7.13953
-15.3013
-33.9371
-21.1394
-1.51517
-0.422857
-0.201268
-0.112737
-0.0652799
-0.0344883
-0.0108212
)
;

boundaryField
{
    left
    {
        type            calculated;
        value           uniform 0;
    }
    right
    {
        type            calculated;
        value           uniform 0;
    }
    interface
    {
        type            calculated;
        value           nonuniform List<scalar> 
64
(
3.80402
4.32047
5.76733
10.3575
5.6377
3.75416
6.75298
3.89855
2.44882
2.41683
3.34662
5.46726
2.8523
3.89601
6.88026
3.74267
2.46444
4.42705
2.5741
1.61476
1.59102
2.20693
3.5857
1.85741
2.47833
4.28916
2.2763
1.33229
1.29987
1.7458
2.81264
1.43899
1.88156
3.24248
1.71337
1.04411
1.7629
0.960086
0.496294
0.457198
0.385652
0.436942
0.0613066
-0.47923
-1.36328
-1.06677
-1.28748
-3.12477
-2.26707
-2.26893
-2.477
-5.47515
-10.8452
-7.13953
-15.3013
-33.9371
-21.1394
-1.51517
-0.422857
-0.201268
-0.112737
-0.0652799
-0.0344883
-0.0108212
)
;
    }
    bottom
    {
        type            calculated;
        value           nonuniform List<scalar> 
64
(
0.00630502
0.0187345
0.0306388
0.0417202
0.0517499
0.0605784
0.0681354
0.0744187
0.0794779
0.0833959
0.0862725
0.0882121
0.0893165
0.0896827
0.089403
0.0885665
0.0872602
0.0855676
0.0835665
0.0813253
0.0788998
0.0763308
0.0736431
0.0708468
0.0679397
0.0649097
0.0617372
0.0583966
0.0548572
0.0510829
0.0470336
0.0426656
0.0379336
0.0327932
0.0272025
0.0211238
0.0145249
0.00737965
-0.000331529
-0.00862031
-0.0174882
-0.0269229
-0.0368931
-0.0473413
-0.058176
-0.0692624
-0.0804133
-0.0913818
-0.101857
-0.111465
-0.119783
-0.12636
-0.130754
-0.13257
-0.131512
-0.127416
-0.120278
-0.110248
-0.0976158
-0.0827653
-0.0661298
-0.0481504
-0.029247
-0.00980743
)
;
    }
    defaultFaces
    {
        type            empty;
    }
}


// ************************************************************************* //
