/*--------------------------------*- C++ -*----------------------------------*\
| =========                 |                                                 |
| \\      /  F ield         | OpenFOAM: The Open Source CFD Toolbox           |
|  \\    /   O peration     | Version:  5.x                                   |
|   \\  /    A nd           | Web:      www.OpenFOAM.org                      |
|    \\/     M anipulation  |                                                 |
\*---------------------------------------------------------------------------*/
FoamFile
{
    version     2.0;
    format      ascii;
    class       volScalarField;
    location    "8.8";
    object      gradTx;
}
// * * * * * * * * * * * * * * * * * * * * * * * * * * * * * * * * * * * * * //

dimensions      [0 -1 0 1 0 0 0];

internalField   nonuniform List<scalar> 
3200
(
45.2117
3.71171
1.64866
1.54012
0.814934
0.771349
0.466724
0.447269
0.293827
0.282721
0.170835
0.166692
0.180697
0.180846
0.173154
0.172312
0.159531
0.158414
0.144288
0.143106
0.128818
0.127648
0.113844
0.112748
0.100207
0.0993194
0.0901431
0.0901367
0.0950651
0.164732
0.082487
0.0552467
0.0534185
0.0416709
0.0408438
0.0332467
0.0326879
0.0269716
0.026542
0.0219842
0.0216377
0.0178993
0.0176118
0.0144645
0.0142174
0.01145
0.0112229
0.00856116
0.0083225
0.00520079
0.00507003
0.00506908
0.00502147
0.00395676
0.00384373
0.00219363
0.00202822
-0.000277846
-0.000515216
-0.0038724
-0.00423473
-0.0095006
-0.0101057
-0.0191783
-0.0203263
-0.038186
-0.0408589
-0.084058
-0.0929827
-0.23884
-0.617577
-0.436421
-0.681935
-0.713309
-1.26872
-1.24309
-0.0558177
-0.00753241
-0.00152608
-52.9455
47.8961
3.10509
1.57723
1.35445
0.774044
0.680993
0.436316
0.394716
0.271787
0.248194
0.160332
0.151487
0.160987
0.161195
0.155216
0.153442
0.143359
0.140995
0.129817
0.12731
0.115996
0.113516
0.102586
0.100267
0.0903606
0.0884968
0.081424
0.0815742
0.0883569
0.13735
0.0765883
0.0516073
0.0475362
0.0380045
0.0362308
0.0301742
0.0289858
0.0244457
0.0235338
0.0199174
0.019182
0.0162165
0.0156063
0.0131095
0.012585
0.0103884
0.00990644
0.00779218
0.00728846
0.0048521
0.00457428
0.00452885
0.00442486
0.00358441
0.00334485
0.00203628
0.00168506
-0.000147394
-0.000651966
-0.00332336
-0.0040944
-0.00829219
-0.00958242
-0.0168401
-0.0192988
-0.0337011
-0.0394912
-0.075079
-0.0950049
-0.227184
-0.517952
-0.415041
-0.602331
-0.666927
-1.08547
-1.0318
-0.121894
-0.0209061
-0.00438825
-54.7417
50.5637
2.57633
1.4536
1.18309
0.713659
0.596702
0.397784
0.345416
0.245774
0.216238
0.146669
0.135548
0.141649
0.141791
0.137109
0.134904
0.126879
0.123929
0.114998
0.111866
0.102819
0.0997214
0.0909844
0.088089
0.0801929
0.0778826
0.0724159
0.0727463
0.0799601
0.114358
0.0692584
0.0471316
0.0418723
0.0340277
0.031789
0.0269071
0.0254177
0.0217747
0.0206336
0.0177353
0.0168155
0.0144395
0.0136763
0.0116755
0.0110195
0.00925834
0.00865521
0.00695877
0.00633171
0.00441706
0.00406922
0.00399096
0.00385769
0.00318801
0.00288873
0.00184064
0.00140114
-7.00664e-05
-0.00070205
-0.00285034
-0.00381702
-0.00720009
-0.00882043
-0.0146939
-0.0177935
-0.0295606
-0.0369316
-0.0667265
-0.0925371
-0.209184
-0.434075
-0.382054
-0.527635
-0.606386
-0.921104
-0.854759
-0.155613
-0.030901
-0.00673404
-56.5377
53.2108
2.11312
1.29587
1.01969
0.639176
0.515689
0.353391
0.298006
0.216956
0.185883
0.130667
0.118921
0.12255
0.12258
0.118904
0.116599
0.110196
0.107102
0.0999469
0.0966594
0.0894052
0.0861525
0.0791489
0.0761111
0.0698017
0.0673945
0.063176
0.0636431
0.0704759
0.0945466
0.0610095
0.0419811
0.0363118
0.0298267
0.0274529
0.0235041
0.0219357
0.0190037
0.0178038
0.015474
0.0145072
0.0125979
0.0117957
0.0101878
0.00949812
0.00808189
0.0074477
0.00608258
0.00542645
0.00391934
0.00355337
0.00345526
0.00331197
0.00277678
0.00246255
0.00162064
0.00115849
-2.63152e-05
-0.000691489
-0.00242459
-0.00344298
-0.00617851
-0.00788831
-0.0126587
-0.0159416
-0.0255961
-0.0334751
-0.0585333
-0.0864358
-0.186855
-0.361274
-0.341162
-0.455612
-0.536407
-0.771982
-0.703029
-0.166354
-0.0368741
-0.00833419
-58.3335
55.8364
1.70404
1.11651
0.860456
0.554411
0.436229
0.304721
0.251624
0.186139
0.156494
0.112927
0.101678
0.103594
0.103518
0.100643
0.0984573
0.0933812
0.090438
0.0847413
0.0816111
0.075831
0.0727335
0.0671547
0.064264
0.0592544
0.0569789
0.0537486
0.0542852
0.0603022
0.0770391
0.0521802
0.0362962
0.0307838
0.0254612
0.0231798
0.020006
0.0185082
0.0161633
0.0150191
0.0131582
0.0122366
0.010712
0.00994735
0.00866327
0.0080058
0.00687415
0.00626941
0.00517801
0.00455522
0.00337596
0.0030268
0.00292135
0.00278192
0.00235671
0.00205747
0.00138544
0.000944727
-3.35592e-06
-0.000638218
-0.00202743
-0.00300027
-0.00519795
-0.00683378
-0.010683
-0.0138347
-0.0217025
-0.0293314
-0.0502265
-0.0774338
-0.161566
-0.296255
-0.294889
-0.384936
-0.460237
-0.635041
-0.570008
-0.160809
-0.0388096
-0.00906567
-60.1291
58.4418
1.33863
0.923881
0.703224
0.462132
0.357303
0.252914
0.205737
0.153889
0.127662
0.093894
0.0839092
0.084718
0.0845674
0.0823549
0.0804315
0.0764806
0.0738838
0.0694331
0.0666689
0.0621494
0.0594138
0.0550531
0.0525017
0.0485977
0.0466015
0.0441704
0.0447081
0.0496997
0.0611954
0.0429919
0.0301964
0.0252482
0.020974
0.0189424
0.0164408
0.0151146
0.0132748
0.012263
0.0108047
0.00999007
0.00879564
0.00811976
0.00711369
0.00653243
0.00564531
0.00511057
0.00425468
0.00370624
0.00279937
0.00249047
0.0023888
0.00226329
0.00193159
0.00166729
0.00114098
0.000751256
7.06857e-06
-0.000554778
-0.00164693
-0.00250856
-0.00423988
-0.00569071
-0.00873521
-0.0115393
-0.0178185
-0.024657
-0.0416671
-0.0661548
-0.134255
-0.236677
-0.244958
-0.314849
-0.380088
-0.507694
-0.450754
-0.143775
-0.0370549
-0.00890357
-61.9243
61.0296
1.00744
0.723492
0.546809
0.364402
0.278358
0.198819
0.160037
0.120613
0.0991314
0.0739097
0.0657083
0.0658804
0.0656994
0.0640552
0.0624869
0.0595258
0.0574037
0.0540574
0.0517968
0.0483965
0.0461591
0.042879
0.0407934
0.0378647
0.0362414
0.0344735
0.0349528
0.0388369
0.0465397
0.0335872
0.0237826
0.0196857
0.0163971
0.0147237
0.0128285
0.0117415
0.0103532
0.00952485
0.00842555
0.00775873
0.00685857
0.00630536
0.00554709
0.00507129
0.00440237
0.00396457
0.00331904
0.00287158
0.00219885
0.00194584
0.00185719
0.0017529
0.00150376
0.00128758
0.000891052
0.000571959
1.01946e-05
-0.00045013
-0.00127566
-0.00198207
-0.00329302
-0.0044839
-0.00679702
-0.00910478
-0.0139122
-0.0195758
-0.0328086
-0.0531314
-0.105572
-0.180866
-0.192564
-0.244949
-0.297443
-0.387728
-0.341502
-0.118731
-0.0321575
-0.00790566
-63.7193
63.6031
0.701906
0.518812
0.390624
0.262818
0.199153
0.143094
0.114362
0.0866204
0.0707504
0.0532446
0.0471725
0.0470569
0.0468899
0.0457525
0.0445979
0.0425375
0.0409727
0.0386383
0.0369703
0.034597
0.032946
0.0306571
0.0291189
0.0270795
0.0258871
0.0246867
0.0250613
0.0278214
0.0327101
0.0240566
0.0171406
0.0140908
0.0117555
0.010514
0.00918393
0.00838043
0.00740926
0.00679748
0.00602906
0.00553671
0.00490761
0.00449916
0.00396919
0.00361786
0.00315018
0.00282687
0.00237548
0.00204594
0.00158155
0.00139463
0.0013262
0.0012483
0.00107462
0.000915087
0.000638022
0.000402364
9.25915e-06
-0.000330877
-0.000909159
-0.0014314
-0.00235097
-0.0032322
-0.00485904
-0.00657032
-0.00997159
-0.0141919
-0.0236666
-0.0388233
-0.0759735
-0.127598
-0.138542
-0.175045
-0.213287
-0.273223
-0.239311
-0.0882386
-0.0247672
-0.00619487
-65.514
66.1661
0.414172
0.311936
0.234423
0.158668
0.119644
0.0862751
0.0686482
0.0521525
0.0424349
0.0321221
0.0283984
0.0282355
0.0281193
0.0274505
0.0267452
0.0255294
0.0245724
0.0231925
0.022172
0.0207686
0.0197585
0.0184052
0.0174644
0.0162604
0.0155332
0.0148369
0.0150743
0.0167207
0.0194222
0.0144565
0.0103439
0.00846735
0.00707021
0.00630769
0.00551826
0.00502607
0.00445089
0.00407637
0.00362152
0.00332015
0.00294782
0.00269781
0.00238414
0.00216908
0.00189221
0.00169428
0.00142704
0.00122568
0.000953134
0.000838685
0.000795592
0.000747532
0.000644902
0.00054729
0.000383333
0.000239065
6.20229e-06
-0.000202101
-0.000544899
-0.000864843
-0.00141046
-0.00195067
-0.0029177
-0.00396827
-0.00599824
-0.00859772
-0.0142973
-0.0236354
-0.0457966
-0.075958
-0.0834977
-0.105071
-0.128263
-0.162473
-0.141807
-0.0542425
-0.015581
-0.00394242
-67.3085
68.7227
0.136906
0.104071
0.0781519
0.0530489
0.0399088
0.028827
0.0228889
0.0174136
0.0141431
0.0107361
0.00948194
0.00941221
0.0093707
0.00914995
0.00891286
0.00851086
0.008189
0.00773235
0.00738906
0.00692454
0.00658474
0.00613683
0.00582036
0.00542218
0.00517794
0.00494977
0.00503098
0.00557778
0.00644098
0.00482222
0.00345771
0.00282469
0.00235951
0.0021025
0.0018407
0.00167503
0.00148449
0.00135846
0.00120783
0.00110643
0.00098313
0.000899009
0.000795133
0.00072277
0.00063107
0.000564469
0.000475957
0.000408264
0.000318396
0.000279879
0.000265177
0.000248941
0.000214982
0.000182144
0.000127855
7.93072e-05
2.16147e-06
-6.79469e-05
-0.000181554
-0.000289257
-0.000470167
-0.000652078
-0.000973007
-0.00132704
-0.00200211
-0.00287958
-0.00478241
-0.00793464
-0.0152996
-0.0252226
-0.0278922
-0.0350319
-0.0427992
-0.0539168
-0.046979
-0.0182903
-0.00531386
-0.00135234
-69.1028
68.7146
0.150884
0.128426
0.107467
0.0852099
0.072695
0.060737
0.0533354
0.0448801
0.0387611
0.0310045
0.0281934
0.0283068
0.0282053
0.027372
0.0264743
0.0249588
0.0237724
0.0221287
0.0209354
0.0193793
0.018284
0.0168975
0.015952
0.0148073
0.0141308
0.0135411
0.0138395
0.0155191
0.0181066
0.0137294
0.010072
0.00839263
0.00718139
0.00651505
0.00583641
0.00540328
0.00489902
0.00456073
0.00414953
0.0038682
0.00351975
0.00327773
0.00297276
0.00275545
0.00247282
0.0022601
0.00196633
0.00173048
0.00140792
0.00129515
0.00131302
0.00131485
0.00128214
0.00124358
0.00117577
0.00112162
0.00104526
0.000988583
0.00091264
0.000855806
0.000777684
0.000712176
0.000609037
0.000494946
0.00026893
-7.44681e-05
-0.000891648
-0.00243033
-0.00621667
-0.0117846
-0.0150688
-0.0220546
-0.0294895
-0.0404338
-0.0360474
-0.0140877
-0.00409758
-0.00104316
-69.8075
66.1413
0.456021
0.385217
0.322453
0.25524
0.218063
0.182029
0.160048
0.134547
0.116349
0.0928158
0.0844633
0.084929
0.0846452
0.0821185
0.0794475
0.0748634
0.0713354
0.066368
0.0628206
0.0581196
0.0548638
0.050675
0.047864
0.0444031
0.0423888
0.0405877
0.0414632
0.0465211
0.0545983
0.0411594
0.0301369
0.0251592
0.0215224
0.0195456
0.0174994
0.0162127
0.0146904
0.0136851
0.0124434
0.0116073
0.010555
0.00983572
0.00891478
0.00826896
0.00741568
0.00678355
0.00589668
0.00519491
0.00421538
0.00388023
0.00393969
0.00394592
0.00384667
0.00373191
0.00352678
0.00336576
0.003135
0.00296652
0.00273716
0.00256827
0.00233255
0.00213804
0.00182755
0.00148932
0.000811489
-0.00020445
-0.00264608
-0.00720107
-0.0185788
-0.0354452
-0.0450583
-0.0661457
-0.0883281
-0.121914
-0.108845
-0.0417842
-0.0120153
-0.00304114
-69.4223
63.5606
0.771351
0.641687
0.537616
0.424069
0.363385
0.302758
0.266902
0.223922
0.19415
0.15402
0.14038
0.141581
0.141175
0.136871
0.132497
0.124726
0.118956
0.11055
0.104752
0.0968021
0.0914809
0.0843973
0.0798021
0.0739412
0.0706383
0.0675272
0.0689196
0.0774023
0.0919508
0.0684928
0.0499601
0.0418721
0.035797
0.0325791
0.0291321
0.0270316
0.0244612
0.022819
0.0207211
0.019355
0.017577
0.0164018
0.0148458
0.0137908
0.0123497
0.0113172
0.00981965
0.00867047
0.00699708
0.00644954
0.00656851
0.00658123
0.00641182
0.00622387
0.00587604
0.0056127
0.00522226
0.00494691
0.00455927
0.00428342
0.00388578
0.00356855
0.00304719
0.00249728
0.00136758
-0.000277392
-0.00431596
-0.0116989
-0.0307213
-0.0593959
-0.0745887
-0.110193
-0.146711
-0.205261
-0.183802
-0.067989
-0.0191013
-0.00477886
-69.0371
60.9679
1.10395
0.897133
0.753159
0.590783
0.508705
0.422497
0.374041
0.312768
0.272365
0.214164
0.195704
0.198298
0.19786
0.191626
0.185683
0.174508
0.166682
0.154629
0.14677
0.135379
0.128168
0.11802
0.111791
0.103377
0.0988803
0.0942867
0.0960925
0.108041
0.130824
0.0956293
0.0693656
0.0585046
0.0499574
0.0456217
0.0407109
0.0378693
0.0341949
0.0319711
0.0289695
0.0271193
0.0245748
0.0229832
0.0207569
0.0193281
0.0172674
0.0158695
0.0137287
0.012167
0.00973376
0.00899221
0.0092016
0.00922385
0.00897774
0.00872225
0.00822193
0.00786474
0.00730494
0.00693181
0.00637693
0.00600347
0.00543581
0.00500724
0.00426798
0.00352846
0.00194431
-0.000254571
-0.00585205
-0.0157311
-0.0424776
-0.0838857
-0.103303
-0.154204
-0.204212
-0.291809
-0.262534
-0.0915168
-0.0248046
-0.00609896
-68.6517
58.3587
1.4613
1.15007
0.969438
0.754285
0.65419
0.540725
0.481692
0.40078
0.351292
0.272719
0.250185
0.255136
0.254778
0.246369
0.239078
0.224156
0.214578
0.198539
0.188928
0.17379
0.164974
0.151486
0.143867
0.132656
0.127126
0.12079
0.12286
0.138246
0.172016
0.122409
0.088155
0.0750446
0.0639494
0.0586874
0.052207
0.0487404
0.0438706
0.0411544
0.037172
0.0349114
0.0315347
0.0295899
0.026636
0.0248907
0.0221587
0.0204515
0.0176146
0.0156985
0.0124028
0.0114969
0.0118422
0.0118772
0.0115441
0.0112305
0.0105621
0.0101249
0.00938019
0.00892401
0.00818737
0.0077313
0.00698031
0.00645839
0.00548881
0.00459344
0.00254564
-9.57778e-05
-0.00721684
-0.0190886
-0.0536475
-0.109255
-0.130757
-0.19825
-0.260209
-0.383031
-0.346935
-0.110872
-0.0285876
-0.00686932
-68.2661
55.7291
1.85141
1.39777
1.1871
0.913185
0.800209
0.656777
0.590218
0.487534
0.431383
0.329032
0.303567
0.312186
0.312017
0.301068
0.292778
0.273591
0.262731
0.242193
0.231308
0.211947
0.201966
0.184718
0.176087
0.161708
0.155404
0.146958
0.149095
0.167717
0.216543
0.148574
0.106099
0.0915041
0.0777082
0.0718019
0.0635827
0.0596677
0.0534602
0.0503885
0.0453056
0.0427482
0.0384373
0.0362372
0.032467
0.0304929
0.027009
0.0250788
0.0214638
0.0192852
0.0149763
0.0139515
0.0144953
0.0145454
0.0141097
0.0137529
0.0128931
0.0123974
0.0114439
0.0109275
0.00998661
0.00947098
0.00851567
0.00792747
0.00670671
0.00570456
0.00317076
0.000242238
-0.00839156
-0.0215385
-0.0639753
-0.135989
-0.156372
-0.242518
-0.313772
-0.480609
-0.439334
-0.124077
-0.029948
-0.00699495
-67.8803
53.0764
2.28287
1.63576
1.40729
1.06565
0.947447
0.769753
0.70019
0.572428
0.513322
0.38227
0.355586
0.369587
0.369688
0.355661
0.346915
0.322693
0.311272
0.28546
0.274028
0.24973
0.239249
0.217605
0.208537
0.190437
0.183768
0.172702
0.17467
0.195979
0.265742
0.17372
0.122928
0.107932
0.0911515
0.085009
0.0747864
0.0706868
0.0629246
0.0597031
0.0533384
0.0506553
0.0452555
0.0429473
0.0382261
0.0361556
0.0317972
0.0297736
0.0252556
0.0229571
0.0174185
0.0163435
0.0171681
0.017233
0.0166721
0.0162955
0.0152096
0.0146883
0.0134902
0.0129479
0.0117689
0.0112283
0.0100364
0.0094219
0.0079159
0.00687698
0.00381171
0.000808509
-0.00938571
-0.0228168
-0.0731199
-0.164787
-0.179356
-0.287381
-0.363511
-0.586512
-0.542693
-0.128436
-0.0284614
-0.00643108
-67.4943
50.399
2.76483
1.85701
1.632
1.20917
1.09706
0.878404
0.812489
0.654575
0.598138
0.431333
0.405978
0.427545
0.427924
0.410042
0.40167
0.371282
0.360389
0.328153
0.317261
0.286959
0.276978
0.249989
0.241348
0.218709
0.212309
0.197925
0.199472
0.222303
0.321413
0.197217
0.138325
0.124431
0.104169
0.0983795
0.0857452
0.0818525
0.0722074
0.0691435
0.061224
0.0586712
0.0519503
0.049754
0.0438793
0.0419098
0.0364922
0.0345682
0.0289586
0.0267587
0.0196822
0.0186595
0.0198714
0.0199458
0.0192273
0.0188665
0.0175036
0.0170063
0.0155104
0.0149939
0.0135257
0.0130117
0.0115341
0.010952
0.00910646
0.0081305
0.00445022
0.00166247
-0.0102503
-0.0226201
-0.0806099
-0.19667
-0.198602
-0.33352
-0.407375
-0.703088
-0.660869
-0.120224
-0.0238569
-0.00519673
-67.1081
47.6979
3.30682
2.05094
1.86463
1.34027
1.25094
0.980946
0.928468
0.732663
0.687369
0.474739
0.454492
0.48635
0.486891
0.464044
0.457306
0.419093
0.41036
0.369992
0.361272
0.323377
0.315388
0.281639
0.27472
0.246332
0.241168
0.222511
0.223423
0.245576
0.386017
0.218102
0.151922
0.141185
0.116609
0.112024
0.0963545
0.0932485
0.0812271
0.0787783
0.068895
0.0668539
0.0584641
0.0567081
0.0493764
0.0478021
0.0410475
0.0395104
0.0325254
0.0307555
0.0217038
0.0208862
0.0226203
0.0226903
0.0217682
0.0214777
0.019763
0.0193643
0.0174914
0.0170781
0.0152444
0.0148337
0.012996
0.0125328
0.0102623
0.00949226
0.00505309
0.0028815
-0.0110966
-0.0205985
-0.0857769
-0.233117
-0.212527
-0.382101
-0.442364
-0.833181
-0.798982
-0.0942407
-0.0161441
-0.00338667
-66.7216
44.9776
3.91823
2.20209
2.11078
1.45396
1.41205
1.07479
1.05018
0.804731
0.783294
0.510449
0.500922
0.546409
0.546793
0.5174
0.514202
0.465724
0.461596
0.410565
0.40645
0.358598
0.354829
0.312217
0.30895
0.273026
0.270568
0.246315
0.246524
0.264119
0.462955
0.234917
0.163302
0.158493
0.128249
0.126112
0.106461
0.105001
0.0898641
0.0887107
0.0762525
0.0752907
0.0647128
0.0638852
0.0546434
0.0539018
0.0453942
0.0446705
0.0358837
0.0350436
0.0233961
0.0230109
0.0254358
0.0254745
0.024284
0.024146
0.0219699
0.0217814
0.0194141
0.0192191
0.0169062
0.0167128
0.014403
0.0141859
0.0113582
0.0110008
0.00556532
0.00457285
-0.0121218
-0.0163497
-0.0876573
-0.276281
-0.218847
-0.435055
-0.464132
-0.980274
-0.963916
-0.0431916
-0.00581783
-0.0011778
-66.3351
44.9776
3.91823
2.20209
2.11078
1.45396
1.41205
1.07479
1.05018
0.804731
0.783294
0.510449
0.500922
0.546409
0.546793
0.517401
0.514202
0.465724
0.461596
0.410565
0.40645
0.358598
0.354829
0.312217
0.30895
0.273026
0.270568
0.246315
0.246525
0.264119
0.462956
0.234918
0.163302
0.158493
0.128249
0.126112
0.106462
0.105002
0.0898644
0.0887109
0.0762528
0.0752909
0.064713
0.0638854
0.0546436
0.0539019
0.0453944
0.0446707
0.0358838
0.0350438
0.0233962
0.023011
0.0254359
0.0254746
0.0242841
0.0241461
0.02197
0.0217815
0.0194142
0.0192192
0.0169063
0.0167129
0.0144031
0.014186
0.0113583
0.0110009
0.00556542
0.00457295
-0.0121217
-0.0163496
-0.0876572
-0.276281
-0.218847
-0.435054
-0.464131
-0.980272
-0.963915
-0.0431915
-0.00581782
-0.00117781
-66.3351
47.6979
3.30682
2.05094
1.86463
1.34027
1.25094
0.980946
0.928468
0.732663
0.687369
0.474739
0.454492
0.486351
0.486891
0.464044
0.457306
0.419093
0.41036
0.369992
0.361272
0.323377
0.315389
0.28164
0.27472
0.246332
0.241169
0.222512
0.223423
0.245577
0.386018
0.218102
0.151922
0.141185
0.116609
0.112024
0.0963548
0.0932488
0.0812274
0.0787786
0.0688952
0.0668541
0.0584643
0.0567083
0.0493766
0.0478023
0.0410477
0.0395105
0.0325255
0.0307556
0.0217039
0.0208863
0.0226204
0.0226904
0.0217684
0.0214778
0.0197631
0.0193645
0.0174915
0.0170782
0.0152445
0.0148338
0.0129961
0.0125329
0.0102624
0.00949236
0.00505319
0.0028816
-0.0110965
-0.0205984
-0.0857768
-0.233117
-0.212527
-0.382101
-0.442364
-0.83318
-0.798981
-0.0942405
-0.0161441
-0.00338665
-66.7216
50.399
2.76483
1.85701
1.632
1.20917
1.09706
0.878404
0.812489
0.654575
0.598138
0.431333
0.405978
0.427545
0.427924
0.410042
0.40167
0.371283
0.360389
0.328153
0.317262
0.28696
0.276979
0.249989
0.241348
0.218709
0.212309
0.197925
0.199472
0.222304
0.321414
0.197217
0.138325
0.124431
0.10417
0.0983798
0.0857455
0.0818528
0.0722076
0.0691437
0.0612242
0.0586714
0.0519505
0.0497542
0.0438795
0.04191
0.0364923
0.0345684
0.0289588
0.0267588
0.0196823
0.0186596
0.0198715
0.0199458
0.0192274
0.0188666
0.0175037
0.0170064
0.0155105
0.014994
0.0135258
0.0130118
0.0115342
0.0109521
0.00910655
0.0081306
0.00445031
0.00166256
-0.0102502
-0.02262
-0.0806098
-0.19667
-0.198601
-0.33352
-0.407375
-0.703087
-0.660868
-0.120224
-0.0238568
-0.00519666
-67.1081
53.0764
2.28287
1.63576
1.40729
1.06565
0.947447
0.769753
0.70019
0.572428
0.513322
0.38227
0.355586
0.369587
0.369688
0.355661
0.346915
0.322693
0.311272
0.285461
0.274028
0.24973
0.239249
0.217605
0.208537
0.190437
0.183769
0.172702
0.17467
0.195979
0.265743
0.17372
0.122928
0.107932
0.0911518
0.0850093
0.0747866
0.070687
0.0629248
0.0597033
0.0533386
0.0506555
0.0452557
0.0429475
0.0382263
0.0361557
0.0317974
0.0297737
0.0252557
0.0229572
0.0174186
0.0163435
0.0171682
0.0172331
0.0166722
0.0162956
0.0152097
0.0146884
0.0134903
0.012948
0.011769
0.0112284
0.0100365
0.00942199
0.00791599
0.00687706
0.00381179
0.000808583
-0.00938564
-0.0228167
-0.0731199
-0.164787
-0.179356
-0.287381
-0.363511
-0.586512
-0.542692
-0.128436
-0.0284613
-0.00643097
-67.4943
55.7291
1.85141
1.39777
1.1871
0.913185
0.800209
0.656777
0.590218
0.487534
0.431383
0.329032
0.303567
0.312186
0.312017
0.301068
0.292778
0.273591
0.262731
0.242193
0.231308
0.211947
0.201966
0.184718
0.176087
0.161708
0.155405
0.146958
0.149095
0.167717
0.216543
0.148574
0.106099
0.0915044
0.0777084
0.0718021
0.0635829
0.0596678
0.0534604
0.0503886
0.0453058
0.0427484
0.0384374
0.0362373
0.0324671
0.030493
0.0270091
0.0250789
0.0214639
0.0192852
0.0149764
0.0139516
0.0144953
0.0145454
0.0141097
0.013753
0.0128932
0.0123975
0.011444
0.0109275
0.00998669
0.00947105
0.00851574
0.00792754
0.00670678
0.00570463
0.00317082
0.000242297
-0.00839151
-0.0215385
-0.0639753
-0.135989
-0.156372
-0.242518
-0.313771
-0.480609
-0.439334
-0.124077
-0.0299479
-0.00699481
-67.8803
58.3587
1.4613
1.15007
0.969438
0.754285
0.654189
0.540725
0.481692
0.40078
0.351292
0.272719
0.250185
0.255136
0.254778
0.24637
0.239078
0.224156
0.214578
0.198539
0.188928
0.17379
0.164974
0.151486
0.143867
0.132656
0.127126
0.120791
0.12286
0.138247
0.172016
0.122409
0.0881553
0.0750448
0.0639496
0.0586875
0.0522072
0.0487405
0.0438707
0.0411546
0.0371721
0.0349115
0.0315348
0.0295901
0.0266361
0.0248908
0.0221588
0.0204516
0.0176147
0.0156985
0.0124029
0.0114969
0.0118422
0.0118773
0.0115441
0.0112305
0.0105622
0.010125
0.00938025
0.00892407
0.00818743
0.00773136
0.00698036
0.00645844
0.00548887
0.0045935
0.00254569
-9.57322e-05
-0.00721681
-0.0190886
-0.0536475
-0.109255
-0.130757
-0.19825
-0.260209
-0.38303
-0.346934
-0.110872
-0.0285876
-0.00686917
-68.2661
60.9679
1.10395
0.897133
0.753159
0.590783
0.508705
0.422497
0.374041
0.312768
0.272365
0.214164
0.195704
0.198298
0.19786
0.191626
0.185683
0.174508
0.166682
0.154629
0.14677
0.13538
0.128169
0.11802
0.111791
0.103377
0.0988804
0.0942869
0.0960927
0.108041
0.130824
0.0956296
0.0693658
0.0585047
0.0499575
0.0456218
0.040711
0.0378694
0.034195
0.0319712
0.0289696
0.0271194
0.0245749
0.0229832
0.0207569
0.0193282
0.0172675
0.0158696
0.0137288
0.0121671
0.0097338
0.00899224
0.00920163
0.00922389
0.00897778
0.0087223
0.00822198
0.00786478
0.00730499
0.00693186
0.00637698
0.00600351
0.00543586
0.00500728
0.00426803
0.0035285
0.00194434
-0.000254538
-0.00585203
-0.0157311
-0.0424777
-0.0838858
-0.103303
-0.154204
-0.204211
-0.291808
-0.262533
-0.0915167
-0.0248045
-0.00609882
-68.6517
63.5606
0.77135
0.641687
0.537616
0.424069
0.363385
0.302758
0.266902
0.223922
0.19415
0.15402
0.14038
0.141581
0.141175
0.136871
0.132497
0.124726
0.118956
0.110551
0.104752
0.0968021
0.0914809
0.0843974
0.0798021
0.0739412
0.0706384
0.0675273
0.0689197
0.0774024
0.091951
0.068493
0.0499603
0.0418722
0.0357971
0.0325791
0.0291321
0.0270316
0.0244613
0.0228191
0.0207212
0.0193551
0.017577
0.0164019
0.0148459
0.0137908
0.0123498
0.0113173
0.00981969
0.00867051
0.0069971
0.00644956
0.00656853
0.00658126
0.00641185
0.0062239
0.00587607
0.00561273
0.0052223
0.00494694
0.00455931
0.00428346
0.00388581
0.00356858
0.00304722
0.00249731
0.00136761
-0.000277371
-0.00431595
-0.0116989
-0.0307213
-0.0593959
-0.0745887
-0.110193
-0.14671
-0.205261
-0.183802
-0.0679889
-0.0191012
-0.00477874
-69.0371
66.1413
0.45602
0.385217
0.322453
0.25524
0.218063
0.182029
0.160048
0.134547
0.116349
0.0928158
0.0844633
0.084929
0.0846452
0.0821185
0.0794475
0.0748634
0.0713355
0.066368
0.0628206
0.0581196
0.0548638
0.050675
0.0478641
0.0444032
0.0423888
0.0405877
0.0414632
0.0465211
0.0545985
0.0411595
0.030137
0.0251592
0.0215224
0.0195457
0.0174995
0.0162127
0.0146905
0.0136852
0.0124434
0.0116073
0.010555
0.00983576
0.00891481
0.00826899
0.00741571
0.00678358
0.00589671
0.00519494
0.0042154
0.00388024
0.0039397
0.00394594
0.00384668
0.00373193
0.0035268
0.00336578
0.00313502
0.00296654
0.00273718
0.00256829
0.00233257
0.00213805
0.00182757
0.00148933
0.000811503
-0.000204438
-0.00264607
-0.00720108
-0.0185788
-0.0354452
-0.0450583
-0.0661458
-0.0883281
-0.121914
-0.108845
-0.0417841
-0.0120153
-0.00304106
-69.4223
68.7146
0.150884
0.128426
0.107467
0.0852099
0.072695
0.060737
0.0533354
0.0448801
0.0387611
0.0310045
0.0281934
0.0283068
0.0282053
0.027372
0.0264743
0.0249588
0.0237724
0.0221287
0.0209354
0.0193793
0.0182841
0.0168975
0.015952
0.0148073
0.0141308
0.0135411
0.0138395
0.0155191
0.0181066
0.0137294
0.010072
0.00839265
0.00718141
0.00651506
0.00583642
0.0054033
0.00489903
0.00456074
0.00414954
0.00386821
0.00351976
0.00327774
0.00297277
0.00275546
0.00247283
0.00226011
0.00196634
0.00173049
0.00140793
0.00129515
0.00131302
0.00131485
0.00128215
0.00124358
0.00117578
0.00112163
0.00104527
0.000988589
0.000912646
0.000855812
0.00077769
0.000712182
0.000609042
0.000494951
0.000268934
-7.44649e-05
-0.000891647
-0.00243033
-0.00621669
-0.0117846
-0.0150688
-0.0220546
-0.0294895
-0.0404337
-0.0360473
-0.0140876
-0.00409757
-0.00104313
-69.8075
68.7223
0.136738
0.103793
0.0777585
0.0524416
0.039053
0.0275025
0.021089
0.0150022
0.0125849
0.011923
0.011573
0.0110198
0.0105817
0.0099678
0.00952182
0.00893943
0.00852139
0.0079781
0.00758709
0.00707743
0.00671198
0.00623878
0.00590758
0.00549444
0.0052416
0.00500517
0.00508355
0.00563168
0.00650038
0.00486516
0.00348709
0.00284785
0.00237821
0.0021188
0.00185467
0.00168756
0.00149543
0.00136837
0.00121655
0.00111435
0.00099012
0.00090537
0.000800734
0.000727851
0.000635505
0.000568443
0.000479327
0.000411176
0.00032071
0.000281965
0.000267247
0.000250984
0.000216934
0.000184008
0.000129578
8.09248e-05
3.63524e-06
-6.65758e-05
-0.000180315
-0.000288109
-0.000469134
-0.000651123
-0.000972149
-0.00132624
-0.0020014
-0.00287891
-0.0047818
-0.00793403
-0.015299
-0.0252219
-0.0278916
-0.0350316
-0.0427989
-0.0539166
-0.0469789
-0.0182903
-0.00531384
-0.0013523
-69.1028
66.1648
0.413669
0.311102
0.233247
0.156848
0.117086
0.0823019
0.063254
0.0448599
0.0376843
0.0357565
0.0347271
0.0330549
0.0317521
0.0298967
0.0285709
0.0268117
0.0255692
0.0239282
0.022766
0.0212265
0.0201402
0.0187106
0.017726
0.0164769
0.0157241
0.0150029
0.0152319
0.0168822
0.0196013
0.0145852
0.0104317
0.00853675
0.00712622
0.0063566
0.00556013
0.00506367
0.00448369
0.00410611
0.00364765
0.00334394
0.00296878
0.0027169
0.00240093
0.00218433
0.0019055
0.00170621
0.00143714
0.00123442
0.000960059
0.000844934
0.000801803
0.000753662
0.000650755
0.000552883
0.000388504
0.000243919
1.06221e-05
-0.000197987
-0.000541182
-0.000861398
-0.00140736
-0.00194781
-0.00291513
-0.00396589
-0.00599611
-0.00859572
-0.0142954
-0.0236336
-0.0457946
-0.0759558
-0.0834961
-0.10507
-0.128263
-0.162472
-0.141807
-0.0542423
-0.0155809
-0.0039423
-67.3085
63.601
0.701071
0.517422
0.388677
0.259788
0.194919
0.136472
0.105393
0.0742689
0.0625739
0.0595541
0.057907
0.0550751
0.0529446
0.0498044
0.0476373
0.0446634
0.0426329
0.0398592
0.03796
0.0353575
0.0335822
0.0311647
0.029555
0.0274395
0.0262054
0.0249627
0.0253233
0.02809
0.0330116
0.0242707
0.017286
0.0142063
0.0118486
0.0105955
0.00925358
0.00844312
0.00746385
0.00684708
0.00607256
0.00557638
0.0049425
0.004531
0.00399715
0.00364329
0.00317232
0.00284676
0.0023923
0.00206053
0.00159304
0.00140502
0.00133656
0.00125853
0.00108437
0.000924416
0.000646635
0.00041046
1.66198e-05
-0.000324016
-0.00090297
-0.00142566
-0.00234582
-0.00322742
-0.00485476
-0.00656636
-0.00996804
-0.0141885
-0.0236635
-0.0388202
-0.0759703
-0.127595
-0.138539
-0.175043
-0.213286
-0.273222
-0.23931
-0.0882383
-0.0247671
-0.0061947
-65.514
61.0267
1.00628
0.721546
0.544113
0.360168
0.272495
0.189547
0.147534
0.102901
0.0871165
0.0832968
0.0811342
0.0770673
0.0741775
0.0696731
0.066736
0.0624772
0.0597264
0.0557552
0.0531822
0.0494554
0.0470499
0.0435865
0.0414043
0.0383669
0.036687
0.0348583
0.0353185
0.0392115
0.0469684
0.0338859
0.0239841
0.0198469
0.0165268
0.0148379
0.0129258
0.0118293
0.0104295
0.00959435
0.00848633
0.00781432
0.00690732
0.00634998
0.00558616
0.00510694
0.00443331
0.00399247
0.00334254
0.00289206
0.00221483
0.00196032
0.00187169
0.00176724
0.00151742
0.00130066
0.000903099
0.000583305
2.04867e-05
-0.000440514
-0.00126701
-0.00197402
-0.00328581
-0.0044772
-0.00679103
-0.00909923
-0.0139072
-0.0195712
-0.0328044
-0.0531272
-0.105567
-0.180861
-0.19256
-0.244947
-0.297441
-0.387727
-0.341501
-0.11873
-0.0321573
-0.00790547
-63.7193
58.4381
1.33714
0.921378
0.699809
0.456697
0.349883
0.240985
0.189779
0.130378
0.11118
0.106973
0.104438
0.0990125
0.095475
0.0894792
0.0858876
0.0802308
0.0768686
0.0715952
0.0684504
0.0635004
0.0605599
0.0559569
0.0532877
0.0492399
0.0471745
0.0446623
0.0451763
0.0501785
0.0617588
0.0433739
0.0304515
0.0254548
0.0211397
0.0190892
0.0165653
0.0152276
0.0133725
0.0123525
0.0108827
0.0100616
0.00885814
0.00817721
0.00716378
0.00657834
0.00568498
0.00514653
0.0042848
0.00373265
0.00281971
0.00250899
0.00240745
0.00228176
0.00194914
0.00168413
0.00115645
0.000765867
2.02769e-05
-0.000542397
-0.00163583
-0.0024982
-0.00423063
-0.00568209
-0.00872753
-0.0115321
-0.0178122
-0.024651
-0.0416616
-0.0661494
-0.13425
-0.23667
-0.244954
-0.314846
-0.380085
-0.507692
-0.450753
-0.143774
-0.0370547
-0.00890339
-61.9243
55.8319
1.70224
1.11344
0.856367
0.547774
0.427354
0.290115
0.232352
0.156248
0.134645
0.130583
0.127857
0.120882
0.116871
0.109189
0.105122
0.0978926
0.0940873
0.0873501
0.0837909
0.077465
0.0741364
0.0682501
0.0652263
0.0600336
0.0576799
0.0543452
0.0548546
0.0608824
0.0777477
0.0526434
0.036602
0.0310355
0.025662
0.0233594
0.0201574
0.0186466
0.0162822
0.0151287
0.013253
0.0123243
0.0107881
0.0100177
0.00872426
0.00806206
0.00692244
0.00631351
0.00521467
0.00458767
0.0034005
0.00304927
0.00294417
0.00280454
0.00237815
0.0020781
0.00140431
0.000962624
1.27455e-05
-0.000623053
-0.0020139
-0.00298757
-0.00518668
-0.00682323
-0.0106737
-0.013826
-0.0216948
-0.029324
-0.0502198
-0.0774272
-0.161559
-0.296246
-0.294883
-0.384932
-0.460234
-0.635039
-0.570006
-0.160808
-0.0388094
-0.00906551
-60.1291
53.2056
2.11103
1.29224
1.01499
0.631324
0.505497
0.336066
0.275659
0.179938
0.157408
0.154139
0.151446
0.142633
0.138413
0.128754
0.124482
0.115417
0.111423
0.102978
0.0992421
0.0913097
0.0878152