/*--------------------------------*- C++ -*----------------------------------*\
| =========                 |                                                 |
| \\      /  F ield         | OpenFOAM: The Open Source CFD Toolbox           |
|  \\    /   O peration     | Version:  5.x                                   |
|   \\  /    A nd           | Web:      www.OpenFOAM.org                      |
|    \\/     M anipulation  |                                                 |
\*---------------------------------------------------------------------------*/
FoamFile
{
    version     2.0;
    format      ascii;
    class       volScalarField;
    location    "0.8";
    object      gradTy;
}
// * * * * * * * * * * * * * * * * * * * * * * * * * * * * * * * * * * * * * //

dimensions      [0 -1 0 1 0 0 0];

internalField   nonuniform List<scalar> 
2048
(
-26.6553
-26.6298
-26.5798
-26.5065
-26.4121
-26.2991
-26.1702
-26.0282
-25.8758
-25.7155
-25.5498
-25.3806
-25.2099
-25.0393
-24.8702
-24.7039
-24.5414
-24.3835
-24.231
-24.0844
-23.9439
-23.8101
-23.6829
-23.5625
-23.4492
-23.3429
-23.2439
-23.1524
-23.0684
-22.9924
-22.9246
-22.8655
-22.8154
-22.7751
-22.745
-22.726
-22.7188
-22.7244
-22.7435
-22.7773
-22.8266
-22.8926
-22.9762
-23.0784
-23.1999
-23.3414
-23.5032
-23.6852
-23.887
-24.1071
-24.3438
-24.594
-24.8541
-25.1195
-25.3849
-25.6446
-25.8924
-26.1226
-26.3299
-26.5095
-26.6575
-26.7709
-26.8477
-26.8864
-26.6758
-26.6497
-26.5984
-26.5234
-26.4269
-26.3117
-26.1806
-26.0364
-25.8819
-25.7198
-25.5523
-25.3816
-25.2096
-25.0378
-24.8677
-24.7005
-24.5373
-24.3789
-24.2259
-24.0789
-23.9383
-23.8042
-23.6769
-23.5565
-23.443
-23.3366
-23.2375
-23.1457
-23.0615
-22.9852
-22.9171
-22.8575
-22.807
-22.7661
-22.7355
-22.7158
-22.7079
-22.7127
-22.731
-22.764
-22.8125
-22.8777
-22.9605
-23.062
-23.1831
-23.3243
-23.4861
-23.6687
-23.8714
-24.0932
-24.3321
-24.5854
-24.8492
-25.1189
-25.389
-25.6535
-25.906
-26.1406
-26.3517
-26.5344
-26.6848
-26.8
-26.8779
-26.9172
-26.715
-26.6876
-26.6339
-26.5556
-26.4552
-26.3358
-26.2002
-26.0518
-25.8934
-25.7277
-25.557
-25.3834
-25.2088
-25.0348
-24.8628
-24.694
-24.5295
-24.37
-24.2162
-24.0686
-23.9276
-23.7932
-23.6656
-23.545
-23.4313
-23.3246
-23.2252
-23.1331
-23.0485
-22.9716
-22.9029
-22.8426
-22.7912
-22.7493
-22.7175
-22.6966
-22.6873
-22.6906
-22.7075
-22.7388
-22.7858
-22.8494
-22.9308
-23.031
-23.151
-23.2917
-23.4535
-23.6369
-23.8414
-24.0662
-24.3095
-24.5685
-24.8395
-25.1174
-25.3966
-25.6704
-25.9321
-26.1751
-26.3934
-26.5821
-26.7372
-26.8556
-26.9355
-26.9758
-26.7712
-26.7419
-26.6847
-26.6015
-26.4954
-26.3696
-26.2278
-26.0733
-25.9093
-25.7384
-25.5632
-25.3856
-25.2075
-25.0304
-24.8557
-24.6846
-24.5182
-24.3572
-24.2023
-24.0539
-23.9123
-23.7775
-23.6497
-23.5287
-23.4148
-23.3078
-23.2079
-23.1153
-23.0301
-22.9525
-22.8829
-22.8215
-22.7689
-22.7256
-22.6922
-22.6695
-22.6583
-22.6596
-22.6742
-22.7033
-22.748
-22.8094
-22.8886
-22.987
-23.1054
-23.2452
-23.4069
-23.5912
-23.7981
-24.027
-24.2763
-24.5435
-24.8247
-25.1146
-25.407
-25.6944
-25.9693
-26.2245
-26.4533
-26.6505
-26.812
-26.9349
-27.0175
-27.0592
-26.8433
-26.8115
-26.7495
-26.6598
-26.546
-26.4121
-26.2621
-26.0998
-25.9286
-25.7514
-25.5705
-25.3879
-25.2054
-25.0244
-24.8463
-24.6724
-24.5037
-24.3409
-24.1846
-24.0353
-23.893
-23.7578
-23.6296
-23.5084
-23.3941
-23.2868
-23.1864
-23.0932
-23.0073
-22.9288
-22.8581
-22.7954
-22.7412
-22.6961
-22.6607
-22.6358
-22.6222
-22.6208
-22.6327
-22.659
-22.7008
-22.7592
-22.8357
-22.9315
-23.0479
-23.1861
-23.3474
-23.5326
-23.7422
-23.9759
-24.2328
-24.5103
-24.8045
-25.11
-25.4194
-25.7247
-26.017
-26.2879
-26.5301
-26.738
-26.9073
-27.0357
-27.1216
-27.1648
-26.9304
-26.8954
-26.8274
-26.7294
-26.606
-26.4619
-26.3018
-26.1301
-25.9504
-25.7657
-25.5782
-25.3899
-25.2022
-25.0168
-24.8348
-24.6576
-24.4861
-24.3212
-24.1635
-24.0131
-23.8702
-23.7346
-23.6061
-23.4846
-23.37
-23.2622
-23.1614
-23.0675
-22.9807
-22.9012
-22.8292
-22.765
-22.709
-22.6618
-22.624
-22.5964
-22.58
-22.5756
-22.5842
-22.6071
-22.6454
-22.7003
-22.7734
-22.866
-22.9796
-23.1158
-23.2762
-23.462
-23.6742
-23.9133
-24.1787
-24.4683
-24.7783
-25.1026
-25.4333
-25.7607
-26.0744
-26.3646
-26.623
-26.8434
-27.0218
-27.1561
-27.2456
-27.2904
-27.0321
-26.9931
-26.9175
-26.8093
-26.6741
-26.5178
-26.3458
-26.1632
-25.9739
-25.7807
-25.5859
-25.3912
-25.1979
-25.0074
-24.8211
-24.6401
-24.4656
-24.2984
-24.139
-23.9877
-23.8443
-23.7084
-23.5797
-23.458
-23.343
-23.2348
-23.1333
-23.0387
-22.9511
-22.8705
-22.7971
-22.7312
-22.6732
-22.6236
-22.5831
-22.5525
-22.5328
-22.5249
-22.5299
-22.5488
-22.5831
-22.6339
-22.7029
-22.7917
-22.9019
-23.0354
-23.1941
-23.38
-23.5946
-23.8391
-24.1137
-24.417
-24.7452
-25.0919
-25.4479
-25.8019
-26.1413
-26.4544
-26.7315
-26.966
-27.1541
-27.2946
-27.3874
-27.4338
-27.1481
-27.1041
-27.0192
-26.8987
-26.7494
-26.5786
-26.393
-26.198
-25.998
-25.7957
-25.5932
-25.3916
-25.1923
-24.9964
-24.8052
-24.62
-24.4422
-24.2726
-24.1116
-23.9594
-23.8155
-23.6795
-23.5508
-23.4289
-23.3137
-23.205
-23.1029
-23.0076
-22.919
-22.8373
-22.7624
-22.6947
-22.6344
-22.5822
-22.5387
-22.5049
-22.4816
-22.4698
-22.4707
-22.4853
-22.515
-22.5612
-22.6256
-22.7098
-22.8158
-22.9458
-23.1021
-23.2872
-23.5035
-23.7532
-24.0374
-24.3555
-24.7042
-25.0767
-25.4625
-25.8479
-26.2176
-26.5573
-26.8555
-27.1052
-27.3033
-27.4496
-27.5454
-27.5931
-27.2783
-27.2283
-27.1322
-26.9969
-26.8309
-26.6433
-26.4421
-26.2335
-26.022
-25.8101
-25.5995
-25.3909
-25.1853
-24.9836
-24.7871
-24.5975
-24.4161
-24.2439
-24.0813
-23.9284
-23.7844
-23.6485
-23.5199
-23.3979
-23.2824
-23.1732
-23.0705
-22.9745
-22.885
-22.8021
-22.7258
-22.6561
-22.5935
-22.5384
-22.4917
-22.4543
-22.4271
-22.4112
-22.4076
-22.4175
-22.4422
-22.4833
-22.5424
-22.6214
-22.7225
-22.8482
-23.001
-23.1843
-23.4013
-23.6554
-23.949
-24.2828
-24.6541
-25.056
-25.4763
-25.8985
-26.3035
-26.6736
-26.9952
-27.2608
-27.4685
-27.6198
-27.7178
-27.7661
-27.423
-27.3656
-27.256
-27.103
-26.9175
-26.7107
-26.492
-26.2686
-26.0449
-25.8233
-25.6046
-25.389
-25.1769
-24.9691
-24.767
-24.5725
-24.3872
-24.2124
-24.0484
-23.8949
-23.7511
-23.6156
-23.4874
-23.3655
-23.2497
-23.14
-23.0367
-22.9399
-22.8496
-22.7656
-22.6878
-22.6161
-22.551
-22.4929
-22.4427
-22.4015
-22.3701
-22.3498
-22.3415
-22.3463
-22.3657
-22.4012
-22.4545
-22.5277
-22.6231
-22.7434
-22.8917
-23.0719
-23.2883
-23.5456
-23.848
-24.1978
-24.5937
-25.0285
-25.4886
-25.9535
-26.3995
-26.804
-27.151
-27.4328
-27.649
-27.8038
-27.9025
-27.9508
-27.5824
-27.5162
-27.3904
-27.2164
-27.0082
-26.7794
-26.5414
-26.3021
-26.0661
-25.8348
-25.6083
-25.3858
-25.1671
-24.9529
-24.7449
-24.5451
-24.3557
-24.1781
-24.0128
-23.8593
-23.7161
-23.5814
-23.4538
-23.3321
-23.216
-23.1058
-23.0017
-22.9042
-22.8131
-22.7282
-22.6489
-22.5753
-22.5074
-22.4461
-22.3923
-22.347
-22.3114
-22.2864
-22.2731
-22.2726
-22.2863
-22.3157
-22.3627
-22.4295
-22.5185
-22.6326
-22.7752
-22.9508
-23.1648
-23.4236
-23.7336
-24.0993
-24.5213
-24.9928
-25.4982
-26.0128
-26.5063
-26.9498
-27.3239
-27.6212
-27.8441
-28.0001
-28.0979
-28.1451
-27.7571
-27.6803
-27.5351
-27.3364
-27.1018
-26.8483
-26.5891
-26.3331
-26.0846
-25.8442
-25.6104
-25.3814
-25.1562
-24.9354
-24.7208
-24.5152
-24.3214
-24.1411
-23.9747
-23.8216
-23.6795
-23.5462
-23.4195
-23.2981
-23.1817
-23.0708
-22.9659
-22.8677
-22.7761
-22.6903
-22.6097
-22.534
-22.4634
-22.3987
-22.341
-22.2915
-22.2513
-22.2215
-22.2031
-22.1971
-22.2048
-22.2278
-22.2681
-22.3279
-22.4098
-22.5167
-22.6523
-22.8217
-23.0314
-23.2896
-23.6052
-23.986
-24.4351
-24.9469
-25.5041
-26.0765
-26.6251
-27.1124
-27.515
-27.8264
-28.0531
-28.2074
-28.3018
-28.3467
-27.9479
-27.8583
-27.69
-27.4621
-27.1971
-26.9158
-26.6338
-26.3604
-26.0998
-25.8511
-25.6109
-25.3759
-25.1443
-24.9166
-24.695
-24.483
-24.2844
-24.1013
-23.9342
-23.782
-23.6418
-23.5104
-23.3849
-23.2639
-23.1471
-23.0352
-22.9295
-22.8307
-22.7387
-22.6523
-22.5705
-22.4928
-22.4194
-22.3511
-22.2892
-22.2353
-22.1905
-22.1559
-22.1322
-22.1205
-22.122
-22.1383
-22.1714
-22.2237
-22.2979
-22.3968
-22.5242
-22.6857
-22.8887
-23.1434
-23.4621
-23.8564
-24.3333
-24.889
-25.505
-26.1447
-26.7573
-27.2939
-27.7256
-28.0486
-28.2751
-28.4239
-28.5121
-28.5532
-28.1556
-28.0506
-27.855
-27.5929
-27.2929
-26.9807
-26.674
-26.3829
-26.1109
-25.8552
-25.6099
-25.3696
-25.1318
-24.897
-24.6675
-24.4484
-24.2445
-24.0586
-23.8911
-23.7406
-23.6032
-23.4744
-23.3506
-23.2299
-23.1126
-22.9995
-22.8926
-22.7933
-22.7012
-22.6146
-22.5318
-22.4521
-22.3757
-22.3036
-22.2374
-22.1789
-22.1294
-22.0898
-22.0609
-22.0435
-22.0385
-22.0477
-22.0733
-22.1178
-22.1838
-22.274
-22.392
-22.5437
-22.7375
-22.9855
-23.3038
-23.7091
-24.2135
-24.8166
-25.4991
-26.2175
-26.9052
-27.4968
-27.9577
-28.2882
-28.5094
-28.6479
-28.7267
-28.7623
-28.3813
-28.2579
-28.03
-27.7277
-27.3876
-27.0413
-26.7084
-26.3995
-26.1174
-25.8565
-25.6076
-25.3628
-25.1191
-24.8767
-24.6385
-24.4113
-24.2018
-24.013
-23.8456
-23.6976
-23.5641
-23.4387
-23.3168
-23.1966
-23.0784
-22.9636
-22.8553
-22.7557
-22.6639
-22.5775
-22.4939
-22.4123
-22.3328
-22.2566
-22.1858
-22.1226
-22.0684
-22.0239
-21.9897
-21.9664
-21.9549
-21.9569
-21.9746
-22.0109
-22.0683
-22.1492
-22.2568
-22.397
-22.5789
-22.8164
-23.1298
-23.5427
-24.0736
-24.7268
-25.4841
-26.2949
-27.0713
-27.7244
-28.2132
-28.5455
-28.7548
-28.8775
-28.9432
-28.9715
-28.6262
-28.4808
-28.2148
-27.8656
-27.4797
-27.0962
-26.7357
-26.4091
-26.1185
-25.8549
-25.6045
-25.3562
-25.1066
-24.8564
-24.6082
-24.3716
-24.156
-23.9644
-23.7974
-23.6531
-23.5247
-23.4038
-23.2841
-23.1642
-23.0449
-22.9278
-22.8176
-22.7178
-22.627
-22.5414
-22.4572
-22.3736
-22.291
-22.2104
-22.1346
-22.0666
-22.0077
-21.9583
-21.919
-21.89
-21.8718
-21.8662
-21.8758
-21.9036
-21.9524
-22.0236
-22.1197
-22.2468
-22.414
-22.6366
-22.9401
-23.3556
-23.911
-24.6164
-25.4573
-26.3771
-27.2591
-27.9809
-28.4943
-28.8207
-29.0099
-29.1106
-29.1591
-29.1782
-28.8917
-28.7201
-28.4096
-28.0055
-27.5673
-27.1438
-26.7546
-26.4105
-26.1139
-25.8505
-25.6011
-25.35
-25.0948
-24.8364
-24.5767
-24.3291
-24.1071
-23.9127
-23.7465
-23.6072
-23.4854
-23.37
-23.2528
-23.1331
-23.0124
-22.8921
-22.7793
-22.6796
-22.5906
-22.5065
-22.422
-22.3365
-22.2507
-22.1651
-22.0839
-22.0112
-21.9476
-21.8935
-21.8492
-21.8145
-21.7896
-21.7763
-21.7773
-21.7965
-21.8367
-21.8981
-21.9819
-22.0945
-22.2444
-22.4472
-22.7344
-23.1467
-23.7232
-24.4817
-25.4147
-26.4639
-27.4732
-28.2709
-28.8035
-29.1135
-29.273
-29.3448
-29.3721
-29.3801
-29.1795
-28.9762
-28.6143
-28.146
-27.6482
-27.1825
-26.7638
-26.4025
-26.1029
-25.8435
-25.5981
-25.345
-25.0841
-24.8177
-24.5443
-24.2835
-24.0549
-23.8576
-23.6925
-23.5598
-23.4465
-23.3382
-23.2235
-23.1036
-22.9812
-22.8566
-22.7402
-22.6411
-22.5549
-22.4732
-22.3885
-22.3011
-22.2121
-22.121
-22.0339
-21.9564
-21.8883
-21.8296
-21.7807
-21.7404
-21.7088
-21.6875
-21.6797
-21.6899
-21.7219
-21.7737
-21.8444
-21.9415
-22.0718
-22.2494
-22.5131
-22.9145
-23.5078
-24.3185
-25.3513
-26.5548
-27.7196
-28.6006
-29.1431
-29.4233
-29.542
-29.5777
-29.5797
-29.5749
-29.4915
-29.2498
-28.8293
-28.2858
-27.7199
-27.2112
-26.7623
-26.3837
-26.0852
-25.8343
-25.5967
-25.3416
-25.0749
-24.801
-24.5111
-24.2341
-23.9993
-23.7993
-23.6351
-23.5111
-23.4085
-23.309
-23.1964
-23.0759
-22.9518
-22.8211
-22.6997
-22.602
-22.52
-22.4421
-22.3571
-22.2676
-22.1756
-22.0783
-21.9844
-21.9024
-21.83
-21.7669
-21.7136
-21.6681
-21.6298
-21.6002
-21.5831
-21.5842
-21.6086
-21.6514
-21.7083
-21.7893
-21.8983
-22.0448
-22.2767
-22.6579
-23.2627
-24.1227
-25.26
-26.649
-28.0063
-28.9768
-29.5153
-29.7488
-29.8144
-29.8066
-29.7796
-29.7604
-29.8296
-29.5409
-29.0552
-28.4232
-27.7792
-27.2287
-26.7493
-26.3526
-26.0605
-25.8233
-25.5983
-25.3403
-25.0673
-24.7878
-24.4771
-24.1799
-23.9406
-23.7375
-23.5737
-23.461
-23.3717
-23.2832
-23.1719
-23.05
-22.9249
-22.7858
-22.6572
-22.5621
-22.486
-22.4135
-22.3279
-22.236
-22.1416
-22.0369
-21.9352
-21.8492
-21.7729
-21.7054
-21.6483
-21.5978
-21.5529
-21.5148
-21.4879
-21.4795
-21.4974
-21.5322
-21.5743
-21.6393
-21.7262
-21.8352
-22.0261
-22.3758
-22.9863
-23.8898
-25.1316
-26.7443
-28.3442
-29.4078
-29.9217
-30.0879
-30.0872
-30.0289
-29.9696
-29.9347
-30.1966
-29.849
-29.2934
-28.5565
-27.8218
-27.2348
-26.7244
-26.3072
-26.0286
-25.8109
-25.6048
-25.3414
-25.0611
-24.7798
-24.4428
-24.1196
-23.8789
-23.6727
-23.5074
-23.4096
-23.3365
-23.2621
-23.1501
-23.0259
-22.9014
-22.7505
-22.6116
-22.5212
-22.453
-22.3883
-22.3011
-22.2064
-22.1109
-21.9971
-21.8859
-21.7971
-21.7171
-21.6451
-21.585
-21.53
-21.4785
-21.4316
-21.3942
-21.3754
-21.3885
-21.4173
-21.4428
-21.4926
-21.5583
-21.6225
-21.7626
-22.0669
-22.678
-23.6163
-24.9533
-26.8377
-28.7479
-29.9028
-30.3628
-30.4377
-30.3569
-30.2418
-30.1477
-30.0964
-30.5955
-30.1724
-29.5461
-28.6838
-27.8424
-27.2301
-26.6877
-26.2448
-25.9898
-25.7976
-25.6189
-25.3449
-25.0554
-24.7798
-24.408
-24.0505
-23.8153
-23.605
-23.4348
-23.3571
-23.303
-23.2471
-23.1311
-23.003
-22.8826
-22.7152
-22.5615
-22.4791
-22.4212
-22.3673
-22.2766
-22.1782
-22.0841
-21.9588
-21.8358
-21.7462
-21.6627
-21.5859
-21.524
-21.4647
-21.4069
-21.3508
-21.3022
-21.2717
-21.2825
-21.3079
-21.3139
-21.3502
-21.398
-21.4086
-21.4881
-21.7292
-22.3381
-23.2999
-24.7077
-26.9238
-29.2379
-30.472
-30.8381
-30.7939
-30.6198
-30.4427
-30.3122
-30.2441
-31.0302
-30.5075
-29.8174
-28.803
-27.8333
-27.2167
-26.6402
-26.1615
-25.9447
-25.7832
-25.6443
-25.3502
-25.0483
-24.7919
-24.3731
-23.9693
-23.7513
-23.5353
-23.3538
-23.304
-23.2714
-23.2403
-23.1146
-22.9802
-22.8706
-22.6799
-22.5047
-22.4359
-22.3903
-22.352
-22.2543
-22.1509
-22.0625
-21.9219
-21.7839
-21.6968
-21.61
-21.5276
-21.4654
-21.4022
-21.3383
-21.2727
-21.212
-21.1675
-21.1793
-21.2059
-21.1869
-21.2128
-21.2496
-21.1956
-21.2053
-21.3602
-21.9686
-22.9411
-24.3716
-26.9941
-29.8422
-31.1257
-31.3446
-31.1511
-30.8718
-30.6291
-30.4616
-30.3769
-31.5062
-30.8475
-30.1142
-28.9119
-27.7843
-27.1992
-26.5834
-26.0517
-25.8953
-25.7669
-25.6864
-25.3562
-25.0365
-24.8221
-24.338
-23.8703
-23.6899
-23.4647
-23.2613
-23.2512
-23.2411
-23.2448
-23.0999
-22.9557
-22.8685
-22.6444
-22.4383
-22.392
-22.3601
-22.3444
-22.2337
-22.1233
-22.0479
-21.8866
-21.7285
-21.6497
-21.5592
-21.4697
-21.4096
-21.3427
-21.2731
-21.1977
-21.1241
-21.0615
-21.0792
-21.1137
-21.0605
-21.0803
-21.118
-20.9846
-20.9181
-20.9552
-21.5732
-22.545
-23.9136
-27.0357
-30.5998
-31.8736
-31.8769
-31.503
-31.1088
-30.799
-30.5951
-30.4943
-32.0308
-31.1809
-30.4473
-29.0083
-27.6805
-27.1855
-26.5202
-25.9075
-25.845
-25.7464
-25.7529
-25.361
-25.0142
-24.8793
-24.3028
-23.7456
-23.6358
-23.395
-23.1526
-23.2009
-23.2108
-23.2647
-23.0859
-22.9264
-22.8809
-22.6087
-22.3581
-22.3486
-22.3296
-22.3471
-22.2141
-22.0933
-22.0431
-21.8526
-21.6674
-21.606
-21.5107
-21.4114
-21.3571
-21.2863
-21.2115
-21.1259
-21.039
-20.9519
-20.9818
-21.0349
-20.9322
-20.9519
-21.0103
-20.7759
-20.6326
-20.5069
-21.1578
-22.1242
-23.2918
-27.0296
-31.5648
-32.7229
-32.4261
-31.8419
-31.3266
-30.9505
-30.7118
-30.5961
-32.6142
-31.4889
-30.8334
-29.0898
-27.5015
-27.1885
-26.4547
-25.7168
-25.8002
-25.7168
-25.8547
-25.3614
-24.9728
-24.9763
-24.2673
-23.5836
-23.5966
-23.3284
-23.0209
-23.1564
-23.1777
-23.3062
-23.0708
-22.8877
-22.9146
-22.5726
-22.2584
-22.3081
-22.2971
-22.3642
-22.1944
-22.0581
-22.0521
-21.8197
-21.5972
-21.5676
-21.4649
-21.3515
-21.3086
-21.2329
-21.1538
-21.0575
-20.9578
-20.8361
-20.8866
-20.9746
-20.7979
-20.8256
-20.9355
-20.5678
-20.3577
-20.0038
-20.7301
-21.7019
-22.4506
-26.9477
-32.8118
-33.6755
-32.9795
-32.1597
-31.5217
-31.0823
-30.8116
-30.6825
-33.271
-31.7429
-31.2981
-29.1542
-27.2185
-27.228
-26.3923
-25.4624
-25.7718
-25.6693
-26.0075
-25.3527
-24.899
-25.1316
-24.2312
-23.3677
-23.5836
-23.2682
-22.8562
-23.1238
-23.1369
-23.3778
-23.0519
-22.8323
-22.9792
-22.5358
-22.1313
-22.2747
-22.2594
-22.4015
-22.1728
-22.0132
-22.0807
-21.7875
-21.5134
-21.5374
-21.4221
-21.2882
-21.2653
-21.1822
-21.1002
-20.9926
-20.8822
-20.7103
-20.7925
-20.9402
-20.6517
-20.6979
-20.9059
-20.3552
-20.1073
-19.428
-20.2993
-21.3168
-21.3173
-26.7498
-34.443
-34.7246
-33.5203
-32.4479
-31.691
-31.1937
-30.8946
-30.7537
-34.022
-31.8995
-31.8786
-29.199
-26.792
-27.3332
-26.3401
-25.1198
-25.7775
-25.5887
-26.2331
-25.3283
-24.7736
-25.3708
-24.1937
-23.0748
-23.6138
-23.2185
-22.6444
-23.113
-23.0797
-23.4919
-23.0255
-22.7502
-23.0884
-22.4975
-21.9659
-22.2555
-22.2109
-22.467
-22.1467
-21.9521
-22.137
-21.7554
-21.4094
-21.5198
-21.3828
-21.2188
-21.2289
-21.1339
-21.0512
-20.9308
-20.8149
-20.5698
-20.6973
-20.9424
-20.4853
-20.5629
-20.9386
-20.1279
-19.9022
-18.753
-19.8755
-21.0292
-19.7977
-26.3798
-36.5977
-35.8485
-34.0274
-32.6984
-31.8319
-31.2844
-30.9613
-30.8106
-34.8961
-31.8958
-32.6286
-29.2219
-26.1679
-27.5461
-26.3068
-24.6546
-25.8447
-25.4509
-26.5625
-25.2795
-24.5694
-25.7298
-24.1537
-22.6732
-23.711
-23.184
-22.3654
-23.1394
-22.9927
-23.6654
-22.9863
-22.6269
-23.261
-22.4567
-21.7476
-22.2616
-22.1426
-22.572
-22.1128
-21.8662
-22.2326
-21.7221
-21.2767
-21.5211
-21.3474
-21.14
-21.2018
-21.0869
-21.0073
-20.8717
-20.7601
-20.4083
-20.598
-20.9961
-20.2872
-20.4123
-21.0569
-19.868
-19.7736
-17.941
-19.4679
-20.9279
-17.7711
-25.7597
-39.463
-37.0038
-34.4767
-32.9042
-31.9434
-31.3546
-31.0124
-30.8539
-35.9334
-31.6427
-33.6233
-29.2201
-25.2739
-27.9248
-26.3025
-24.0191
-26.0149
-25.2185
-27.038
-25.1944
-24.2489
-26.2565
-24.1092
-22.1204
-23.9088
-23.1707
-21.9919
-23.2262
-22.8548
-23.922
-22.9276
-22.4425
-23.5226
-22.4114
-21.4569
-22.3098
-22.0409
-22.7321
-22.0661
-21.743
-22.3828
-21.6862
-21.1037
-21.5506
-21.316
-21.0466
-21.1879
-21.0398
-20.9692
-20.8136
-20.7239
-20.2177
-20.4892
-21.1217
-20.042
-20.2336
-21.2932
-19.5466
-19.7669
-16.9392
-19.0827
-21.1395
-15.0848
-24.784
-43.2876
-38.1153
-34.8426
-33.06
-32.0249
-31.4051
-31.049
-30.8848
-37.1888
-31.0169
-34.9658
-29.1902
-24.0144
-28.5487
-26.3391
-23.1491
-26.3483
-24.8364
-27.7174
-25.0581
-23.7616
-27.015
-24.0569
-21.3602
-24.2527
-23.1851
-21.4869
-23.4075
-22.6351
-24.2939
-22.8403
-22.1704
-23.9071
-22.3586
-21.0682
-22.4246
-21.8849
-22.9685
-22.0007
-21.5663
-22.6086
-21.6449
-20.8752
-21.6206
-21.2882
-20.9323
-21.1926
-20.9901
-20.9382
-20.7543
-20.715
-19.9878
-20.3632
-21.347
-19.7297
-20.0098
-21.6913
-19.1191
-19.947
-15.6765
-18.7198
-21.8381
-11.5487
-23.3112
-48.3979
-39.0644
-35.1012
-33.163
-32.0775
-31.4372
-31.0722
-30.9043
-38.7358
-29.8516
-36.7949
-29.128
-22.2651
-29.5232
-26.4291
-21.9587
-26.9309
-24.2252
-28.6778
-24.8514
-23.0405
-28.0889
-23.9924
-20.3196
-24.8037
-23.2343
-20.801
-23.7316
-22.2889
-24.8242
-22.713
-21.7753
-24.4593
-22.2938
-20.548
-22.6406
-21.6451
-23.3097
-21.9083
-21.3147
-22.9371
-21.5948
-20.5718
-21.748
-21.2632
-20.7886
-21.223
-20.9344
-20.916
-20.6897
-20.7451
-19.7061
-20.2088
-21.7085
-19.3248
-19.7174
-22.3106
-18.5203
-20.4048
-14.0587
-18.3691
-23.257
-6.92855
-21.1558
-55.2168
-39.6738
-35.2345
-33.2134
-32.1027
-31.4524
-31.0832
-30.9137
)
;

boundaryField
{
    left
    {
        type            calculated;
        value           nonuniform List<scalar> 
32
(
-26.6553
-26.6758
-26.715
-26.7712
-26.8433
-26.9304
-27.0321
-27.1481
-27.2783
-27.423
-27.5824
-27.7571
-27.9479
-28.1556
-28.3813
-28.6262
-28.8917
-29.1795
-29.4915
-29.8296
-30.1966
-30.5955
-31.0302
-31.5062
-32.0308
-32.6142
-33.271
-34.022
-34.8961
-35.9334
-37.1888
-38.7358
)
;
    }
    right
    {
        type            calculated;
        value           nonuniform List<scalar> 
32
(
-26.8864
-26.9172
-26.9758
-27.0592
-27.1648
-27.2904
-27.4338
-27.5931
-27.7661
-27.9508
-28.1451
-28.3467
-28.5532
-28.7623
-28.9715
-29.1782
-29.3801
-29.5749
-29.7604
-29.9347
-30.0964
-30.2441
-30.3769
-30.4943
-30.5961
-30.6825
-30.7537
-30.8106
-30.8539
-30.8848
-30.9043
-30.9137
)
;
    }
    interface
    {
        type            calculated;
        value           nonuniform List<scalar> 
64
(
-39.5927
-29.1102
-37.8509
-29.0882
-21.2505
-30.1132
-26.4891
-21.2712
-27.2969
-23.8506
-29.2393
-24.7278
-22.6121
-28.7164
-23.9563
-19.719
-25.1395
-23.2685
-20.4059
-23.9365
-22.0778
-25.1351
-22.6377
-21.5421
-24.7835
-22.2577
-20.2503
-22.779
-21.4999
-23.5106
-21.8543
-21.1672
-23.1309
-21.5669
-20.3987
-21.8286
-21.2511
-20.7082
-21.2458
-20.9045
-20.9074
-20.6554
-20.7716
-19.5507
-20.1229
-21.9285
-19.0957
-19.5507
-22.6842
-18.1684
-20.7163
-13.1478
-18.1947
-24.1797
-4.31532
-19.8811
-59.1128
-39.8672
-35.2682
-33.2257
-32.1088
-31.456
-31.0859
-30.916
)
;
    }
    bottom
    {
        type            calculated;
        value           nonuniform List<scalar> 
64
(
-26.65
-26.6247
-26.575
-26.5021
-26.4082
-26.2957
-26.1674
-26.026
-25.8741
-25.7144
-25.5491
-25.3803
-25.21
-25.0397
-24.8709
-24.7048
-24.5424
-24.3847
-24.2323
-24.0858
-23.9454
-23.8116
-23.6844
-23.5641
-23.4508
-23.3446
-23.2456
-23.1541
-23.0702
-22.9943
-22.9266
-22.8676
-22.8176
-22.7774
-22.7475
-22.7287
-22.7217
-22.7274
-22.7468
-22.7807
-22.8303
-22.8965
-22.9803
-23.0826
-23.2043
-23.3459
-23.5076
-23.6896
-23.891
-24.1108
-24.3468
-24.5962
-24.8554
-25.1197
-25.3839
-25.6422
-25.8888
-26.118
-26.3242
-26.503
-26.6504
-26.7633
-26.8398
-26.8784
)
;
    }
    defaultFaces
    {
        type            empty;
    }
}


// ************************************************************************* //
