/*--------------------------------*- C++ -*----------------------------------*\
| =========                 |                                                 |
| \\      /  F ield         | OpenFOAM: The Open Source CFD Toolbox           |
|  \\    /   O peration     | Version:  5.x                                   |
|   \\  /    A nd           | Web:      www.OpenFOAM.org                      |
|    \\/     M anipulation  |                                                 |
\*---------------------------------------------------------------------------*/
FoamFile
{
    version     2.0;
    format      ascii;
    class       volScalarField;
    location    "0.8";
    object      gradTx;
}
// * * * * * * * * * * * * * * * * * * * * * * * * * * * * * * * * * * * * * //

dimensions      [0 -1 0 1 0 0 0];

internalField   nonuniform List<scalar> 
2048
(
0.00582012
0.0172497
0.0281887
0.0383448
0.0474329
0.0553449
0.0620123
0.0674256
0.0716351
0.074726
0.0767994
0.0779615
0.0783165
0.0779634
0.0769962
0.075505
0.0735763
0.0712928
0.0687314
0.0659602
0.063036
0.0600018
0.0568871
0.0537078
0.050469
0.0471666
0.0437898
0.040322
0.0367419
0.0330236
0.0291372
0.0250488
0.0207222
0.01612
0.0112047
0.0059404
0.00029395
-0.00576418
-0.0122585
-0.0192067
-0.0266173
-0.0344863
-0.0427925
-0.0514918
-0.0605106
-0.0697377
-0.0790161
-0.0881363
-0.0968316
-0.104779
-0.11161
-0.116928
-0.120341
-0.121498
-0.120131
-0.116091
-0.109368
-0.100092
-0.0885148
-0.0749753
-0.0598583
-0.0435571
-0.0264452
-0.0088657
0.0173592
0.0514427
0.0840086
0.114204
0.141204
0.164654
0.184365
0.200326
0.212702
0.221757
0.227799
0.231148
0.232116
0.230995
0.228062
0.223582
0.217812
0.210998
0.20337
0.195131
0.18645
0.177456
0.168235
0.158832
0.14926
0.139507
0.129537
0.119303
0.108741
0.0977734
0.0863116
0.074255
0.0614953
0.0479204
0.0334187
0.0178833
0.00121482
-0.0166748
-0.0358595
-0.0563937
-0.0783055
-0.101586
-0.126179
-0.151958
-0.178713
-0.206121
-0.233724
-0.260907
-0.28688
-0.310682
-0.331203
-0.34725
-0.357629
-0.361271
-0.357355
-0.345421
-0.325437
-0.297805
-0.263299
-0.222954
-0.177939
-0.12944
-0.0785745
-0.0263417
0.0288097
0.0853465
0.139251
0.189109
0.233572
0.272033
0.304209
0.330136
0.350125
0.36465
0.374246
0.379454
0.380787
0.378723
0.37371
0.366179
0.35655
0.34523
0.332603
0.319008
0.304726
0.289968
0.274872
0.259509
0.243892
0.227994
0.211757
0.1951
0.177918
0.160086
0.141456
0.12186
0.10112
0.0790487
0.0554599
0.0301763
0.00303346
-0.0261158
-0.0573961
-0.0909024
-0.126689
-0.164753
-0.205016
-0.247289
-0.29125
-0.336392
-0.381987
-0.427043
-0.470267
-0.510068
-0.544588
-0.571797
-0.589649
-0.596289
-0.590283
-0.570823
-0.537853
-0.492081
-0.434865
-0.368003
-0.293499
-0.21336
-0.129473
-0.043409
0.0403936
0.11962
0.194976
0.264415
0.326068
0.379087
0.423148
0.458389
0.485336
0.504724
0.517347
0.523979
0.525333
0.522058
0.514759
0.50402
0.49042
0.474529
0.456886
0.437975
0.418192
0.397827
0.377066
0.355992
0.334612
0.312879
0.290706
0.267978
0.244553
0.220257
0.194886
0.168205
0.139962
0.109892
0.0777346
0.0432414
0.00618207
-0.0336501
-0.0764336
-0.122309
-0.171368
-0.223628
-0.279005
-0.337281
-0.398046
-0.460653
-0.524144
-0.587185
-0.648011
-0.7044
-0.753713
-0.793013
-0.819295
-0.829795
-0.822349
-0.79573
-0.749851
-0.685792
-0.605613
-0.512009
-0.407925
-0.296236
-0.179653
-0.0602349
0.052323
0.154871
0.252118
0.341298
0.419999
0.487157
0.542479
0.586297
0.619441
0.642979
0.658009
0.665554
0.666519
0.661706
0.651853
0.637682
0.619926
0.599322
0.576579
0.552334
0.527106
0.501265
0.475031
0.448492
0.421633
0.394373
0.366596
0.338152
0.308865
0.278517
0.246846
0.21355
0.178296
0.140741
0.100545
0.0573883
0.0109746
-0.0389631
-0.09266
-0.150311
-0.212052
-0.277942
-0.347918
-0.421755
-0.499005
-0.578923
-0.660374
-0.741736
-0.820801
-0.894726
-0.960044
-1.01281
-1.04891
-1.06446
-1.05642
-1.02301
-0.964098
-0.881248
-0.777401
-0.656363
-0.522184
-0.378683
-0.229441
-0.0769145
0.0648003
0.191673
0.311549
0.420827
0.516515
0.597384
0.663263
0.714807
0.753268
0.780142
0.796884
0.80478
0.804914
0.798204
0.785492
0.767618
0.745463
0.719943
0.691956
0.662311
0.631661
0.600456
0.568941
0.537183
0.505129
0.472654
0.439602
0.405795
0.371027
0.335041
0.29752
0.258088
0.216327
0.171808
0.124108
0.0728354
0.0176283
-0.0418402
-0.105864
-0.174698
-0.24854
-0.327502
-0.411572
-0.500554
-0.594004
-0.691136
-0.790705
-0.890866
-0.989024
-1.08173
-1.16463
-1.23267
-1.28038
-1.30255
-1.29496
-1.25512
-1.18285
-1.08032
-0.951639
-0.802017
-0.636851
-0.461012
-0.278973
-0.0934809
0.0780256
0.230595
0.374117
0.50401
0.616669
0.710757
0.786368
0.84464
0.887404
0.9167
0.934402
0.942066
0.94092
0.931954
0.916065
0.894185
0.867342
0.836647
0.803217
0.768065
0.731993
0.695531
0.658928
0.622209
0.585253
0.547873
0.509869
0.471042
0.431167
0.389957
0.34704
0.301958
0.254201
0.203242
0.148573
0.0897266
0.0262806
-0.0421496
-0.115918
-0.195345
-0.280702
-0.372177
-0.469832
-0.573536
-0.682899
-0.797156
-0.915031
-1.03455
-1.15279
-1.26575
-1.36817
-1.45369
-1.51527
-1.54601
-1.54015
-1.49427
-1.40807
-1.28455
-1.12936
-0.949535
-0.752139
-0.543241
-0.328203
-0.109907
0.0922052
0.272218
0.440677
0.591835
0.721445
0.82815
0.912497
0.97632
1.02222
1.05293
1.0708
1.07765
1.07481
1.06325
1.04388
1.01767
0.985808
0.949626
0.910504
0.869698
0.828186
0.786574
0.745095
0.703691
0.662138
0.620163
0.577521
0.534001
0.489379
0.443353
0.395494
0.345255
0.292017
0.235143
0.174032
0.108145
0.0370034
-0.0398293
-0.122765
-0.212195
-0.308476
-0.411893
-0.522605
-0.640583
-0.765535
-0.896791
-1.03314
-1.17257
-1.31198
-1.44685
-1.571
-1.67665
-1.75485
-1.79655
-1.79401
-1.74249
-1.64152
-1.4952
-1.31125
-1.09911
-0.867921
-0.625115
-0.376907
-0.126104
0.107559
0.317158
0.512115
0.685298
0.831787
0.950344
1.04221
1.11019
1.15791
1.18893
1.20615
1.21165
1.20674
1.19232
1.16918
1.13832
1.10106
1.05902
1.0139
0.967259
0.920278
0.873639
0.827523
0.781738
0.735909
0.689649
0.642663
0.594752
0.545726
0.495282
0.442937
0.388039
0.329838
0.267571
0.200536
0.128125
0.0498135
-0.0348755
-0.126408
-0.22525
-0.331857
-0.446627
-0.569842
-0.701606
-0.841768
-0.989821
-1.14472
-1.30458
-1.46623
-1.62479
-1.77318
-1.90203
-2.00014
-2.05574
-2.05847
-2.00176
-1.88484
-1.71331
-1.49769
-1.25059
-0.98373
-0.706109
-0.424693
-0.141929
0.124326
0.366077
0.589372
0.785421
0.948617
1.07803
1.17593
1.24643
1.29445
1.32459
1.34038
1.34404
1.3368
1.31931
1.29217
1.25633
1.21327
1.16494
1.11346
1.06075
1.00827
0.956748
0.906275
0.856451
0.80669
0.756451
0.705391
0.653359
0.600241
0.545766
0.489393
0.430341
0.367701
0.300559
0.228102
0.149661
0.0646828
-0.0273347
-0.126902
-0.234566
-0.35089
-0.476407
-0.611543
-0.756555
-0.911472
-1.07602
-1.24943
-1.4301
-1.61501
-1.79909
-1.97445
-2.13002
-2.25193
-2.32502
-2.33544
-2.27408
-2.13965
-1.93976
-1.68875
-1.40344
-1.09876
-0.785438
-0.47101
-0.157184
0.142772
0.419705
0.673461
0.89327
1.07284
1.21184
1.31397
1.38505
1.43166
1.45967
1.47325
1.47472
1.46501
1.44438
1.41306
1.3719
1.32257
1.26745
1.20917
1.15014
1.09211
1.0359
0.981406
0.927937
0.874613
0.820698
0.765797
0.709864
0.652933
0.594802
0.534865
0.472175
0.405625
0.33412
0.256721
0.172715
0.0815448
-0.0172952
-0.12435
-0.240245
-0.365669
-0.501309
-0.647755
-0.80543
-0.974564
-1.15517
-1.34688
-1.54857
-1.75762
-1.96903
-2.17427
-2.36051
-2.5108
-2.60573
-2.62688
-2.56154
-2.40755
-2.17524
-1.8842
-1.55677
-1.21189
-0.862073
-0.51516
-0.171624
0.163191
0.478844
0.765483
1.00997
1.20537
1.35232
1.45648
1.52591
1.56921
1.59377
1.60445
1.60351
1.59136
1.56763
1.53205
1.48523
1.42911
1.36661
1.30101
1.23533
1.17173
1.11107
1.05296
0.996307
0.939827
0.882528
0.823971
0.764293
0.703784
0.64236
0.579333
0.513537
0.443616
0.368253
0.28637
0.197226
0.100302
-0.00488134
-0.118888
-0.242424
-0.376323
-0.521449
-0.678573
-0.848285
-1.03101
-1.2271
-1.43672
-1.65939
-1.89321
-2.13364
-2.3718
-2.59313
-2.77711
-2.89917
-2.93487
-2.86645
-2.69026
-2.42031
-2.08345
-1.70932
-1.32164
-0.93476
-0.556326
-0.184965
0.185916
0.544387
0.86664
1.13671
1.34709
1.49994
1.60353
1.66871
1.70658
1.72633
1.73355
1.73018
1.71581
1.68921
1.64936
1.59654
1.53302
1.46244
1.38891
1.31621
1.24702
1.18221
1.12101
1.06169
1.0025
0.942101
0.880004
0.816655
0.752749
0.688389
0.622765
0.554417
0.481678
0.402956
0.31701
0.223111
0.120831
0.00975226
-0.110687
-0.241278
-0.383017
-0.53698
-0.704137
-0.885232
-1.08086
-1.29171
-1.51859
-1.76192
-2.02085
-2.29177
-2.56593
-2.82715
-3.05096
-3.20652
-3.26163
-3.19138
-2.98962
-2.6754
-2.28559
-1.8594
-1.42623
-1.00205
-0.593594
-0.196899
0.211317
0.61732
0.978242
1.27476
1.49889
1.65507
1.75504
1.813
1.84309
1.85668
1.86004
1.85446
1.83832
1.80927
1.76525
1.70606
1.63443
1.55497
1.47278
1.39262
1.31783
1.24929
1.18559
1.12424
1.06283
0.999602
0.933995
0.866939
0.799754
0.732814
0.665118
0.594798
0.519813
0.438227
0.348602
0.250272
0.142985
0.0264257
-0.099946
-0.237004
-0.385941
-0.548085
-0.724629
-0.916445
-1.12422
-1.34897
-1.59224
-1.85557
-2.13954
-2.44209
-2.75527
-3.06156
-3.33217
-3.52887
-3.60959
-3.53932
-3.30772
-2.94073
-2.48923
-2.00489
-1.5236
-1.06235
-0.625997
-0.207104
0.239812
0.698734
1.10172
1.42547
1.66163
1.81798
1.91081
1.9582
1.97793
1.98401
1.98335
1.97607
1.95886
1.92799
1.88005
1.81406
1.73347
1.64422
1.55251
1.46436
1.38398
1.31223
1.2468
1.18411
1.12105
1.05525
0.986052
0.915106
0.844688
0.77554
0.706343
0.634666
0.55803
0.474076
0.381101
0.278599
0.166602
0.0449382
-0.0868848
-0.229821
-0.385301
-0.554966
-0.740264
-0.942158
-1.1613
-1.39893
-1.65748
-1.93981
-2.24826
-2.58312
-2.93813
-3.29497
-3.62023
-3.86715
-3.98142
-3.91379
-3.64695
-3.21634
-2.69252
-2.14325
-1.61141
-1.11397
-0.652558
-0.215263
0.271874
0.789826
1.23863
1.59029
1.83613
1.98884
2.07054
2.10362
2.11014
2.1074
2.10285
2.09474
2.07739
2.04559
1.99414
1.92083
1.83027
1.73018
1.62796
1.53116
1.44524
1.37097
1.30473
1.24151
1.17741
1.10933
1.03629
0.961088
0.887402
0.816454
0.746394
0.674005
0.596346
0.510528
0.414469
0.307965
0.191502
0.0650722
-0.0717423
-0.219964
-0.381317
-0.557834
-0.75128
-0.962661
-1.19238
-1.44177
-1.71425
-2.01419
-2.34599
-2.71323
-3.11258
-3.52566
-3.91425
-4.22203
-4.38005
-4.31903
-4.01008
-3.50196
-2.89301
-2.27144
-1.68712
-1.1552
-0.672342
-0.221083
0.308044
0.891895
1.39065
1.77077
2.02313
2.16761
2.23382
2.24842
2.2386
2.22581
2.21794
2.21026
2.1939
2.16234
2.108
2.02669
1.92495
1.81289
1.69898
1.59273
1.50135
1.42545
1.35951
1.29663
1.23221
1.16215
1.08485
1.00477
0.927698
0.855429
0.785236
0.712801
0.634788
0.547635
0.448669
0.338232
0.217495
0.0865978
-0.0547729
-0.207679
-0.374211
-0.556903
-0.757927
-0.978295
-1.21785
-1.47774
-1.76262
-2.07844
-2.43179
-2.83073
-3.27646
-3.75159
-4.21291
-4.59382
-4.80863
-4.76018
-4.40041
-3.79691
-3.08753
-2.38598
-1.74806
-1.18439
-0.684512
-0.224313
0.348951
1.00634
1.55954
1.9686
2.22329
2.35408
2.40018
2.39173
2.36205
2.3381
2.32798
2.32247
2.30836
2.27852
2.22224
2.13201
2.01755
1.89238
1.76542
1.64871
1.55199
1.47561
1.41133
1.34968
1.28578
1.21412
1.13187
1.04599
0.965318
0.892325
0.822857
0.751039
0.673388
0.585486
0.483671
0.369239
0.244386
0.109277
-0.0362446
-0.193218
-0.364205
-0.552376
-0.760449
-0.989446
-1.23819
-1.5072
-1.80275
-2.13247
-2.50485
-2.93386
-3.42737
-3.9704
-4.51444
-4.98221
-5.27056
-5.24363
-4.82187
-4.09993
-3.27206
-2.48293
-1.79153
-1.20005
-0.688386
-0.22476
0.39535
1.13462
1.74717
2.1857
2.43709
2.54773
2.56916
2.53263
2.47909
2.44301
2.43239
2.43136
2.42067
2.39443
2.33766
2.23713
2.10808
1.96875
1.82714
1.69865
1.59677
1.52144
1.46045
1.40085
1.33844
1.26578
1.17752
1.0845
0.999937
0.927005
0.859289
0.78869
0.712185
0.624224
0.519451
0.400799
0.271977
0.132868
-0.0164378
-0.17684
-0.351516
-0.544438
-0.759069
-0.996533
-1.25397
-1.53057
-1.83496
-2.17644
-2.56448
-3.02083
-3.56275
-4.17948
-4.81659
-5.3861
-5.76933
-5.77734
-5.2792
-4.40885
-3.44159
-2.55797
-1.81491
-1.20092
-0.683483
-0.22231
0.448189
1.27825
1.95542
2.42425
2.66482
2.74768
2.74035
2.67018
2.58814
2.53914
2.53067
2.5371
2.53068
2.51035
2.45529
2.3424
2.19639
2.04219
1.88402
1.74204
1.63522
1.56291
1.50722
1.45027
1.39053
1.31778
1.222
1.11996
1.03115
0.959334
0.894633
0.825698
0.751205
0.664073
0.555983
0.432684
0.300082
0.157133
0.00435328
-0.158803
-0.336352
-0.533248
-0.753967
-1.00001
-1.26588
-1.54832
-1.85964
-2.21078
-2.61021
-3.08987
-3.67985
-4.37607
-5.11673
-5.80314
-6.30836
-6.37143
-5.77806
-4.72031
-3.58995
-2.60649
-1.81581
-1.18608
-0.669566
-0.21693
0.508719
1.43873
2.1861
2.68688
2.90644
2.95255
2.91357
2.80352
2.68743
2.62497
2.62242
2.64019
2.63799
2.62646
2.57655
2.44809
2.28209
2.11304
1.93599
1.77825
1.66681
1.60009
1.55217
1.49798
1.44234
1.37102
1.2655
1.1519
1.05844
0.9892
0.929095
0.861951
0.790452
0.70537
0.593238
0.464599
0.32854
0.18184
0.0258178
-0.139367
-0.318916
-0.518937
-0.745254
-1.00032
-1.27478
-1.56093
-1.87721
-2.23634
-2.64183
-3.13922
-3.77578
-4.55735
-5.41197
-6.22936
-6.89069
-7.03881
-6.32532
-5.02915
-3.70966
-2.62374
-1.79224
-1.15504
-0.646669
-0.208682
0.578672
1.61745
2.44082
2.97692
3.16147
3.16023
3.08906
2.93188
2.77499
2.69877
2.70735
2.74155
2.74193
2.74283
2.70339
2.55437
2.36449
2.18192
1.98305
1.80649
1.69086
1.63306
1.59603
1.54383
1.49407
1.42668
1.30824
1.17968
1.08122
1.01652
0.963044
0.897242
0.82988
0.74862
0.631162
0.496162
0.357238
0.206769
0.0476223
-0.118784
-0.299402
-0.50161
-0.732942
-0.99794
-1.28166
-1.56883
-1.8881
-2.25437
-2.65936
-3.16718
-3.84748
-4.72062
-5.69946
-6.65853
-7.51855
-7.79615
-6.92921
-5.32771
-3.79189
-2.60506
-1.74273
-1.10778
-0.615105
-0.197718
0.660545
1.81559
2.72075
3.29872
3.42885
3.36769
3.26776
3.05459
2.84852
2.75864
2.78535
2.84277
2.84126
2.85922
2.83856
2.66119
2.44238
2.24987
2.02524
1.82581
1.70656
1.66199
1.63992
1.58739
1.54578
1.48639
1.35041
1.20246
1.09875
1.04124
0.997085
0.931203
0.869357
0.794571
0.66966
0.526855
0.386153
0.231717
0.0694011
-0.0972949
-0.278005
-0.481352
-0.716908
-0.993292
-1.28781
-1.57232
-1.89258
-2.26673
-2.66312
-3.17213
-3.89166
-4.8634
-5.9769
-7.08147
-8.19261
-8.6651
-7.59954
-5.60494
-3.82646
-2.54615
-1.66656
-1.04479
-0.575459
-0.18427
0.758029
2.03397
3.02628
3.65823
3.70665
3.57056
3.45174
3.17112
2.90541
2.80243
2.85639
2.94639
2.93402
2.97501
2.98595
2.76815
2.51383
2.31858
2.06269
1.83503
1.71295
1.68707
1.68543
1.6278
1.59731
1.55235
1.39214
1.21914
1.1102
1.06335
1.03216
0.963228
0.908618
0.844322
0.708555
0.555975
0.415402
0.256495
0.0907422
-0.0751175
-0.254919
-0.458251
-0.69685
-0.986747
-1.29485
-1.57152
-1.89062
-2.27598
-2.65371
-3.15252
-3.90477
-4.98355
-6.24324
-7.48517
-8.91105
-9.67389
-8.34796
-5.84508
-3.80196
-2.44348
-1.56385
-0.96709
-0.528559
-0.168644
0.876634
2.27279
3.35657
4.06372
3.9918
3.76274
3.6448
3.28099
2.94261
2.82773
2.92052
3.05632
3.01709
3.08891
3.15109
2.8743
2.57593
2.3907
2.09553
1.83271
1.70892
1.70849
1.73489
1.66358
1.64813
1.62763
1.43341
1.22833
1.11459
1.08286
1.06971
0.992351
0.947196
0.899465
0.747537
0.582562
0.445319
0.280922
0.111168
-0.0524294
-0.23035
-0.432427
-0.672243
-0.978562
-1.30491
-1.56628
-1.88176
-2.28563
-2.63192
-3.10698
-3.88278
-5.07933
-6.49982
-7.85177
-9.66819
-10.8594
-9.18807
-6.02612
-3.7062
-2.29465
-1.43567
-0.876195
-0.475435
-0.151194
1.02458
2.53138
3.70884
4.52681
4.27969
3.93577
3.8532
3.3836
2.95658
2.83184
2.9777
3.17837
3.0858
3.19878
3.34179
2.9779
2.62439
2.47031
2.12382
1.81705
1.69314
1.7264
1.79163
1.6924
1.69723
1.71643
1.47393
1.22829
1.11086
1.09972
1.11184
1.0171
0.984347
0.96228
0.786084
0.605314
0.476559
0.304806
0.130111
-0.0293434
-0.204516
-0.404081
-0.642279
-0.968797
-1.32081
-1.55603
-1.86473
-2.30043
-2.59863
-3.03435
-3.82109
-5.14928
-6.75182
-8.15744
-10.4527
-12.2699
-10.1355
-6.11786
-3.52686
-2.09887
-1.28412
-0.774042
-0.417261
-0.132306
1.214
2.80778
4.07749
5.06381
4.56354
4.07814
4.08671
3.47796
2.94322
2.81186
3.02754
3.32101
3.13333
3.3012
3.56898
3.07607
2.65311
2.56346
2.14736
1.78591
1.66416
1.74071
1.86045
1.71078
1.74292
1.82448
1.51297
1.21694
1.09792
1.1138
1.16158
1.03529
1.01894
1.03598
0.823356
0.622479
0.510241
0.327912
0.146882
-0.00587325
-0.177651
-0.373557
-0.605815
-0.957204
-1.34633
-1.53974
-1.83722
-2.32675
-2.55464
-2.93388
-3.71422
-5.19191
-7.01021
-8.37108
-11.2451
-13.9681
-11.208
-6.07948
-3.25259
-1.85739
-1.11222
-0.662901
-0.355294
-0.112379
1.4626
3.09829
4.45294
5.69753
4.83379
4.17434
4.35991
3.56221
2.89783
2.76471
3.06891
3.49632
3.15005
3.39106
3.84774
3.16429
2.65362
2.67894
2.16547
1.73677
1.62043
1.75091
1.94805
1.71366
1.78262
1.9596
1.54906
1.19177
1.07464
1.12468
1.22322
1.0438
1.04932
1.12504
0.858053
0.631732
0.54812
0.349907
0.160638
0.0181116
-0.150007
-0.341426
-0.561313
-0.943066
-1.38657
-1.51575
-1.79539
-2.37307
-2.50035
-2.80537
-3.55566
-5.20515
-7.29428
-8.45305
-12.0152
-16.0353
-12.425
-5.8567
-2.87462
-1.57387
-0.923898
-0.545249
-0.290815
-0.0918011
1.79565
3.39687
4.8201
6.4594
5.07711
4.20386
4.69387
3.63293
2.81515
2.68728
3.09937
3.72117
3.12263
3.46106
4.19861
3.23588
2.6145
2.82921
2.17652
1.66669
1.56036
1.75574
2.06372
1.69399
1.81261
2.13225
1.57964
1.14996
1.04002
1.13152
1.30272
1.03827
1.07318
1.23554
0.88823
0.630034
0.592818
0.370282
0.170339
0.0429421
-0.121848
-0.308594
-0.506788
-0.92498
-1.44828
-1.48168
-1.73335
-2.45066
-2.43528
-2.64956
-3.33755
-5.18531
-7.63473
-8.35375
-12.7177
-18.5763
-13.8075
-5.37854
-2.38895
-1.25459
-0.72372
-0.423636
-0.225062
-0.0709385
2.24869
3.69444
5.1566
7.39224
5.27537
4.13993
5.11808
3.68412
2.68945
2.57675
3.11432
4.01869
3.03306
3.50101
4.64908
3.28127
2.52056
3.03155
2.17744
1.57239
1.48253
1.75276
2.22016
1.64217
1.8277
2.35633
1.60057
1.08836
0.993303
1.13267
1.40821
1.01275
1.08739
1.37567
0.911065
0.613474
0.648093
0.388241
0.174713
0.0692163
-0.0934336
-0.276422
-0.439774
-0.900579
-1.54041
-1.43435
-1.64255
-2.5744
-2.35754
-2.46854
-3.05057
-5.12567
-8.07727
-8.01236
-13.2884
-21.7246
-15.377
-4.55354
-1.79916
-0.90844
-0.516655
-0.300544
-0.15919
-0.0501238
2.87058
3.97798
5.43057
8.55336
5.4043
3.94813
5.67286
3.70591
2.51471
2.43084
3.10594
4.42005
2.85755
3.49717
5.2354
3.28714
2.35212
3.30944
2.16292
1.45037
1.38585
1.73771
2.43438
1.54542
1.82092
2.65001
1.60554
1.00367
0.934138
1.12535
1.55056
0.959284
1.08778
1.55622
0.922579
0.577103
0.719157
0.402552
0.172218
0.097876
-0.0650038
-0.246871
-0.357301
-0.866176
-1.67463
-1.36966
-1.51098
-2.76374
-2.26294
-2.26632
-2.68383
-5.01444
-8.68696
-7.35571
-13.6389
-25.6492
-17.1544
-3.26577
-1.12001
-0.546561
-0.307734
-0.178264
-0.0942244
-0.0296489
3.72723
4.2296
5.59814
10.0183
5.43188
3.58488
6.41208
3.6829
2.28502
2.24841
3.06181
4.96647
2.56522
3.43139
6.00448
3.23547
2.08406
3.69411
2.12451
1.29706
1.26985
1.70383
2.72888
1.38706
1.78314
3.03677
1.58526
0.892587
0.862821
1.10512
1.74416
0.867467
1.06893
1.79118
0.917298
0.514761
0.813044
0.411361
0.161014
0.130288
-0.0367434
-0.22265
-0.255908
-0.816342
-1.86592
-1.28256
-1.32233
-3.04394
-2.14396
-2.04953
-2.22499
-4.83222
-9.55286
-6.29732
-13.6502
-30.5615
-19.1591
-1.37044
-0.381715
-0.181584
-0.101711
-0.0587942
-0.031038
-0.00976386
)
;

boundaryField
{
    left
    {
        type            calculated;
        value           uniform 0;
    }
    right
    {
        type            calculated;
        value           uniform 0;
    }
    interface
    {
        type            calculated;
        value           nonuniform List<scalar> 
64
(
3.72723
4.2296
5.59814
10.0183
5.43188
3.58488
6.41208
3.6829
2.28502
2.24841
3.06181
4.96647
2.56522
3.43139
6.00448
3.23547
2.08406
3.69411
2.12451
1.29706
1.26985
1.70383
2.72888
1.38706
1.78314
3.03677
1.58526
0.892587
0.862821
1.10512
1.74416
0.867467
1.06893
1.79118
0.917298
0.514761
0.813044
0.411361
0.161014
0.130288
-0.0367434
-0.22265
-0.255908
-0.816342
-1.86592
-1.28256
-1.32233
-3.04394
-2.14396
-2.04953
-2.22499
-4.83222
-9.55286
-6.29732
-13.6502
-30.5615
-19.1591
-1.37044
-0.381715
-0.181584
-0.101711
-0.0587942
-0.031038
-0.00976386
)
;
    }
    bottom
    {
        type            calculated;
        value           nonuniform List<scalar> 
64
(
0.00582012
0.0172497
0.0281887
0.0383448
0.0474329
0.0553449
0.0620123
0.0674256
0.0716351
0.074726
0.0767994
0.0779615
0.0783165
0.0779634
0.0769962
0.075505
0.0735763
0.0712928
0.0687314
0.0659602
0.063036
0.0600018
0.0568871
0.0537078
0.050469
0.0471666
0.0437898
0.040322
0.0367419
0.0330236
0.0291372
0.0250488
0.0207222
0.01612
0.0112047
0.0059404
0.00029395
-0.00576418
-0.0122585
-0.0192067
-0.0266173
-0.0344863
-0.0427925
-0.0514918
-0.0605106
-0.0697377
-0.0790161
-0.0881363
-0.0968316
-0.104779
-0.11161
-0.116928
-0.120341
-0.121498
-0.120131
-0.116091
-0.109368
-0.100092
-0.0885148
-0.0749753
-0.0598583
-0.0435571
-0.0264452
-0.0088657
)
;
    }
    defaultFaces
    {
        type            empty;
    }
}


// ************************************************************************* //
