/*--------------------------------*- C++ -*----------------------------------*\
| =========                 |                                                 |
| \\      /  F ield         | OpenFOAM: The Open Source CFD Toolbox           |
|  \\    /   O peration     | Version:  5.x                                   |
|   \\  /    A nd           | Web:      www.OpenFOAM.org                      |
|    \\/     M anipulation  |                                                 |
\*---------------------------------------------------------------------------*/
FoamFile
{
    version     2.0;
    format      ascii;
    class       volScalarField;
    location    "0.8";
    object      T;
}
// * * * * * * * * * * * * * * * * * * * * * * * * * * * * * * * * * * * * * //

dimensions      [0 0 0 1 0 0 0];

internalField   nonuniform List<scalar> 
2048
(
9.80854
9.80872
9.80908
9.8096
9.81028
9.81108
9.81201
9.81302
9.81411
9.81526
9.81645
9.81766
9.81888
9.82011
9.82132
9.82251
9.82368
9.82481
9.82591
9.82696
9.82797
9.82893
9.82984
9.83071
9.83152
9.83229
9.833
9.83365
9.83426
9.8348
9.83529
9.83571
9.83607
9.83636
9.83658
9.83671
9.83676
9.83672
9.83658
9.83634
9.83598
9.83551
9.8349
9.83417
9.83329
9.83228
9.83111
9.82981
9.82836
9.82678
9.82509
9.82329
9.82143
9.81953
9.81764
9.81578
9.81401
9.81236
9.81088
9.8096
9.80854
9.80772
9.80718
9.8069
9.43384
9.43438
9.43545
9.43701
9.43902
9.44142
9.44416
9.44718
9.45042
9.45383
9.45735
9.46095
9.46458
9.4682
9.4718
9.47533
9.47878
9.48214
9.48538
9.48849
9.49147
9.49432
9.49702
9.49958
9.50198
9.50424
9.50634
9.50829
9.51007
9.51169
9.51313
9.51438
9.51545
9.5163
9.51694
9.51735
9.5175
9.51739
9.51698
9.51627
9.51522
9.51382
9.51205
9.50988
9.5073
9.50429
9.50086
9.49699
9.4927
9.48802
9.48299
9.47767
9.47214
9.4665
9.46085
9.45533
9.45006
9.44516
9.44075
9.43693
9.43378
9.43137
9.42974
9.42892
9.07512
9.07602
9.07779
9.08038
9.0837
9.08767
9.0922
9.09718
9.10252
9.10812
9.11391
9.11982
9.12577
9.13172
9.13761
9.1434
9.14905
9.15454
9.15984
9.16493
9.16981
9.17445
9.17887
9.18304
9.18698
9.19067
9.1941
9.19728
9.2002
9.20284
9.2052
9.20726
9.20901
9.21042
9.21148
9.21216
9.21242
9.21225
9.21161
9.21046
9.20877
9.2065
9.20362
9.20009
9.19589
9.19099
9.18538
9.17905
9.17203
9.16436
9.15609
9.14734
9.13822
9.12891
9.11959
9.11047
9.10175
9.09366
9.08638
9.08007
9.07488
9.0709
9.06821
9.06685
8.73148
8.73274
8.73521
8.73883
8.74348
8.74902
8.75532
8.76224
8.76965
8.77741
8.78542
8.79358
8.8018
8.81
8.81811
8.82608
8.83386
8.84141
8.84869
8.85568
8.86238
8.86875
8.87481
8.88054
8.88593
8.89099
8.89571
8.90008
8.90408
8.90772
8.91097
8.91381
8.91622
8.91818
8.91966
8.92061
8.92101
8.92081
8.91996
8.91842
8.91614
8.91306
8.90915
8.90434
8.89861
8.8919
8.88421
8.87553
8.86586
8.85527
8.84385
8.83172
8.81907
8.80612
8.79314
8.78042
8.76827
8.75699
8.74684
8.73806
8.73084
8.72531
8.72158
8.7197
8.40207
8.4037
8.40691
8.41158
8.41757
8.42471
8.4328
8.44166
8.45112
8.46102
8.47121
8.48158
8.49201
8.50241
8.51269
8.52278
8.53262
8.54215
8.55134
8.56017
8.5686
8.57664
8.58427
8.59149
8.59828
8.60466
8.61061
8.61612
8.62118
8.62577
8.62988
8.63348
8.63655
8.63906
8.64095
8.6422
8.64274
8.64254
8.64153
8.63964
8.63683
8.63302
8.62814
8.62215
8.61496
8.60655
8.59687
8.58591
8.57369
8.56026
8.54573
8.53026
8.51408
8.49749
8.48082
8.46447
8.44885
8.43434
8.42131
8.41005
8.4008
8.39373
8.38897
8.38656
8.08613
8.08815
8.09212
8.09789
8.10527
8.11403
8.12394
8.13476
8.14627
8.1583
8.17065
8.1832
8.1958
8.20835
8.22075
8.2329
8.24473
8.25619
8.26723
8.27782
8.28793
8.29756
8.30669
8.31534
8.32348
8.33112
8.33825
8.34486
8.35093
8.35645
8.3614
8.36575
8.36947
8.37251
8.37484
8.37639
8.37711
8.37694
8.3758
8.37363
8.37035
8.36587
8.36011
8.353
8.34447
8.33444
8.32287
8.30973
8.29503
8.27882
8.26123
8.24243
8.22271
8.20242
8.182
8.16195
8.14278
8.12499
8.10902
8.09525
8.08396
8.07535
8.06955
8.06663
7.78294
7.78538
7.79015
7.79707
7.8059
7.81634
7.82811
7.84092
7.8545
7.86865
7.88315
7.89785
7.91259
7.92725
7.94171
7.95588
7.96966
7.98298
7.9958
8.00808
8.0198
8.03096
8.04154
8.05155
8.06098
8.06984
8.0781
8.08577
8.09282
8.09925
8.10501
8.11009
8.11445
8.11803
8.1208
8.12268
8.1236
8.1235
8.12228
8.11988
8.11618
8.1111
8.10455
8.09642
8.08663
8.07508
8.06172
8.04649
8.02939
8.01046
7.98983
7.96771
7.9444
7.92035
7.89609
7.87222
7.8494
7.82822
7.80925
7.79293
7.77958
7.76943
7.7626
7.75917
7.49184
7.49473
7.50035
7.5085
7.51885
7.53104
7.54473
7.55956
7.57524
7.5915
7.60814
7.62497
7.64182
7.65855
7.67504
7.69117
7.70685
7.72198
7.73652
7.75043
7.7637
7.77631
7.78828
7.7996
7.81027
7.82029
7.82965
7.83834
7.84634
7.85363
7.86019
7.86599
7.87098
7.87512
7.87833
7.88055
7.88171
7.88171
7.88047
7.87787
7.87383
7.86823
7.86096
7.8519
7.84094
7.82798
7.81292
7.79569
7.77628
7.7547
7.73106
7.7056
7.67867
7.65076
7.62253
7.5947
7.56807
7.5434
7.52135
7.50243
7.487
7.4753
7.46747
7.46352
7.21221
7.21558
7.22213
7.23158
7.24354
7.25757
7.27324
7.29014
7.30793
7.32633
7.34509
7.36402
7.38295
7.40173
7.42021
7.43827
7.45578
7.47267
7.48888
7.50436
7.5191
7.53312
7.54641
7.55898
7.57084
7.58197
7.59239
7.60206
7.61097
7.61911
7.62645
7.63295
7.63858
7.64326
7.64694
7.64953
7.65094
7.65108
7.64985
7.64713
7.64281
7.63676
7.62886
7.61896
7.60693
7.59265
7.576
7.55688
7.53523
7.51106
7.48446
7.45565
7.42502
7.39314
7.36078
7.32882
7.29822
7.26991
7.24468
7.22311
7.2056
7.19237
7.18353
7.1791
6.94346
6.94735
6.9549
6.96577
6.97945
6.99541
7.01314
7.03216
7.05209
7.07261
7.09348
7.1145
7.13548
7.15627
7.17671
7.19665
7.21597
7.23457
7.25238
7.26936
7.28552
7.30087
7.31542
7.32919
7.34219
7.3544
7.36583
7.37644
7.38624
7.3952
7.4033
7.4105
7.41675
7.42199
7.42614
7.42911
7.43082
7.43114
7.42996
7.42717
7.42263
7.41621
7.40774
7.39709
7.3841
7.36861
7.35048
7.32957
7.30579
7.2791
7.24956
7.2174
7.183
7.14702
7.11034
7.07404
7.03928
7.00718
6.97866
6.9544
6.9348
6.92007
6.91026
6.90535
6.68504
6.6895
6.69815
6.71055
6.72607
6.74407
6.76394
6.78513
6.80722
6.82987
6.85284
6.87591
6.89892
6.92169
6.94406
6.96585
6.98693
7.00718
7.02654
7.04497
7.06248
7.0791
7.09485
7.10977
7.12385
7.1371
7.1495
7.16103
7.17168
7.18143
7.19027
7.19815
7.20502
7.21082
7.21546
7.21885
7.22086
7.22139
7.22032
7.21751
7.21281
7.20608
7.19715
7.18584
7.17198
7.15538
7.13588
7.11329
7.08749
7.05837
7.02595
6.99042
6.95219
6.91196
6.87076
6.82987
6.79071
6.75463
6.72273
6.69575
6.67409
6.65788
6.64715
6.64178
6.43642
6.44152
6.45138
6.46544
6.48294
6.5031
6.5252
6.54862
6.57289
6.59766
6.62269
6.6478
6.6728
6.69753
6.72179
6.7454
6.7682
6.79006
6.81091
6.83072
6.84951
6.86734
6.88423
6.90024
6.91537
6.92961
6.94295
6.95536
6.96683
6.97735
6.98691
6.99546
7.00295
7.00932
7.01446
7.01827
7.02063
7.0214
7.02047
7.01769
7.0129
7.00593
6.9966
6.98472
6.97009
6.9525
6.93175
6.90761
6.87989
6.84844
6.81321
6.77432
6.73218
6.68754
6.64158
6.59583
6.552
6.51175
6.47637
6.44665
6.42295
6.40535
6.39374
6.38796
6.1971
6.20291
6.21411
6.22999
6.24963
6.27209
6.2965
6.3222
6.34865
6.37553
6.4026
6.4297
6.45667
6.48332
6.50946
6.53486
6.55935
6.58277
6.60505
6.62617
6.64618
6.66514
6.68312
6.70017
6.7163
6.7315
6.74574
6.759
6.77126
6.78252
6.79278
6.80199
6.8101
6.81704
6.82269
6.82695
6.82967
6.83072
6.82997
6.82726
6.82243
6.81529
6.80565
6.79329
6.77799
6.75951
6.73762
6.71206
6.68256
6.6489
6.61094
6.56872
6.52259
6.47338
6.42239
6.37145
6.32266
6.27802
6.23905
6.2066
6.18095
6.16203
6.14963
6.14348
5.96661
5.97321
5.9859
6.00378
6.02574
6.05062
6.07746
6.10547
6.13411
6.16307
6.19214
6.22119
6.25009
6.27864
6.30663
6.3338
6.35994
6.38488
6.40853
6.4309
6.45205
6.47209
6.49109
6.50914
6.52623
6.54235
6.55746
6.57154
6.58456
6.59653
6.60746
6.61731
6.62604
6.63356
6.63974
6.64445
6.64756
6.64892
6.64839
6.6458
6.64098
6.63374
6.62385
6.61109
6.59521
6.57596
6.55306
6.5262
6.49507
6.45934
6.41875
6.37324
6.32308
6.26911
6.2128
6.15631
6.1022
6.05294
6.0103
5.97515
5.94765
5.92754
5.91445
5.90798
5.7445
5.752
5.76634
5.78642
5.81088
5.83835
5.8677
5.89806
5.92889
5.95987
5.99089
6.02185
6.05264
6.08307
6.11289
6.14182
6.16958
6.19599
6.22096
6.24451
6.26672
6.28776
6.30773
6.32672
6.34473
6.36175
6.37771
6.39257
6.40631
6.41896
6.43054
6.44103
6.45038
6.45847
6.46519
6.47038
6.4739
6.47559
6.4753
6.47287
6.46812
6.46083
6.45078
6.4377
6.42134
6.40141
6.37762
6.34961
6.317
6.27935
6.23628
6.18754
6.13331
6.07441
6.01246
5.94999
5.89016
5.83602
5.78964
5.75188
5.72267
5.70152
5.68786
5.68113
5.53034
5.53884
5.55502
5.57755
5.60472
5.63492
5.66687
5.69963
5.73261
5.76557
5.79847
5.83128
5.86393
5.8962
5.92785
5.95852
5.98788
6.01572
6.04195
6.06659
6.08979
6.11175
6.13264
6.15253
6.17143
6.18932
6.2061
6.2217
6.23613
6.24944
6.26165
6.27276
6.28271
6.2914
6.29867
6.30435
6.30829
6.31033
6.31032
6.30809
6.30345
6.29618
6.28602
6.2727
6.25593
6.23544
6.21088
6.18187
6.14793
6.10855
6.06315
6.01128
5.95297
5.88896
5.82103
5.75209
5.68606
5.62677
5.57662
5.53637
5.50564
5.48364
5.46954
5.46263
5.32372
5.33334
5.35159
5.3768
5.40693
5.44002
5.47466
5.50983
5.54493
5.57979
5.61448
5.6491
5.68355
5.71766
5.75113
5.78353
5.81446
5.84369
5.87111
5.89678
5.92089
5.9437
5.96543
5.98618
6.00595
6.02469
6.04227
6.05859
6.07367
6.08758
6.1004
6.11212
6.12267
6.13196
6.13979
6.14598
6.15036
6.15277
6.15306
6.15106
6.14657
6.13937
6.12917
6.11568
6.0986
6.07762
6.05242
6.02254
5.98747
5.94655
5.89901
5.84416
5.78177
5.71251
5.63821
5.56224
5.48946
5.42472
5.3708
5.32824
5.29624
5.27361
5.25923
5.25222
5.12423
5.13513
5.15568
5.18387
5.2172
5.25335
5.29076
5.32835
5.3655
5.40217
5.43857
5.47492
5.51115
5.54705
5.58235
5.6165
5.64898
5.67955
5.70811
5.73472
5.75963
5.78322
5.80575
5.82732
5.84792
5.8675
5.88587
5.90287
5.91855
5.93304
5.94644
5.95875
5.96991
5.9798
5.9882
5.99491
5.99974
6.00255
6.00316
6.00141
5.99712
5.99003
5.97986
5.96627
5.94894
5.92758
5.90184
5.87124
5.8352
5.79296
5.74352
5.68586
5.61944
5.54478
5.46375
5.38008
5.29988
5.22939
5.17176
5.12714
5.09417
5.07116
5.05667
5.04964
4.9315
4.94385
4.96696
4.99845
5.03526
5.07461
5.11488
5.1549
5.19402
5.23237
5.27037
5.30838
5.34635
5.38403
5.42117
5.45708
5.49108
5.52296
5.5526
5.58006
5.60569
5.62996
5.65323
5.67559
5.69701
5.71742
5.73656
5.75422
5.77046
5.78547
5.79942
5.81232
5.82407
5.83458
5.84358
5.85081
5.8561
5.85931
5.86026
5.85879
5.85473
5.84781
5.83772
5.82409
5.80657
5.7849
5.75874
5.72756
5.69073
5.64742
5.59633
5.53608
5.46572
5.38556
5.2974
5.20527
5.11686
5.0403
4.97909
4.93275
4.89915
4.87603
4.86162
4.85467
4.74516
4.75917
4.78511
4.82027
4.86086
4.90355
4.94673
4.98918
5.03017
5.07006
5.10952
5.14915
5.1888
5.22823
5.26725
5.30496
5.34045
5.3736
5.40427
5.43247
5.45871
5.48357
5.50755
5.53067
5.55287
5.57413
5.59405
5.61231
5.62905
5.64454
5.65903
5.67249
5.68483
5.69597
5.70559
5.71334
5.71911
5.72272
5.72402
5.72286
5.71905
5.71235
5.70239
5.68879
5.67114
5.64923
5.62276
5.59111
5.55367
5.50954
5.45711
5.39455
5.32036
5.23465
5.13901
5.03751
4.9399
4.85695
4.79239
4.74476
4.71094
4.68802
4.67388
4.6671
4.56485
4.58075
4.60982
4.64907
4.69378
4.73989
4.78605
4.83094
4.87366
4.91493
4.95569
4.99688
5.03819
5.07931
5.12027
5.15983
5.19677
5.23115
5.26281
5.29165
5.31838
5.34373
5.36838
5.39224
5.41519
5.43731
5.45804
5.47686
5.49403
5.50994
5.52494
5.53897
5.55188
5.56367
5.57392
5.58221
5.58844
5.59248
5.59412
5.59328
5.58977
5.58332
5.57355
5.56003
5.54229
5.52019
5.49351
5.46153
5.42363
5.37897
5.32553
5.26098
5.18311
5.09185
4.98844
4.87652
4.76848
4.67885
4.61132
4.56293
4.52933
4.50692
4.49323
4.48671
4.39024
4.40832
4.44079
4.4846
4.53381
4.5834
4.63257
4.67993
4.72419
4.76665
4.80853
4.85125
4.8942
4.93694
4.97992
5.02142
5.05974
5.09531
5.12793
5.15728
5.18438
5.21012
5.23541
5.25999
5.28366
5.30668
5.32824
5.34757
5.3651
5.38135
5.39687
5.41145
5.42491
5.43738
5.4483
5.45711
5.46381
5.46827
5.47027
5.46976
5.46656
5.4604
5.45088
5.4375
5.4197
5.39745
5.37067
5.33844
5.30022
5.25534
5.20125
5.1351
5.05373
4.957
4.84565
4.72204
4.60202
4.5055
4.43553
4.38701
4.35412
4.33255
4.3195
4.31332
4.22098
4.24162
4.27771
4.32664
4.3808
4.43379
4.48604
4.53591
4.5815
4.62493
4.6677
4.71197
4.75654
4.80076
4.84589
4.88946
4.92905
4.96579
4.99936
5.02908
5.05642
5.08241
5.10836
5.13365
5.15796
5.18196
5.20441
5.22416
5.24199
5.2585
5.27453
5.28966
5.30363
5.31682
5.32846
5.33775
5.34492
5.34982
5.35216
5.35199
5.34912
5.3433
5.33408
5.3209
5.30304
5.28065
5.2539
5.22151
5.18307
5.13829
5.08394
5.01667
4.93196
4.82989
4.71066
4.57387
4.43988
4.33639
4.26472
4.21681
4.18516
4.16473
4.15251
4.14675
4.05673
4.08042
4.12029
4.17499
4.23461
4.29083
4.34619
4.39869
4.44529
4.48949
4.53287
4.57875
4.62494
4.67044
4.71791
4.76375
4.80442
4.8423
4.87687
4.90676
4.93422
4.96029
4.98694
5.01296
5.03781
5.06288
5.08632
5.10638
5.12441
5.14108
5.15764
5.17333
5.18775
5.20173
5.21413
5.22387
5.2315
5.23685
5.23952
5.23969
5.23717
5.23172
5.22285
5.20994
5.19202
5.16948
5.14291
5.1104
5.07178
5.02747
4.97327
4.90544
4.81753
4.71034
4.58362
4.43187
4.28131
4.171
4.09865
4.05219
4.02229
4.00332
3.99207
3.9868
3.89717
3.92456
3.96819
4.02946
4.09518
4.1542
4.21277
4.2681
4.3153
4.36006
4.40367
4.45132
4.49918
4.54561
4.59571
4.64408
4.68553
4.72458
4.76024
4.79006
4.81751
4.84346
4.8709
4.89768
4.92289
4.94918
4.97375
4.99398
5.01213
5.02881
5.04597
5.06224
5.07698
5.09184
5.10509
5.1152
5.1233
5.12911
5.13208
5.13259
5.13044
5.12539
5.11693
5.10438
5.08635
5.0636
5.0374
5.0048
4.96597
4.92255
4.86888
4.80121
4.71015
4.5981
4.46478
4.29596
4.12543
4.00884
3.93711
3.89302
3.8654
3.84815
3.83802
3.8333
3.74193
3.77395
3.82104
3.88985
3.9625
4.02359
4.0855
4.14401
4.19123
4.2364
4.27973
4.32945
4.37905
4.42588
4.47901
4.53031
4.57207
4.61233
4.64927
4.6787
4.70605
4.73161
4.76
4.7876
4.81289
4.84063
4.86653
4.88669
4.90491
4.92141
4.93928
4.95615
4.97106
4.98691
5.00114
5.01148
5.02005
5.02637
5.02958
5.03044
5.02866
5.02405
5.01603
5.00398
4.98576
4.9627
4.93713
4.90443
4.86524
4.82322
4.77042
4.70381
4.6095
4.49282
4.35458
4.16617
3.97115
3.84944
3.77997
3.73922
3.71438
3.69909
3.69019
3.68605
3.59066
3.6286
3.6784
3.75602
3.83665
3.89863
3.96409
4.02634
4.07278
4.11832
4.16065
4.21293
4.26443
4.31084
4.36759
4.42237
4.46372
4.50528
4.54383
4.57239
4.59963
4.62439
4.65403
4.68253
4.70749
4.737
4.76451
4.78428
4.80254
4.81859
4.83734
4.85489
4.8697
4.88673
4.90207
4.91246
4.92152
4.9284
4.93177
4.93299
4.93159
4.92744
4.91991
4.90851
4.89
4.86644
4.84188
4.80902
4.76917
4.72919
4.67749
4.61312
4.51524
4.39405
4.25365
4.04264
3.81714
3.69239
3.62716
3.59075
3.56912
3.55599
3.5484
3.54489
3.44293
3.48864
3.53976
3.6278
3.7178
3.77885
3.84825
3.9151
3.95957
4.00566
4.04597
4.10156
4.15523
4.2
4.2612
4.32024
4.36008
4.40317
4.4438
4.47084
4.49807
4.52148
4.55279
4.58235
4.60634
4.63806
4.66758
4.68647
4.70482
4.72005
4.73997
4.75827
4.77259
4.79107
4.80774
4.81788
4.82749
4.83501
4.83842
4.84003
4.83899
4.83534
4.82832
4.8178
4.79885
4.77447
4.75148
4.71836
4.67732
4.64023
4.58965
4.52911
4.42699
4.30117
4.16283
3.92569
3.66173
3.53741
3.47871
3.44758
3.42953
3.41871
3.41249
3.40962
3.29829
3.35441
3.40444
3.50503
3.6063
3.66369
3.73767
3.81038
3.8512
3.89835
3.93518
3.99521
4.05146
4.09279
4.15962
4.22399
4.26074
4.3057
4.34916
4.37371
4.40124
4.42248
4.45611
4.48697
4.50904
4.54361
4.57568
4.59297
4.61161
4.62547
4.64697
4.66618
4.67942
4.69972
4.71803
4.72748
4.73772
4.746
4.74929
4.75133
4.75063
4.74752
4.74099
4.73168
4.71208
4.68642
4.66578
4.63226
4.5892
4.55615
4.5064
4.45186
4.34436
4.21327
4.0833
3.81584
3.50279
3.38436
3.33472
3.3097
3.29551
3.28709
3.28227
3.28005
3.15618
3.22645
3.27163
3.3876
3.50264
3.55245
3.63201
3.71239
3.74714
3.79644
3.82766
3.89376
3.95325
3.98854
4.06266
4.13383
4.16519
4.21259
4.25993
4.28064
4.30907
4.32697
4.36384
4.39635
4.41516
4.45346
4.48879
4.50348
4.52281
4.53452
4.5582
4.57853
4.58985
4.61251
4.63284
4.64098
4.65201
4.66123
4.66414
4.66669
4.66631
4.66377
4.65767
4.65003
4.62953
4.60189
4.5847
4.55056
4.50425
4.47689
4.42711
4.38156
4.26693
4.12914
4.01655
3.71388
3.33765
3.23335
3.19535
3.17713
3.16697
3.16098
3.15757
3.15601
3.01594
3.10565
3.14025
3.27535
3.40755
3.44424
3.53092
3.62151
3.64673
3.7001
3.7227
3.79716
3.86082
3.88646
3.97011
4.05006
4.07283
4.12357
4.17625
4.19116
4.22158
4.23447
4.27588
4.31054
4.32418
4.36744
4.40699
4.41762
4.43835
4.44681
4.47352
4.49526
4.5035
4.52926
4.55213
4.55809
4.57016
4.58056
4.58274
4.58594
4.5858
4.58391
4.57809
4.57275
4.55102
4.52041
4.50822
4.4732
4.42185
4.40248
4.35103
4.31861
4.19433
4.04714
3.96446
3.62093
3.16292
3.08485
3.06087
3.04985
3.04379
3.04023
3.03822
3.03729
2.87676
2.99324
3.00894
3.16818
3.32201
3.33793
3.43404
3.53831
3.54913
3.60971
3.61939
3.70539
3.77459
3.78556
3.88182
3.9732
3.98293
4.03832
4.09837
4.10472
4.13891
4.1444
4.19215
4.22968
4.2355
4.2854
4.3304
4.33494
4.35829
4.3619
4.39282
4.41641
4.41993
4.44981
4.47591
4.47848
4.49199
4.50388
4.50485
4.50892
4.50892
4.50777
4.50196
4.49977
4.47645
4.44146
4.43637
4.40014
4.34125
4.33314
4.2772
4.26361
4.12619
3.96508
3.9294
3.53851
2.97436
2.93979
2.93153
2.92786
2.92586
2.92468
2.92402
2.92371
)
;

boundaryField
{
    left
    {
        type            zeroGradient;
    }
    right
    {
        type            zeroGradient;
    }
    interface
    {
        type            fixedValue;
        value           nonuniform List<scalar> 
64
(
2.80624
2.9416
2.9416
3.11668
3.28472
3.28472
3.38743
3.5012
3.5012
3.56807
3.56807
3.66234
3.73549
3.73549
3.84057
3.93983
3.93983
3.99877
4.06419
4.06419
4.10187
4.10187
4.15435
4.19403
4.19403
4.24876
4.29764
4.29764
4.32345
4.32345
4.35757
4.38256
4.38256
4.41549
4.44392
4.44392
4.45861
4.47162
4.47162
4.47639
4.47639
4.4758
4.46986
4.46986
4.4456
4.40742
4.40742
4.37038
4.30582
4.30582
4.24524
4.24524
4.09855
3.92643
3.92643
3.50699
2.87156
2.87156
2.87156
2.87156
2.87156
2.87156
2.87156
2.87156
)
;
    }
    bottom
    {
        type            fixedValue;
        value           uniform 10;
    }
    defaultFaces
    {
        type            empty;
    }
}


// ************************************************************************* //
