/*--------------------------------*- C++ -*----------------------------------*\
| =========                 |                                                 |
| \\      /  F ield         | OpenFOAM: The Open Source CFD Toolbox           |
|  \\    /   O peration     | Version:  5.x                                   |
|   \\  /    A nd           | Web:      www.OpenFOAM.org                      |
|    \\/     M anipulation  |                                                 |
\*---------------------------------------------------------------------------*/
FoamFile
{
    version     2.0;
    format      ascii;
    class       volScalarField;
    location    "3.5";
    object      T;
}
// * * * * * * * * * * * * * * * * * * * * * * * * * * * * * * * * * * * * * //

dimensions      [0 0 0 1 0 0 0];

internalField   nonuniform List<scalar> 
2048
(
9.81021
9.8104
9.81079
9.81136
9.81209
9.81298
9.81399
9.81511
9.81631
9.81759
9.81892
9.82028
9.82167
9.82308
9.82448
9.82587
9.82724
9.8286
9.82992
9.83121
9.83246
9.83367
9.83484
9.83597
9.83706
9.83809
9.83908
9.84002
9.84091
9.84174
9.8425
9.84321
9.84384
9.84439
9.84486
9.84524
9.84552
9.84569
9.84575
9.84568
9.84548
9.84514
9.84464
9.84398
9.84316
9.84216
9.841
9.83965
9.83814
9.83647
9.83466
9.83273
9.83071
9.82864
9.82657
9.82453
9.82258
9.82077
9.81914
9.81772
9.81655
9.81566
9.81505
9.81474
9.43875
9.43934
9.4405
9.44219
9.44438
9.447
9.45001
9.45333
9.45691
9.4607
9.46464
9.46869
9.47281
9.47696
9.48111
9.48524
9.48931
9.49331
9.49722
9.50103
9.50473
9.50832
9.51179
9.51513
9.51833
9.5214
9.52433
9.52711
9.52973
9.53218
9.53445
9.53653
9.5384
9.54005
9.54144
9.54257
9.54341
9.54392
9.5441
9.54391
9.54332
9.54231
9.54084
9.53891
9.53648
9.53354
9.53008
9.52611
9.52163
9.51668
9.5113
9.50557
9.49957
9.49342
9.48725
9.4812
9.4754
9.47001
9.46515
9.46094
9.45746
9.45479
9.45299
9.45208
9.0831
9.08407
9.08599
9.0888
9.09241
9.09675
9.1017
9.10718
9.11308
9.1193
9.12578
9.13243
9.13919
9.14599
9.15279
9.15954
9.1662
9.17275
9.17915
9.18538
9.19143
9.19729
9.20296
9.20841
9.21365
9.21867
9.22346
9.228
9.23229
9.2363
9.24002
9.24343
9.2465
9.2492
9.2515
9.25336
9.25474
9.25561
9.25592
9.25563
9.25469
9.25306
9.25069
9.24755
9.2436
9.23881
9.23316
9.22666
9.21932
9.21119
9.20235
9.19291
9.18303
9.17288
9.16269
9.15268
9.1431
9.13419
9.12616
9.1192
9.11346
9.10906
9.10609
9.10459
8.74233
8.74369
8.74638
8.7503
8.75534
8.76138
8.76827
8.77587
8.78405
8.79267
8.80162
8.8108
8.82011
8.82949
8.83886
8.84815
8.85731
8.86631
8.8751
8.88366
8.89196
8.90001
8.90778
8.91526
8.92245
8.92934
8.93591
8.94215
8.94804
8.95356
8.95869
8.96338
8.96762
8.97135
8.97454
8.97713
8.97906
8.9803
8.98077
8.98041
8.97917
8.97697
8.97377
8.9695
8.96411
8.95756
8.94982
8.94088
8.93078
8.91956
8.90733
8.89425
8.88051
8.86639
8.85219
8.83823
8.82487
8.81244
8.80125
8.79155
8.78357
8.77746
8.77333
8.77125
8.4156
8.41736
8.42083
8.42589
8.43238
8.44014
8.44898
8.4587
8.46913
8.48011
8.49149
8.50314
8.51496
8.52684
8.5387
8.55046
8.56204
8.5734
8.58449
8.59529
8.60576
8.6159
8.62568
8.63512
8.64418
8.65286
8.66115
8.66903
8.67647
8.68344
8.68992
8.69588
8.70125
8.706
8.71006
8.71338
8.71589
8.71751
8.71816
8.71779
8.71629
8.7136
8.70963
8.70431
8.69757
8.68936
8.67962
8.66835
8.65556
8.64132
8.62575
8.60905
8.59148
8.57336
8.55511
8.53716
8.51997
8.50398
8.4896
8.47716
8.46693
8.45912
8.45384
8.45118
8.10214
8.10432
8.1086
8.11483
8.12282
8.13233
8.14313
8.15498
8.16766
8.18098
8.19476
8.20885
8.22312
8.23745
8.25173
8.26588
8.27981
8.29346
8.30677
8.31971
8.33227
8.34441
8.35614
8.36744
8.3783
8.38871
8.39865
8.4081
8.41703
8.42542
8.43322
8.4404
8.4469
8.45265
8.45759
8.46165
8.46473
8.46676
8.46765
8.46729
8.4656
8.46248
8.45783
8.45155
8.44355
8.43377
8.42213
8.40861
8.39321
8.37601
8.35715
8.33683
8.31539
8.29323
8.27085
8.24881
8.2277
8.20808
8.19045
8.17524
8.16275
8.15322
8.1468
8.14357
7.80124
7.80386
7.80899
7.81645
7.82599
7.83731
7.85011
7.86411
7.87905
7.89469
7.91084
7.92733
7.94401
7.96073
7.97739
7.99387
8.01007
8.02593
8.04139
8.0564
8.07095
8.08502
8.0986
8.11169
8.12428
8.13635
8.14788
8.15885
8.16923
8.17899
8.18808
8.19646
8.20406
8.21081
8.21663
8.22143
8.22512
8.22759
8.22874
8.22846
8.22664
8.22316
8.2179
8.21075
8.20159
8.19033
8.17689
8.16121
8.1433
8.1232
8.10106
8.07712
8.05176
8.02546
7.99884
7.97259
7.94744
7.92407
7.90312
7.88507
7.87031
7.85907
7.85151
7.84771
7.51223
7.51532
7.52136
7.53012
7.54127
7.55446
7.56932
7.58551
7.60271
7.62068
7.63918
7.65804
7.67708
7.69615
7.71513
7.73388
7.7523
7.7703
7.78783
7.80483
7.82129
7.83721
7.85257
7.86738
7.88163
7.89529
7.90836
7.9208
7.93258
7.94366
7.95401
7.96356
7.97225
7.97999
7.9867
7.99227
7.99658
7.99952
8.00098
8.00083
7.99893
7.99516
7.98937
7.98144
7.97123
7.9586
7.94346
7.92573
7.90537
7.88242
7.85703
7.82946
7.80011
7.76956
7.73855
7.70792
7.67856
7.65132
7.62694
7.60602
7.58895
7.57599
7.5673
7.56294
7.2345
7.23809
7.24511
7.25525
7.26811
7.28325
7.30023
7.31864
7.33813
7.35841
7.37925
7.40044
7.4218
7.44319
7.46444
7.48541
7.50599
7.52607
7.54558
7.5645
7.5828
7.60048
7.61755
7.634
7.64984
7.66504
7.67958
7.69344
7.70657
7.71895
7.73052
7.74123
7.751
7.75973
7.76733
7.77368
7.77864
7.78209
7.78389
7.78391
7.78201
7.77802
7.7718
7.76318
7.75201
7.73812
7.72139
7.7017
7.67899
7.65327
7.62465
7.59341
7.55999
7.52506
7.48948
7.45427
7.4205
7.38923
7.36132
7.33746
7.31807
7.30342
7.29362
7.28871
6.96746
6.9716
6.97967
6.9913
7.00597
7.02316
7.04233
7.063
7.0848
7.10739
7.13054
7.15403
7.17769
7.20134
7.22482
7.24797
7.27064
7.29274
7.31418
7.33493
7.35498
7.37435
7.39305
7.41108
7.42845
7.44513
7.4611
7.47632
7.49076
7.50439
7.51716
7.529
7.53984
7.54957
7.55807
7.5652
7.57084
7.57483
7.57702
7.57727
7.57541
7.57128
7.56471
7.5555
7.54347
7.52844
7.51023
7.48869
7.46373
7.4353
7.40349
7.36856
7.33099
7.29152
7.25115
7.21112
7.17272
7.13723
7.10569
7.07883
7.05713
7.0408
7.02992
7.02448
6.71057
6.71532
6.72454
6.73776
6.75437
6.77371
6.79514
6.81814
6.84225
6.86714
6.89257
6.91834
6.94425
6.97014
6.99581
7.02108
7.04581
7.06986
7.09315
7.11566
7.13739
7.15836
7.17861
7.19815
7.21699
7.2351
7.25244
7.26898
7.28469
7.29954
7.31347
7.32643
7.33833
7.34905
7.35846
7.3664
7.37274
7.37729
7.37992
7.38044
7.37869
7.37449
7.36765
7.35794
7.34516
7.3291
7.30953
7.28627
7.25916
7.22811
7.19316
7.15453
7.11271
7.06852
7.02313
6.97799
6.93471
6.8948
6.85949
6.82962
6.80561
6.78765
6.77574
6.7698
6.46332
6.46872
6.4792
6.49416
6.51285
6.53446
6.55825
6.5836
6.61004
6.63722
6.66491
6.6929
6.72103
6.74911
6.77694
6.80431
6.83104
6.85698
6.88206
6.90624
6.92956
6.95206
6.97379
6.99478
7.01503
7.03451
7.05318
7.071
7.08793
7.10395
7.11902
7.13308
7.14602
7.15774
7.16807
7.17685
7.1839
7.18905
7.19214
7.19299
7.19141
7.18721
7.18017
7.17006
7.15664
7.13966
7.11886
7.09401
7.06488
7.03131
6.99327
6.95093
6.90477
6.85568
6.80499
6.75444
6.70597
6.66142
6.62223
6.58931
6.56305
6.54354
6.53065
6.52425
6.2252
6.23134
6.24321
6.26007
6.28099
6.30499
6.33122
6.35898
6.38775
6.4172
6.4471
6.47729
6.5076
6.53784
6.56779
6.59721
6.6259
6.65368
6.68047
6.70626
6.73108
6.75502
6.77816
6.80053
6.82214
6.84294
6.86289
6.88194
6.90006
6.91721
6.93339
6.94852
6.96251
6.97523
6.98649
6.99611
7.00391
7.00969
7.01327
7.01448
7.01313
7.00899
7.00184
6.99143
6.97747
6.95969
6.93779
6.91147
6.88046
6.8445
6.80346
6.75742
6.70684
6.65264
6.59635
6.54002
6.48602
6.43659
6.39341
6.35745
6.32902
6.30804
6.29427
6.28746
5.99576
6.00272
6.01613
6.03507
6.05839
6.08494
6.1137
6.1439
6.175
6.20667
6.23874
6.27107
6.30351
6.33588
6.36793
6.39939
6.42999
6.45955
6.48799
6.51528
6.54153
6.56683
6.5913
6.61499
6.63791
6.65999
6.68119
6.70142
6.72067
6.73892
6.75617
6.77236
6.78739
6.80111
6.81332
6.8238
6.83236
6.83879
6.8429
6.84451
6.84343
6.83942
6.83224
6.8216
6.80721
6.78875
6.76588
6.73825
6.70551
6.6673
6.62336
6.57367
6.51858
6.45907
6.39684
6.33432
6.27439
6.21982
6.17256
6.1336
6.10311
6.08081
6.06627
6.05911
5.77455
5.78244
5.79756
5.81878
5.8447
5.87393
5.90532
5.938
5.97141
6.00525
6.03942
6.07383
6.10837
6.14284
6.17697
6.21043
6.24291
6.27421
6.30421
6.33294
6.36051
6.38708
6.41282
6.43777
6.46195
6.48528
6.50768
6.52905
6.54938
6.56868
6.58698
6.60421
6.62027
6.635
6.64816
6.65953
6.66886
6.67596
6.68063
6.68267
6.6819
6.67809
6.67095
6.66018
6.64546
6.62643
6.60272
6.57393
6.53962
6.49932
6.45263
6.39934
6.3397
6.27467
6.20614
6.13694
6.07064
6.01063
5.95922
5.91735
5.88497
5.86151
5.84633
5.83888
5.56116
5.57007
5.5871
5.61083
5.63956
5.67164
5.70574
5.74093
5.77661
5.81256
5.84876
5.8852
5.92179
5.95832
5.99452
6.02997
6.0643
6.09727
6.12878
6.15884
6.18764
6.2154
6.24232
6.26848
6.29388
6.31843
6.342
6.36447
6.38583
6.40613
6.42543
6.44368
6.46077
6.47652
6.49066
6.50292
6.51305
6.52083
6.52607
6.52858
6.52817
6.5246
6.51757
6.50676
6.49179
6.47231
6.4479
6.4181
6.3824
6.34021
6.29093
6.23414
6.16991
6.09917
6.02393
5.94752
5.87431
5.80857
5.75296
5.70832
5.67425
5.64985
5.63418
5.62653
5.35517
5.36525
5.38439
5.4109
5.44268
5.47776
5.51466
5.55237
5.59028
5.62825
5.66638
5.70478
5.74337
5.78195
5.82021
5.85764
5.89379
5.92839
5.96132
5.99263
6.02255
6.0514
6.07945
6.10677
6.13335
6.15909
6.1838
6.20732
6.22965
6.25091
6.27118
6.29043
6.30854
6.32532
6.34045
6.35362
6.36455
6.37303
6.37886
6.38186
6.38184
6.37857
6.37172
6.36094
6.34583
6.326
6.30102
6.27037
6.23346
6.18959
6.13793
6.07778
6.00896
5.93231
5.84995
5.76568
5.68495
5.61315
5.55335
5.50614
5.47066
5.44555
5.42957
5.42181
5.15619
5.16758
5.18909
5.21867
5.25376
5.29199
5.33178
5.37202
5.41208
5.45197
5.49193
5.53221
5.57276
5.61336
5.65368
5.69311
5.73105
5.76723
5.80152
5.83396
5.8649
5.89474
5.92384
5.95227
5.98
6.00693
6.03276
6.05728
6.08053
6.10267
6.12387
6.1441
6.16323
6.18105
6.1972
6.21129
6.22304
6.23223
6.23865
6.24215
6.24255
6.23963
6.23303
6.22235
6.20718
6.18711
6.16168
6.13034
6.09241
6.04709
5.99329
5.92997
5.8566
5.77387
5.68396
5.59109
5.50211
5.4239
5.35998
5.31049
5.27392
5.24839
5.23229
5.22451
4.96386
4.97674
5.00087
5.03385
5.07253
5.11407
5.15682
5.19958
5.24172
5.28338
5.32505
5.36715
5.4096
5.45218
5.49459
5.53604
5.57575
5.61346
5.64903
5.68251
5.71434
5.74507
5.77515
5.80465
5.83351
5.86161
5.88857
5.91403
5.93812
5.96109
5.98319
6.00438
6.02451
6.0434
6.06059
6.0756
6.08818
6.09808
6.1051
6.10911
6.10996
6.10743
6.10114
6.09064
6.07548
6.05526
6.02951
5.99761
5.95887
5.91236
5.85671
5.79044
5.7126
5.62367
5.52576
5.42345
5.32531
5.24036
5.17245
5.12105
5.08379
5.05814
5.04212
5.03443
4.7778
4.79238
4.81942
4.85618
4.89875
4.94373
4.9895
5.0348
5.07887
5.12216
5.16539
5.20924
5.25356
5.29809
5.34263
5.38613
5.42756
5.46676
5.50357
5.53795
5.57054
5.60205
5.63306
5.6636
5.69355
5.72285
5.75092
5.77728
5.80212
5.82584
5.8488
5.87094
5.89207
5.91205
5.93031
5.94626
5.95966
5.97028
5.97789
5.98241
5.98373
5.98164
5.97572
5.96546
5.95038
5.93009
5.90414
5.87183
5.83245
5.78504
5.72785
5.65893
5.57673
5.48152
5.37521
5.26244
5.15406
5.06201
4.9904
4.93756
4.90005
4.87462
4.8589
4.8514
4.59768
4.61419
4.64444
4.68539
4.73221
4.78073
4.82957
4.8774
4.92328
4.96801
5.01263
5.05816
5.10431
5.15073
5.19746
5.24309
5.2862
5.32684
5.36482
5.39999
5.4332
5.46536
5.49727
5.52881
5.55981
5.59033
5.61955
5.64674
5.67224
5.69662
5.72042
5.74349
5.76559
5.78671
5.80609
5.82295
5.83718
5.84852
5.8567
5.86173
5.86354
5.86193
5.85644
5.84648
5.83154
5.81125
5.78522
5.75262
5.71278
5.66476
5.6064
5.53518
5.44877
5.34726
5.23222
5.10781
4.98784
4.88838
4.81347
4.75979
4.72252
4.69766
4.68245
4.67523
4.42316
4.4419
4.47563
4.52126
4.57271
4.6248
4.67677
4.72716
4.77464
4.82061
4.86641
4.91361
4.96156
5.00978
5.0588
5.10665
5.15136
5.19341
5.23254
5.26833
5.30201
5.33468
5.36746
5.39999
5.43198
5.46379
5.49421
5.52214
5.5482
5.57313
5.59776
5.62174
5.64478
5.66709
5.68764
5.7054
5.72045
5.73253
5.74126
5.74678
5.74907
5.748
5.74299
5.7334
5.71863
5.6984
5.6724
5.63962
5.59946
5.55118
5.49203
5.41894
5.32849
5.22075
5.09679
4.95932
4.82605
4.71896
4.64133
4.58751
4.55104
4.52711
4.51261
4.50577
4.2539
4.27525
4.31269
4.36358
4.42011
4.47572
4.53086
4.58386
4.63269
4.67967
4.72642
4.77529
4.82501
4.87489
4.92635
4.97657
5.02275
5.06619
5.10646
5.1427
5.17669
5.2097
5.24335
5.27686
5.30977
5.34297
5.37467
5.40322
5.42973
5.45508
5.48055
5.50544
5.52935
5.55292
5.57473
5.59334
5.60921
5.62203
5.63127
5.63727
5.64003
5.63954
5.63509
5.62592
5.61135
5.59121
5.56538
5.5325
5.49214
5.44394
5.38444
5.30998
5.21566
5.10183
4.96898
4.8168
4.66802
4.55321
4.47372
4.42058
4.38548
4.36282
4.34923
4.34286
4.08957
4.11403
4.15533
4.21214
4.27429
4.3332
4.39158
4.4473
4.49717
4.54493
4.59231
4.64292
4.69441
4.74571
4.79984
4.85266
4.90008
4.94489
4.98637
5.02282
5.05697
5.09011
5.1247
5.1592
5.19286
5.22759
5.26073
5.28974
5.31657
5.34219
5.36852
5.39434
5.419
5.44395
5.46712
5.4865
5.50319
5.51678
5.52647
5.53292
5.53614
5.53628
5.53245
5.52376
5.50941
5.48938
5.46385
5.43093
5.39041
5.3427
5.28327
5.20808
5.11002
4.9903
4.849
4.68012
4.51298
4.39063
4.31039
4.25887
4.22572
4.20467
4.19217
4.18633
3.92985
3.95808
4.00321
4.06675
4.13519
4.19698
4.25867
4.31734
4.3678
4.41612
4.46372
4.51624
4.56955
4.62188
4.679
4.73473
4.78306
4.82925
4.87205
4.90843
4.94258
4.9756
5.01124
5.04677
5.08096
5.11744
5.1522
5.18146
5.20849
5.23415
5.26145
5.28821
5.31345
5.33994
5.36462
5.38461
5.40213
5.41654
5.42659
5.43347
5.43713
5.43796
5.43482
5.42667
5.41253
5.39258
5.36754
5.3346
5.29389
5.24713
5.1882
5.11306
5.01129
4.88594
4.73718
4.54924
4.35999
4.23071
4.15117
4.10228
4.07166
4.05253
4.04127
4.03603
3.77438
3.80731
3.85596
3.92725
4.00281
4.06672
4.13187
4.19385
4.24429
4.29301
4.34027
4.39503
4.45024
4.50301
4.56357
4.62267
4.67136
4.719
4.76336
4.79925
4.83331
4.86584
4.90276
4.93938
4.97373
5.01227
5.04894
5.07813
5.10527
5.13068
5.15912
5.18688
5.2124
5.24065
5.26706
5.28742
5.30578
5.32112
5.33138
5.33869
5.34271
5.34433
5.34194
5.3344
5.32045
5.3005
5.27621
5.24324
5.20218
5.15691
5.09886
5.02477
4.91915
4.7884
4.63404
4.4242
4.20789
4.07297
3.99596
3.95078
3.92323
3.90628
3.89638
3.89181
3.62279
3.66175
3.71315
3.79348
3.87726
3.94204
4.01089
4.07678
4.12634
4.17542
4.22156
4.27909
4.33636
4.38865
4.45333
4.51644
4.56464
4.61386
4.66017
4.69502
4.72895
4.76049
4.79905
4.83689
4.87082
4.91186
4.95087
4.97949
5.00672
5.03147
5.06133
5.09017
5.11553
5.14586
5.1743
5.19466
5.21393
5.23031
5.2406
5.24834
5.25264
5.25515
5.25359
5.24673
5.23293
5.21283
5.18965
5.15659
5.11485
5.07177
5.01485
4.94313
4.83327
4.69722
4.54031
4.30521
4.05524
3.91701
3.84471
3.80434
3.78036
3.7658
3.75737
3.75348
3.47469
3.52154
3.57425
3.66528
3.75873
3.8225
3.89544
3.96616
4.01359
4.06321
4.10712
4.16823
4.22786
4.27829
4.34803
4.41605
4.46251
4.51355
4.56242
4.59541
4.62936
4.65918
4.69993
4.7392
4.77184
4.81601
4.85793
4.88528
4.91268
4.93618
4.96789
4.99798
5.02249
5.05538
5.08625
5.10605
5.12632
5.14397
5.154
5.16223
5.16665
5.17019
5.16952
5.16347
5.14975
5.12925
5.10767
5.07444
5.03145
4.99147
4.9357
4.86814
4.75327
4.61171
4.45701
4.19262
3.90024
3.76255
3.6975
3.66299
3.64298
3.63098
3.62407
3.62089
3.3296
3.38704
3.43859
3.5425
3.64759
3.7075
3.7852
3.86209
3.9056
3.95632
3.99642
4.06233
4.12479
4.17133
4.24747
4.32165
4.3645
4.4178
4.47012
4.5001
4.53442
4.5615
4.60526
4.64627
4.67634
4.72451
4.77013
4.79519
4.82305
4.84445
4.87866
4.91024
4.9329
4.969
5.00287
5.02127
5.04274
5.06197
5.07133
5.08016
5.08448
5.08927
5.08953
5.08441
5.07071
5.04941
5.03013
4.9966
4.95148
4.91586
4.86089
4.79993
4.67873
4.53092
4.38546
4.08703
3.74058
3.60947
3.55447
3.52674
3.51101
3.50167
3.49632
3.49386
3.18698
3.25881
3.30533
3.42501
3.54435
3.59633
3.67984
3.76483
3.80185
3.85483
3.88881
3.9613
4.02731
4.06705
4.15143
4.2335
4.27008
4.32629
4.38337
4.40865
4.44412
4.46696
4.51491
4.55815
4.58379
4.63719
4.68756
4.70885
4.73777
4.75587
4.79351
4.82693
4.84632
4.88655
4.92419
4.94
4.96296
4.98423
4.9923
5.00199
5.00589
5.01219
5.0134
5.00939
4.99563
4.97292
4.95696
4.92294
4.87436
4.84486
4.78976
4.73878
4.60926
4.4535
4.32739
3.98931
3.57334
3.45794
3.41585
3.39565
3.38439
3.37775
3.37396
3.37223
3.04615
3.13776
3.17336
3.31269
3.4498
3.48806
3.57899
3.6748
3.70165
3.75895
3.78353
3.86508
3.93571
3.96457
4.05974
4.15202
4.17857
4.23874
4.30237
4.32058
4.35856
4.375
4.42881
4.47497
4.49357
4.55388
4.6104
4.62582
4.65689
4.66996
4.71234
4.74814
4.76224
4.80787
4.85029
4.86184
4.88678
4.91071
4.91663
4.9276
4.93058
4.93879
4.94093
4.93826
4.9244
4.89937
4.8881
4.85341
4.79944
4.77854
4.72149
4.68515
4.54445
4.37764
4.28496
3.90067
3.39484
3.30851
3.28195
3.26974
3.26302
3.25908
3.25683
3.25581
2.9063
3.02517
3.04131
3.2054
3.36497
3.38156
3.48228
3.59259
3.60411
3.66911
3.67963
3.77369
3.85048
3.86282
3.97222
4.07781
4.08917
4.15481
4.22749
4.23524
4.27795
4.28496
4.3469
4.39699
4.40494
4.47442
4.53894
4.54554
4.58056
4.58615
4.6351
4.67402
4.68006
4.73281
4.78138
4.78635
4.814
4.84142
4.84399
4.85692
4.85827
4.86896
4.8719
4.87086
4.85692
4.82825
4.82358
4.78802
4.72593
4.71718
4.65504
4.63978
4.48396
4.30091
4.26087
3.82279
3.20043
3.16223
3.15309
3.14902
3.1468
3.1455
3.14476
3.14442
)
;

boundaryField
{
    left
    {
        type            zeroGradient;
    }
    right
    {
        type            zeroGradient;
    }
    interface
    {
        type            fixedValue;
        value           nonuniform List<scalar> 
64
(
2.8348
2.97285
2.97285
3.15307
3.32729
3.32729
3.43476
3.55502
3.55502
3.62664
3.62664
3.72947
3.81052
3.81052
3.92953
4.04402
4.04402
4.1136
4.1926
4.1926
4.23949
4.23949
4.30718
4.35998
4.35998
4.43571
4.50553
4.50553
4.54402
4.54402
4.5976
4.63865
4.63865
4.69622
4.74883
4.74883
4.77841
4.80819
4.80819
4.82266
4.82266
4.83501
4.83825
4.83825
4.82431
4.79284
4.79284
4.75674
4.68858
4.68858
4.6213
4.6213
4.45509
4.2596
4.2596
3.78957
3.08995
3.08995
3.08995
3.08995
3.08995
3.08995
3.08995
3.08995
)
;
    }
    bottom
    {
        type            fixedValue;
        value           uniform 10;
    }
    defaultFaces
    {
        type            empty;
    }
}


// ************************************************************************* //
