/*--------------------------------*- C++ -*----------------------------------*\
| =========                 |                                                 |
| \\      /  F ield         | OpenFOAM: The Open Source CFD Toolbox           |
|  \\    /   O peration     | Version:  5.x                                   |
|   \\  /    A nd           | Web:      www.OpenFOAM.org                      |
|    \\/     M anipulation  |                                                 |
\*---------------------------------------------------------------------------*/
FoamFile
{
    version     2.0;
    format      ascii;
    class       volScalarField;
    location    "0.1";
    object      gradTy;
}
// * * * * * * * * * * * * * * * * * * * * * * * * * * * * * * * * * * * * * //

dimensions      [0 -1 0 1 0 0 0];

internalField   nonuniform List<scalar> 
3200
(
16.2083
11.1637
12.6029
11.4618
11.9009
11.5604
11.6905
11.5965
11.631
11.6111
11.6181
11.6163
11.6168
11.6178
11.6172
11.6186
11.6179
11.6189
11.6185
11.619
11.6188
11.6191
11.619
11.6191
11.619
11.6191
11.6191
11.6191
11.6191
11.6191
11.6191
11.6191
11.6191
11.6191
11.6191
11.6191
11.6191
11.6191
11.6191
11.6191
11.6191
11.6191
11.6191
11.6191
11.6191
11.6191
11.6191
11.6191
11.6192
11.6191
11.6192
11.6191
11.6192
11.6192
11.6194
11.6192
11.6196
11.6193
11.6202
11.6194
11.6212
11.6198
11.6231
11.6203
11.6271
11.6209
11.6355
11.6184
11.6548
11.5861
11.6497
11.9958
11.6435
12.5157
11.7515
13.9423
13.4034
13.321
13.3039
13.3005
15.5844
11.7784
12.5087
11.659
11.8977
11.6456
11.7166
11.6473
11.6662
11.6516
11.6555
11.6542
11.6545
11.6553
11.655
11.656
11.6557
11.6564
11.6562
11.6566
11.6565
11.6567
11.6566
11.6567
11.6567
11.6567
11.6567
11.6567
11.6567
11.6567
11.6567
11.6567
11.6567
11.6567
11.6567
11.6567
11.6567
11.6567
11.6567
11.6567
11.6567
11.6567
11.6567
11.6567
11.6568
11.6567
11.6568
11.6568
11.6568
11.6568
11.6568
11.6568
11.6569
11.6568
11.657
11.6569
11.6572
11.657
11.6577
11.6573
11.6586
11.6578
11.6604
11.6588
11.6639
11.6605
11.6713
11.6618
11.6884
11.6478
11.7184
11.9861
11.7965
12.4479
12.0514
13.701
13.4193
13.3526
13.3375
13.3344
15.1113
12.2081
12.4747
11.8089
11.9106
11.7139
11.7445
11.6904
11.6986
11.6873
11.689
11.688
11.6882
11.6888
11.6887
11.6894
11.6893
11.6899
11.6898
11.6901
11.69
11.6902
11.6902
11.6903
11.6902
11.6903
11.6903
11.6903
11.6903
11.6903
11.6903
11.6903
11.6903
11.6903
11.6903
11.6903
11.6903
11.6903
11.6903
11.6903
11.6903
11.6903
11.6903
11.6903
11.6903
11.6903
11.6903
11.6903
11.6904
11.6904
11.6904
11.6904
11.6904
11.6904
11.6905
11.6905
11.6908
11.6907
11.6912
11.691
11.692
11.6917
11.6937
11.6931
11.697
11.6955
11.704
11.6996
11.7205
11.701
11.7751
11.9909
11.912
12.4186
12.2659
13.5333
13.423
13.3786
13.3672
13.3648
14.7526
12.5077
12.4747
11.9244
11.9318
11.7692
11.7718
11.727
11.7278
11.7183
11.7185
11.7176
11.7177
11.7181
11.7181
11.7188
11.7188
11.7192
11.7192
11.7195
11.7195
11.7196
11.7196
11.7197
11.7197
11.7197
11.7197
11.7197
11.7197
11.7197
11.7197
11.7197
11.7197
11.7197
11.7197
11.7197
11.7197
11.7197
11.7197
11.7197
11.7198
11.7198
11.7198
11.7198
11.7198
11.7198
11.7198
11.7198
11.7198
11.7198
11.7198
11.7198
11.7199
11.7199
11.72
11.72
11.7202
11.7202
11.7206
11.7206
11.7214
11.7214
11.723
11.7229
11.7261
11.726
11.733
11.7323
11.7502
11.7464
11.8222
12.0036
12.0001
12.4119
12.42
13.417
13.4205
13.3995
13.3928
13.3913
14.4817
12.7156
12.4922
12.0138
11.956
11.8138
11.797
11.7577
11.7533
11.7448
11.744
11.743
11.743
11.7434
11.7435
11.744
11.7441
11.7445
11.7445
11.7447
11.7448
11.7449
11.7449
11.745
11.745
11.745
11.745
11.745
11.745
11.745
11.745
11.745
11.745
11.745
11.745
11.745
11.745
11.745
11.745
11.745
11.745
11.745
11.745
11.745
11.7451
11.7451
11.7451
11.7451
11.7451
11.7451
11.7451
11.7451
11.7452
11.7452
11.7453
11.7453
11.7455
11.7455
11.7459
11.746
11.7466
11.7468
11.7482
11.7486
11.7513
11.7521
11.7582
11.7602
11.7767
11.7844
11.861
12.0198
12.0678
12.4178
12.5308
13.3368
13.4152
13.4161
13.4146
13.4141
14.2793
12.8586
12.5166
12.0826
11.9798
11.8495
11.8192
11.783
11.7749
11.7669
11.7653
11.7643
11.7642
11.7645
11.7646
11.7651
11.7652
11.7656
11.7657
11.7659
11.7659
11.766
11.766
11.7661
11.7661
11.7661
11.7661
11.7661
11.7661
11.7662
11.7662
11.7662
11.7662
11.7662
11.7662
11.7662
11.7662
11.7662
11.7662
11.7662
11.7662
11.7662
11.7662
11.7662
11.7662
11.7662
11.7662
11.7662
11.7662
11.7662
11.7662
11.7662
11.7663
11.7663
11.7664
11.7664
11.7666
11.7667
11.767
11.7671
11.7677
11.7681
11.7693
11.7699
11.7724
11.7738
11.7794
11.7833
11.7994
11.8156
11.8924
12.0366
12.1194
12.4294
12.6102
13.2818
13.4091
13.429
13.4324
13.433
14.1314
12.9554
12.5414
12.1346
12.001
11.8772
11.8375
11.803
11.7924
11.7845
11.7824
11.7813
11.7812
11.7814
11.7816
11.782
11.7822
11.7825
11.7826
11.7828
11.7829
11.7829
11.783
11.783
11.783
11.7831
11.7831
11.7831
11.7831
11.7831
11.7831
11.7831
11.7831
11.7831
11.7831
11.7831
11.7831
11.7831
11.7831
11.7831
11.7831
11.7831
11.7831
11.7831
11.7831
11.7831
11.7831
11.7832
11.7832
11.7832
11.7832
11.7832
11.7832
11.7833
11.7833
11.7834
11.7835
11.7836
11.7839
11.7841
11.7847
11.7851
11.7862
11.787
11.7893
11.7912
11.7965
11.8018
11.8179
11.8403
11.9171
12.0518
12.1581
12.4425
12.6663
13.2448
13.4036
13.4387
13.4466
13.4482
14.0281
13.0186
12.5625
12.1719
12.018
11.8976
11.8517
11.8179
11.8056
11.7978
11.7953
11.7942
11.794
11.7942
11.7944
11.7947
11.7949
11.7952
11.7954
11.7955
11.7956
11.7957
11.7957
11.7958
11.7958
11.7958
11.7958
11.7958
11.7958
11.7958
11.7959
11.7959
11.7959
11.7959
11.7959
11.7959
11.7959
11.7959
11.7959
11.7959
11.7959
11.7959
11.7959
11.7959
11.7959
11.7959
11.7959
11.7959
11.7959
11.7959
11.7959
11.7959
11.796
11.796
11.7961
11.7961
11.7963
11.7964
11.7967
11.7969
11.7974
11.7979
11.7989
11.7999
11.8021
11.8043
11.8094
11.8156
11.832
11.8586
11.9353
12.0642
12.1858
12.4542
12.7044
13.2208
13.3991
13.4457
13.4571
13.4595
13.9627
13.0565
12.5777
12.1961
12.0297
11.9111
11.8612
11.8278
11.8145
11.8066
11.8039
11.8027
11.8025
11.8027
11.8029
11.8032
11.8035
11.8037
11.8039
11.804
11.8041
11.8042
11.8042
11.8043
11.8043
11.8043
11.8043
11.8043
11.8044
11.8044
11.8044
11.8044
11.8044
11.8044
11.8044
11.8044
11.8044
11.8044
11.8044
11.8044
11.8044
11.8044
11.8044
11.8044
11.8044
11.8044
11.8044
11.8044
11.8044
11.8044
11.8044
11.8045
11.8045
11.8045
11.8046
11.8047
11.8048
11.8049
11.8052
11.8054
11.8059
11.8065
11.8075
11.8085
11.8106
11.813
11.818
11.8249
11.8415
11.8707
11.9474
12.0729
12.2036
12.4628
12.7281
13.2064
13.3961
13.4502
13.4641
13.4671
13.9311
13.0743
12.5855
12.208
12.0358
11.9177
11.8661
11.8327
11.8189
11.8111
11.8082
11.807
11.8068
11.8069
11.8071
11.8075
11.8077
11.808
11.8081
11.8083
11.8084
11.8085
11.8085
11.8085
11.8086
11.8086
11.8086
11.8086
11.8086
11.8086
11.8086
11.8086
11.8086
11.8086
11.8086
11.8086
11.8086
11.8086
11.8086
11.8086
11.8086
11.8086
11.8087
11.8087
11.8087
11.8087
11.8087
11.8087
11.8087
11.8087
11.8087
11.8087
11.8088
11.8088
11.8089
11.8089
11.8091
11.8092
11.8094
11.8097
11.8102
11.8107
11.8117
11.8128
11.8149
11.8173
11.8223
11.8295
11.8462
11.8767
11.9535
12.0774
12.2124
12.4673
12.7395
13.1997
13.3945
13.4523
13.4675
13.4708
-13.9084
-13.0742
-12.5924
-12.2096
-12.033
-11.9098
-11.8552
-11.8186
-11.8029
-11.7929
-11.7888
-11.7865
-11.7855
-11.7849
-11.7846
-11.7844
-11.7843
-11.7843
-11.7843
-11.7843
-11.7843
-11.7843
-11.7843
-11.7844
-11.7844
-11.7844
-11.7844
-11.7844
-11.7845
-11.7845
-11.7845
-11.7845
-11.7846
-11.7846
-11.7846
-11.7846
-11.7846
-11.7847
-11.7847
-11.7847
-11.7847
-11.7847
-11.7848
-11.7848
-11.7848
-11.7848
-11.7848
-11.7848
-11.7849
-11.7849
-11.7849
-11.7849
-11.7849
-11.7849
-11.785
-11.785
-11.785
-11.785
-11.785
-11.7851
-11.7851
-11.7851
-11.7852
-11.7853
-11.7855
-11.786
-11.7874
-11.7903
-11.7986
-11.8177
-11.87
-11.9635
-12.0779
-12.3087
-12.575
-13.0434
-13.2422
-13.3013
-13.3166
-13.3201
-13.9391
-13.0569
-12.585
-12.1976
-12.0269
-11.903
-11.8502
-11.8135
-11.7983
-11.7884
-11.7844
-11.7821
-11.7812
-11.7805
-11.7802
-11.78
-11.7799
-11.7799
-11.7799
-11.7799
-11.7799
-11.7799
-11.78
-11.78
-11.78
-11.78
-11.78
-11.7801
-11.7801
-11.7801
-11.7801
-11.7802
-11.7802
-11.7802
-11.7802
-11.7802
-11.7803
-11.7803
-11.7803
-11.7803
-11.7803
-11.7804
-11.7804
-11.7804
-11.7804
-11.7804
-11.7804
-11.7805
-11.7805
-11.7805
-11.7805
-11.7805
-11.7805
-11.7806
-11.7806
-11.7806
-11.7806
-11.7806
-11.7807
-11.7807
-11.7807
-11.7807
-11.7808
-11.7809
-11.7812
-11.7816
-11.7829
-11.7857
-11.7938
-11.812
-11.8641
-11.9584
-12.0691
-12.3032
-12.563
-13.0502
-13.2438
-13.2991
-13.3131
-13.3163
-14.0025
-13.0202
-12.5708
-12.1731
-12.015
-11.8892
-11.8405
-11.8033
-11.7893
-11.7792
-11.7756
-11.7733
-11.7724
-11.7717
-11.7715
-11.7713
-11.7712
-11.7712
-11.7712
-11.7712
-11.7712
-11.7712
-11.7712
-11.7712
-11.7712
-11.7713
-11.7713
-11.7713
-11.7713
-11.7714
-11.7714
-11.7714
-11.7714
-11.7715
-11.7715
-11.7715
-11.7715
-11.7715
-11.7716
-11.7716
-11.7716
-11.7716
-11.7716
-11.7716
-11.7717
-11.7717
-11.7717
-11.7717
-11.7717
-11.7717
-11.7718
-11.7718
-11.7718
-11.7718
-11.7718
-11.7718
-11.7719
-11.7719
-11.7719
-11.7719
-11.772
-11.772
-11.7721
-11.7721
-11.7724
-11.7728
-11.7741
-11.7765
-11.7842
-11.8007
-11.8521
-11.9485
-12.0513
-12.2927
-12.5378
-13.0648
-13.247
-13.2945
-13.3061
-13.3086
-14.1027
-12.9589
-12.5511
-12.1353
-11.9979
-11.8682
-11.826
-11.7878
-11.7757
-11.7655
-11.7623
-11.76
-11.7593
-11.7586
-11.7584
-11.7582
-11.7581
-11.7581
-11.7581
-11.7581
-11.7581
-11.7581
-11.7581
-11.7581
-11.7581
-11.7582
-11.7582
-11.7582
-11.7582
-11.7583
-11.7583
-11.7583
-11.7583
-11.7584
-11.7584
-11.7584
-11.7584
-11.7584
-11.7585
-11.7585
-11.7585
-11.7585
-11.7585
-11.7585
-11.7586
-11.7586
-11.7586
-11.7586
-11.7586
-11.7586
-11.7587
-11.7587
-11.7587
-11.7587
-11.7587
-11.7587
-11.7588
-11.7588
-11.7588
-11.7588
-11.7589
-11.7589
-11.7589
-11.759
-11.7593
-11.7596
-11.7608
-11.7628
-11.7699
-11.7836
-11.8342
-11.9341
-12.0237
-12.278
-12.4975
-13.0892
-13.2516
-13.2875
-13.2955
-13.2972
-14.2461
-12.8651
-12.5283
-12.0827
-11.9765
-11.8396
-11.8073
-11.7671
-11.7579
-11.7471
-11.7448
-11.7424
-11.7419
-11.7411
-11.7409
-11.7407
-11.7407
-11.7406
-11.7406
-11.7406
-11.7407
-11.7407
-11.7407
-11.7407
-11.7407
-11.7407
-11.7408
-11.7408
-11.7408
-11.7408
-11.7409
-11.7409
-11.7409
-11.7409
-11.741
-11.741
-11.741
-11.741
-11.741
-11.741
-11.7411
-11.7411
-11.7411
-11.7411
-11.7411
-11.7411
-11.7412
-11.7412
-11.7412
-11.7412
-11.7412
-11.7412
-11.7413
-11.7413
-11.7413
-11.7413
-11.7413
-11.7413
-11.7414
-11.7414
-11.7414
-11.7414
-11.7415
-11.7416
-11.7418
-11.742
-11.7432
-11.7446
-11.7511
-11.7608
-11.8099
-11.916
-11.9855
-12.2608
-12.4383
-13.1269
-13.2574
-13.2777
-13.2812
-13.2819
-14.4424
-12.7264
-12.5065
-12.0126
-11.9525
-11.8027
-11.7848
-11.741
-11.7358
-11.7242
-11.7229
-11.7205
-11.7202
-11.7193
-11.7192
-11.719
-11.719
-11.7189
-11.7189
-11.7189
-11.7189
-11.719
-11.719
-11.719
-11.719
-11.719
-11.719
-11.7191
-11.7191
-11.7191
-11.7192
-11.7192
-11.7192
-11.7192
-11.7192
-11.7192
-11.7193
-11.7193
-11.7193
-11.7193
-11.7193
-11.7193
-11.7194
-11.7194
-11.7194
-11.7194
-11.7195
-11.7195
-11.7195
-11.7195
-11.7195
-11.7195
-11.7195
-11.7195
-11.7196
-11.7196
-11.7196
-11.7196
-11.7196
-11.7197
-11.7197
-11.7197
-11.7198
-11.7198
-11.72
-11.7202
-11.7212
-11.7218
-11.7279
-11.7321
-11.7792
-11.8951
-11.9349
-12.2435
-12.3547
-13.183
-13.2637
-13.2647
-13.2632
-13.2627
-14.7051
-12.5246
-12.4924
-11.9215
-11.9283
-11.7566
-11.7592
-11.7091
-11.7099
-11.6966
-11.6969
-11.6942
-11.6942
-11.6933
-11.6933
-11.693
-11.693
-11.693
-11.693
-11.693
-11.693
-11.693
-11.693
-11.693
-11.693
-11.6931
-11.6931
-11.6931
-11.6931
-11.6931
-11.6932
-11.6932
-11.6932
-11.6932
-11.6933
-11.6933
-11.6933
-11.6933
-11.6933
-11.6933
-11.6934
-11.6934
-11.6934
-11.6934
-11.6934
-11.6934
-11.6935
-11.6935
-11.6935
-11.6935
-11.6935
-11.6935
-11.6936
-11.6936
-11.6936
-11.6936
-11.6936
-11.6936
-11.6937
-11.6937
-11.6937
-11.6937
-11.6938
-11.6938
-11.694
-11.694
-11.6951
-11.6946
-11.7004
-11.6974
-11.7415
-11.8733
-11.8696
-12.2302
-12.2386
-13.2651
-13.2693
-13.2479
-13.2412
-13.2396
-15.053
-12.2337
-12.4965
-11.8035
-11.9074
-11.6993
-11.7316
-11.671
-11.6803
-11.6643
-11.6667
-11.6635
-11.6641
-11.6629
-11.6631
-11.6627
-11.6628
-11.6627
-11.6627
-11.6628
-11.6628
-11.6628
-11.6628
-11.6628
-11.6628
-11.6629
-11.6628
-11.6629
-11.6629
-11.6629
-11.663
-11.663
-11.663
-11.663
-11.663
-11.663
-11.6631
-11.6631
-11.6631
-11.6631
-11.6631
-11.6631
-11.6632
-11.6632
-11.6632
-11.6632
-11.6632
-11.6632
-11.6633
-11.6633
-11.6633
-11.6633
-11.6633
-11.6633
-11.6634
-11.6633
-11.6634
-11.6634
-11.6634
-11.6634
-11.6635
-11.6634
-11.6635
-11.6635
-11.6638
-11.6635
-11.6647
-11.6629
-11.6691
-11.6566
-11.6962
-11.8527
-11.7855
-12.2271
-12.0779
-13.3843
-13.272
-13.2266
-13.2152
-13.2126
-15.5118
-11.8162
-12.5356
-11.6497
-11.8952
-11.6284
-11.7037
-11.6258
-11.6475
-11.627
-11.6326
-11.6285
-11.6298
-11.6282
-11.6286
-11.6282
-11.6283
-11.6282
-11.6283
-11.6283
-11.6283
-11.6283
-11.6283
-11.6283
-11.6283
-11.6284
-11.6284
-11.6284
-11.6284
-11.6284
-11.6285
-11.6285
-11.6285
-11.6285
-11.6286
-11.6285
-11.6286
-11.6286
-11.6286
-11.6286
-11.6287
-11.6286
-11.6287
-11.6287
-11.6287
-11.6287
-11.6287
-11.6287
-11.6288
-11.6288
-11.6288
-11.6288
-11.6288
-11.6288
-11.6288
-11.6288
-11.6289
-11.6289
-11.6289
-11.6289
-11.6289
-11.6289
-11.629
-11.6289
-11.6293
-11.6286
-11.6302
-11.6265
-11.6343
-11.6094
-11.6419
-11.837
-11.677
-12.2438
-11.8551
-13.5563
-13.2683
-13.2002
-13.1849
-13.1816
-16.117
-11.2185
-12.636
-11.4467
-11.8998
-11.5397
-11.678
-11.5725
-11.6122
-11.5845
-11.5947
-11.589
-11.5914
-11.5893
-11.5901
-11.5895
-11.5897
-11.5896
-11.5896
-11.5896
-11.5896
-11.5897
-11.5896
-11.5897
-11.5897
-11.5897
-11.5897
-11.5898
-11.5897
-11.5898
-11.5899
-11.5898
-11.5899
-11.5898
-11.5899
-11.5899
-11.5899
-11.5899
-11.59
-11.5899
-11.59
-11.5899
-11.59
-11.59
-11.59
-11.59
-11.5901
-11.59
-11.5901
-11.5901
-11.5901
-11.5901
-11.5901
-11.5901
-11.5902
-11.5901
-11.5902
-11.5901
-11.5902
-11.5902
-11.5903
-11.5902
-11.5903
-11.5901
-11.5906
-11.5895
-11.5917
-11.5855
-11.5966
-11.5557
-11.5769
-11.8315
-11.5353
-12.2949
-11.5448
-13.8042
-13.252
-13.1679
-13.1504
-13.1468
16.1309
11.2225
12.6443
11.4472
11.9033
11.5398
11.6793
11.5728
11.6129
11.5847
11.5951
11.5892
11.5917
11.5895
11.5903
11.5897
11.5899
11.5897
11.5898
11.5897
11.5898
11.5898
11.5898
11.5898
11.5898
11.5898
11.5898
11.5898
11.5898
11.5898
11.5898
11.5898
11.5898
11.5898
11.5898
11.5898
11.5898
11.5898
11.5898
11.5898
11.5898
11.5898
11.5898
11.5898
11.5898
11.5898
11.5898
11.5898
11.5898
11.5898
11.5898
11.5898
11.5898
11.5898
11.5898
11.5898
11.5898
11.5898
11.5898
11.5898
11.5898
11.5898
11.5899
11.5897
11.5901
11.5891
11.5912
11.5851
11.5961
11.5556
11.5764
11.8287
11.5344
12.2894
11.5424
13.7943
13.244
13.1601
13.1427
13.1392
15.5247
11.8215
12.5432
11.6513
11.8984
11.6291
11.7051
11.6263
11.6482
11.6275
11.6331
11.6289
11.6302
11.6286
11.629
11.6286
11.6287
11.6286
11.6286
11.6286
11.6286
11.6286
11.6286
11.6286
11.6286
11.6286
11.6286
11.6286
11.6286
11.6286
11.6286
11.6286
11.6286
11.6286
11.6286
11.6286
11.6286
11.6286
11.6286
11.6286
11.6286
11.6286
11.6286
11.6286
11.6286
11.6286
11.6286
11.6286
11.6286
11.6286
11.6286
11.6286
11.6286
11.6286
11.6286
11.6286
11.6286
11.6286
11.6286
11.6286
11.6286
11.6286
11.6287
11.6286
11.6289
11.6283
11.6298
11.6262
11.6339
11.6092
11.6412
11.8346
11.6756
12.2389
11.8518
13.5474
13.2604
13.1925
13.1772
13.1741
15.065
12.2399
12.5035
11.8059
11.9105
11.7005
11.733
11.6717
11.6811
11.6649
11.6674
11.6641
11.6647
11.6634
11.6636
11.6632
11.6633
11.6632
11.6632
11.6632
11.6632
11.6632
11.6632
11.6632
11.6632
11.6632
11.6632
11.6632
11.6632
11.6632
11.6632
11.6632
11.6632
11.6632
11.6632
11.6632
11.6632
11.6632
11.6632
11.6632
11.6632
11.6632
11.6632
11.6632
11.6632
11.6632
11.6632
11.6632
11.6632
11.6632
11.6632
11.6632
11.6632
11.6632
11.6632
11.6632
11.6632
11.6632
11.6632
11.6632
11.6632
11.6632
11.6633
11.6632
11.6635
11.6632
11.6644
11.6626
11.6688
11.6563
11.6955
11.8506
11.7838
12.2227
12.0741
13.3761
13.2643
13.2191
13.2075
13.2051
14.7165
12.5315
12.4991
11.9246
11.9314
11.7581
11.7607
11.71
11.7108
11.6974
11.6977
11.6949
11.6949
11.6939
11.6939
11.6936
11.6936
11.6935
11.6935
11.6935
11.6935
11.6935
11.6935
11.6935
11.6935
11.6935
11.6935
11.6935
11.6935
11.6935
11.6935
11.6935
11.6935
11.6935
11.6935
11.6935
11.6935
11.6935
11.6935
11.6935
11.6935
11.6935
11.6935
11.6935
11.6935
11.6935
11.6935
11.6935
11.6935
11.6935
11.6935
11.6935
11.6935
11.6935
11.6936
11.6936
11.6936
11.6936
11.6936
11.6936
11.6936
11.6936
11.6936
11.6936
11.6938
11.6938
11.6949
11.6944
11.7002
11.6971
11.7408
11.8713
11.8676
12.2261
12.2345
13.2575
13.2617
13.2404
13.2337
13.2321
14.4533
12.7336
12.513
12.0162
11.9556
11.8045
11.7863
11.7421
11.7369
11.7251
11.7238
11.7212
11.7209
11.72
11.7199
11.7197
11.7196
11.7196
11.7196
11.7195
11.7195
11.7195
11.7195
11.7195
11.7195
11.7195
11.7195
11.7196
11.7196
11.7196
11.7196
11.7196
11.7196
11.7196
11.7196
11.7196
11.7196
11.7196
11.7196
11.7196
11.7196
11.7196
11.7196
11.7196
11.7196
11.7196
11.7196
11.7196
11.7196
11.7196
11.7196
11.7196
11.7196
11.7196
11.7196
11.7196
11.7196
11.7196
11.7196
11.7196
11.7196
11.7196
11.7197
11.7197
11.7199
11.72
11.7211
11.7217
11.7276
11.7318
11.7785
11.8933
11.9329
12.2396
12.3504
13.1758
13.2563
13.2573
13.2557
13.2553
14.2566
12.8726
12.5347
12.0865
11.9796
11.8415
11.8089
11.7683
11.759
11.7481
11.7457
11.7433
11.7427
11.7419
11.7417
11.7415
11.7414
11.7413
11.7413
11.7413
11.7413
11.7413
11.7413
11.7413
11.7413
11.7413
11.7413
11.7413
11.7413
11.7413
11.7413
11.7413
11.7413
11.7413
11.7413
11.7413
11.7413
11.7413
11.7413
11.7413
11.7413
11.7413
11.7413
11.7413
11.7413
11.7413
11.7413
11.7414
11.7414
11.7414
11.7414
11.7414
11.7414
11.7414
11.7414
11.7414
11.7414
11.7414
11.7414
11.7414
11.7414
11.7414
11.7415
11.7415
11.7417
11.742
11.7431
11.7444
11.7509
11.7605
11.8091
11.9142
11.9833
12.257
12.4338
13.12
13.2501
13.2704
13.2739
13.2745
14.1129
12.9665
12.5575
12.1394
12.001
11.8702
11.8277
11.7891
11.7769
11.7664
11.7633
11.7609
11.7601
11.7594
11.7592
11.7589
11.7589
11.7588
11.7588
11.7588
11.7588
11.7588
11.7588
11.7588
11.7588
11.7588
11.7588
11.7588
11.7588
11.7588
11.7588
11.7588
11.7588
11.7588
11.7588
11.7588
11.7588
11.7588
11.7588
11.7588
11.7588
11.7588
11.7588
11.7588
11.7588
11.7588
11.7588
11.7588
11.7588
11.7588
11.7588
11.7588
11.7588
11.7588
11.7588
11.7588
11.7588
11.7588
11.7588
11.7588
11.7589
11.7589
11.7589
11.759
11.7592
11.7595
11.7607
11.7627
11.7697
11.7833
11.8333
11.9324
12.0215
12.2743
12.4929
13.0826
13.2444
13.2802
13.2882
13.2898
14.0126
13.0279
12.5771
12.1773
12.0182
11.8913
11.8422
11.8046
11.7904
11.7802
11.7765
11.7742
11.7733
11.7726
11.7723
11.7721
11.772
11.7719
11.7719
11.7719
11.7719
11.7719
11.7719
11.7719
11.7719
11.7719
11.7719
11.7719
11.7719
11.7719
11.7719
11.7719
11.7719
11.7719
11.7719
11.7719
11.7719
11.7719
11.7719
11.7719
11.7719
11.7719
11.7719
11.7719
11.7719
11.7719
11.7719
11.7719
11.7719
11.7719
11.7719
11.7719
11.7719
11.7719
11.7719
11.7719
11.7719
11.772
11.772
11.772
11.772
11.772
11.772
11.7721
11.7723
11.7728
11.774
11.7764
11.784
11.8003
11.8513
11.9468
12.049
12.289
12.5332
13.0583
13.2399
13.2872
13.2988
13.3013
13.949
13.0647
12.5913
12.2019
12.0301
11.9052
11.852
11.8149
11.7995
11.7894
11.7854
11.783
11.782
11.7813
11.781
11.7808
11.7807
11.7807
11.7807
11.7807
11.7806
11.7806
11.7806
11.7806
11.7806
11.7806
11.7806
11.7806
11.7807
11.7807
11.7807
11.7807
11.7807
11.7807
11.7807
11.7807
11.7807
11.7807
11.7807
11.7807
11.7807
11.7807
11.7807
11.7807
11.7807
11.7807
11.7807
11.7807
11.7807
11.7807
11.7807
11.7807
11.7807
11.7807
11.7807
11.7807
11.7807
11.7807
11.7807
11.7807
11.7807
11.7808
11.7808
11.7809
11.7811
11.7816
11.7829
11.7856
11.7936
11.8117
11.8632
11.9568
12.0668
12.2996
12.5583
13.0438
13.2367
13.2917
13.3059
13.3089
13.9182
13.082
12.5988
12.2139
12.0362
11.9121
11.8569
11.82
11.8041
11.794
11.7898
11.7875
11.7864
11.7857
11.7854
11.7852
11.7851
11.7851
11.7851
11.785
11.785
11.785
11.785
11.785
11.785
11.785
11.785
11.785
11.785
11.785
11.785
11.785
11.7851
11.7851
11.7851
11.7851
11.7851
11.7851
11.7851
11.7851
11.7851
11.7851
11.7851
11.7851
11.7851
11.7851
11.7851
11.7851
11.7851
11.7851
11.7851
11.7851
11.7851
11.7851
11.7851
11.7851
11.7851
11.7851
11.7851
11.7851
11.7851
11.7852
11.7852
11.7853
11.7855
11.786
11.7873
11.7902
11.7984
11.8174
11.8692
11.9618
12.0756
12.3051
12.5703
13.037
13.2351
13.2939
13.3094
13.3127
-13.9223
-13.0673
-12.5798
-12.2042
-12.033
-11.9158
-11.8645
-11.8316
-11.818
-11.8106
-11.8078
-11.8063
-11.8059
-11.806
-11.8062
-11.8066
-11.8068
-11.8071
-11.8073
-11.8074
-11.8075
-11.8076
-11.8077
-11.8077
-11.8078
-11.8078
-11.8078
-11.8079
-11.8079
-11.8079
-11.8079
-11.808
-11.808
-11.808
-11.808
-11.808
-11.808
-11.8081
-11.8081
-11.8081
-11.8081
-11.8081
-11.8082
-11.8082
-11.8082
-11.8082
-11.8082
-11.8082
-11.8083
-11.8083
-11.8083
-11.8084
-11.8084
-11.8084
-11.8085
-11.8086
-11.8087
-11.8089
-11.8091
-11.8094
-11.8099
-11.8104
-11.8113
-11.8124
-11.8145
-11.8169
-11.822
-11.8292
-11.8461
-11.8768
-11.954
-12.0787
-12.2143
-12.4703
-12.7434
-13.2052
-13.4006
-13.4587
-13.4738
-13.4772
-13.9539
-13.0496
-12.572
-12.1924
-12.027
-11.9091
-11.8597
-11.8266
-11.8136
-11.8062
-11.8035
-11.802
-11.8016
-11.8017
-11.8019
-11.8023
-11.8025
-11.8028
-11.803
-11.8032
-11.8033
-11.8034
-11.8034
-11.8035
-11.8035
-11.8036
-11.8036
-11.8036
-11.8036
-11.8037
-11.8037
-11.8037
-11.8037
-11.8037
-11.8038
-11.8038
-11.8038
-11.8038
-11.8038
-11.8038
-11.8039
-11.8039
-11.8039
-11.8039
-11.8039
-11.804
-11.804
-11.804
-11.804
-11.804
-11.8041
-11.8041
-11.8041
-11.8042
-11.8043
-11.8043
-11.8045
-11.8046
-11.8049
-11.8051
-11.8056
-11.8061
-11.8071
-11.8081
-11.8102
-11.8126
-11.8177
-11.8246
-11.8413
-11.8707
-11.948
-12.0742
-12.2055
-12.4658
-12.7321
-13.2119
-13.4022
-13.4566
-13.4704
-13.4735
-14.0192
-13.0116
-12.5568
-12.1682
-12.0152
-11.8958
-11.8502
-11.8167
-11.8048
-11.7975
-11.795
-11.7935
-11.7931
-11.7932
-11.7934
-11.7938
-11.794
-11.7944
-11.7945
-11.7947
-11.7948
-11.7949
-11.7949
-11.795
-11.795
-11.7951
-11.7951
-11.7951
-11.7951
-11.7952
-11.7952
-11.7952
-11.7952
-11.7952
-11.7953
-11.7953
-11.7953
-11.7953
-11.7953
-11.7953
-11.7954
-11.7954
-11.7954
-11.7954
-11.7954
-11.7955
-11.7955
-11.7955
-11.7955
-11.7955
-11.7956
-11.7956
-11.7956
-11.7957
-11.7958
-11.7958
-11.796
-11.7961
-11.7964
-11.7966
-11.7971
-11.7976
-11.7986
-11.7996
-11.8017
-11.8039
-11.8091
-11.8154
-11.8318
-11.8586
-11.9359
-12.0655
-12.1876
-12.4572
-12.7084
-13.2264
-13.4054
-13.4521
-13.4634
-13.4659
-14.1223
-12.9485
-12.5357
-12.131
-11.9983
-11.8755
-11.8361
-11.8019
-11.7916
-11.7843
-11.7822
-11.7807
-11.7804
-11.7805
-11.7807
-11.7811
-11.7813
-11.7816
-11.7818
-11.782
-11.7821
-11.7822
-11.7822
-11.7823
-11.7823
-11.7823
-11.7824
-11.7824
-11.7824
-11.7824
-11.7825
-11.7825
-11.7825
-11.7825
-11.7825
-11.7826
-11.7826
-11.7826
-11.7826
-11.7826
-11.7826
-11.7827
-11.7827
-11.7827
-11.7827
-11.7827
-11.7828
-11.7828
-11.7828
-11.7828
-11.7828
-11.7829
-11.7829
-11.783
-11.783
-11.7831
-11.7833
-11.7834
-11.7836
-11.7838
-11.7844
-11.7848
-11.7859
-11.7867
-11.789
-11.7909
-11.7962
-11.8015
-11.8177
-11.8403
-11.9176
-12.0532
-12.16
-12.4455
-12.6702
-13.2506
-13.4099
-13.4451
-13.453
-13.4546
-14.2699
-12.8519
-12.5108
-12.0793
-11.9771
-11.8478
-11.8178
-11.7819
-11.7741
-11.7668
-11.7652
-11.7636
-11.7634
-11.7636
-11.7637
-11.7642
-11.7644
-11.7648
-11.7649
-11.7651
-11.7651
-11.7653
-11.7653
-11.7654
-11.7654
-11.7654
-11.7654
-11.7655
-11.7655
-11.7655
-11.7656
-11.7656
-11.7656
-11.7656
-11.7656
-11.7656
-11.7657
-11.7657
-11.7657
-11.7657
-11.7657
-11.7657
-11.7658
-11.7658
-11.7658
-11.7658
-11.7658
-11.7658
-11.7659
-11.7659
-11.7659
-11.7659
-11.766
-11.766
-11.7661
-11.7662
-11.7663
-11.7664
-11.7667
-11.7669
-11.7675
-11.7678
-11.769
-11.7696
-11.772
-11.7735
-11.7791
-11.7831
-11.7992
-11.8156
-11.8929
-12.038
-12.1212
-12.4326
-12.614
-13.2878
-13.4155
-13.4354
-13.4389
-13.4395
-14.472
-12.7091
-12.4863
-12.0107
-11.9533
-11.8123
-11.7957
-11.7568
-11.7525
-11.7449
-11.744
-11.7424
-11.7422
-11.7425
-11.7426
-11.7432
-11.7433
-11.7437
-11.7438
-11.744
-11.744
-11.7442
-11.7442
-11.7443
-11.7443
-11.7443
-11.7444
-11.7444
-11.7444
-11.7444
-11.7445
-11.7445
-11.7445
-11.7445
-11.7445
-11.7445
-11.7446
-11.7446
-11.7446
-11.7446
-11.7446
-11.7446
-11.7447
-11.7447
-11.7447
-11.7447
-11.7447
-11.7447
-11.7448
-11.7448
-11.7448
-11.7448
-11.7449
-11.7449
-11.745
-11.7451
-11.7452
-11.7453
-11.7456
-11.7457
-11.7464
-11.7466
-11.7479
-11.7483
-11.751
-11.7518
-11.7579
-11.76
-11.7766
-11.7844
-11.8615
-12.0213
-12.0695
-12.421
-12.5345
-13.343
-13.4217
-13.4226
-13.4211
-13.4207
-14.7425
-12.5015
-12.4686
-11.9217
-11.9291
-11.7679
-11.7705
-11.7262
-11.727
-11.7186
-11.7188
-11.7169
-11.717
-11.7174
-11.7174
-11.7181
-11.7181
-11.7185
-11.7185
-11.7188
-11.7188
-11.719
-11.719
-11.7191
-11.7191
-11.7191
-11.7191
-11.7192
-11.7192
-11.7192
-11.7193
-11.7193
-11.7193
-11.7193
-11.7193
-11.7193
-11.7194
-11.7194
-11.7194
-11.7194
-11.7194
-11.7194
-11.7194
-11.7194
-11.7195
-11.7195
-11.7195
-11.7195
-11.7196
-11.7196
-11.7196
-11.7196
-11.7197
-11.7197
-11.7198
-11.7198
-11.72
-11.72
-11.7204
-11.7204
-11.7212
-11.7212
-11.7228
-11.7227
-11.7259
-11.7258
-11.7328
-11.7322
-11.7502
-11.7463
-11.8227
-12.0052
-12.0017
-12.4154
-12.4234
-13.4237
-13.4272
-13.4061
-13.3995
-13.398
-15.1006
-12.2025
-12.4683
-11.8069
-11.908
-11.713
-11.7433
-11.6898
-11.6978
-11.6879
-11.6896
-11.6873
-11.6876
-11.6881
-11.688
-11.6888
-11.6887
-11.6893
-11.6892
-11.6896
-11.6895
-11.6897
-11.6897
-11.6898
-11.6898
-11.6898
-11.6898
-11.6899
-11.6899
-11.6899
-11.6899
-11.6899
-11.69
-11.69
-11.69
-11.69
-11.69
-11.69
-11.6901
-11.6901
-11.6901
-11.6901
-11.6901
-11.6901
-11.6902
-11.6901
-11.6902
-11.6902
-11.6902
-11.6902
-11.6903
-11.6903
-11.6904
-11.6903
-11.6905
-11.6904
-11.6907
-11.6906
-11.6911
-11.691
-11.6919
-11.6916
-11.6936
-11.6929
-11.6968
-11.6954
-11.7039
-11.6995
-11.7206
-11.7009
-11.7756
-11.9927
-11.9135
-12.4223
-12.269
-13.5406
-13.4299
-13.3853
-13.374
-13.3715
-15.5731
-11.7735
-12.5018
-11.6578
-11.895
-11.645
-11.7154
-11.6468
-11.6653
-11.6526
-11.6565
-11.6535
-11.6541
-11.6547
-11.6544
-11.6555
-11.6552
-11.656
-11.6557
-11.6562
-11.656
-11.6563
-11.6562
-11.6564
-11.6563
-11.6564
-11.6564
-11.6564
-11.6564
-11.6565
-11.6565
-11.6565
-11.6565
-11.6565
-11.6566
-11.6565
-11.6566
-11.6566
-11.6566
-11.6566
-11.6566
-11.6566
-11.6567
-11.6566
-11.6567
-11.6567
-11.6567
-11.6567
-11.6568
-11.6567
-11.6568
-11.6568
-11.6569
-11.6568
-11.657
-11.6569
-11.6573
-11.6571
-11.6577
-11.6573
-11.6586
-11.6578
-11.6603
-11.6588
-11.6639
-11.6605
-11.6713
-11.6617
-11.6885
-11.6477
-11.7188
-11.9882
-11.7977
-12.452
-12.054
-13.709
-13.4264
-13.3595
-13.3445
-13.3412
-16.1961
-11.16
-12.5953
-11.4617
-11.898
-11.5604
-11.6894
-11.5964
-11.6301
-11.6127
-11.6196
-11.6155
-11.6165
-11.6173
-11.6168
-11.6182
-11.6176
-11.6186
-11.6182
-11.6188
-11.6185
-11.6189
-11.6187
-11.6189
-11.6188
-11.6189
-11.6189
-11.619
-11.6189
-11.619
-11.619
-11.619
-11.6191
-11.619
-11.6191
-11.619
-11.6191
-11.6191
-11.6191
-11.6191
-11.6192
-11.6191
-11.6192
-11.6191
-11.6192
-11.6192
-11.6192
-11.6192
-11.6193
-11.6192
-11.6193
-11.6192
-11.6194
-11.6193
-11.6196
-11.6193
-11.6198
-11.6194
-11.6203
-11.6196
-11.6213
-11.6199
-11.6232
-11.6204
-11.6272
-11.6209
-11.6356
-11.6184
-11.6552
-11.5859
-11.6502
-11.9983
-11.6443
-12.5204
-11.7534
-13.9513
-13.4106
-13.3281
-13.3109
-13.3073
)
;

boundaryField
{
    F1_1
    {
        type            calculated;
        value           nonuniform List<scalar> 
80
(
16.5633
10.8021
12.669
11.3494
11.9077
11.513
11.6782
11.5691
11.6129
11.5897
11.5985
11.5963
11.597
11.5981
11.5973
11.5989
11.5981
11.5992
11.5986
11.5993
11.599
11.5993
11.5991
11.5993
11.5992
11.5993
11.5993
11.5993
11.5993
11.5993
11.5993
11.5993
11.5993
11.5993
11.5993
11.5993
11.5993
11.5993
11.5993
11.5993
11.5993
11.5993
11.5993
11.5993
11.5993
11.5993
11.5993
11.5993
11.5993
11.5993
11.5994
11.5993
11.5994
11.5993
11.5996
11.5993
11.5999
11.5994
11.6004
11.5995
11.6015
11.5997
11.6036
11.6
11.6078
11.5999
11.6168
11.5953
11.6379
11.553
11.6121
12.0052
11.5561
12.5615
11.5765
14.0847
13.3915
13.3038
13.2861
13.2825
)
;
    }
    F1_2
    {
        type            calculated;
        value           nonuniform List<scalar> 
80
(
-16.4613
-10.8668
-12.7054
-11.331
-11.9076
-11.4903
-11.666
-11.5437
-11.5942
-11.5619
-11.5748
-11.5682
-11.5713
-11.5688
-11.5698
-11.5691
-11.5694
-11.5693
-11.5693
-11.5693
-11.5693
-11.5693
-11.5693
-11.5694
-11.5693
-11.5694
-11.5694
-11.5694
-11.5694
-11.5694
-11.5695
-11.5695
-11.5695
-11.5695
-11.5696
-11.5695
-11.5696
-11.5695
-11.5696
-11.5696
-11.5696
-11.5696
-11.5697
-11.5696
-11.5697
-11.5696
-11.5697
-11.5697
-11.5697
-11.5697
-11.5698
-11.5697
-11.5698
-11.5697
-11.5698
-11.5698
-11.5698
-11.5698
-11.5699
-11.5698
-11.5699
-11.5698
-11.57
-11.5697
-11.5703
-11.5689
-11.5715
-11.5639
-11.5772
-11.5272
-11.5415
-11.8322
-11.4549
-12.3313
-11.3641
-13.9505
-13.2398
-13.1502
-13.1322
-13.1284
)
;
    }
    F1_3
    {
        type            calculated;
        value           nonuniform List<scalar> 
80
(
16.4758
10.87
12.7142
11.3307
11.9112
11.49
11.6674
11.5437
11.5948
11.562
11.5751
11.5683
11.5715
11.5689
11.5699
11.5692
11.5695
11.5693
11.5694
11.5693
11.5693
11.5693
11.5693
11.5693
11.5693
11.5693
11.5693
11.5693
11.5693
11.5693
11.5693
11.5693
11.5693
11.5693
11.5693
11.5693
11.5693
11.5693
11.5693
11.5693
11.5693
11.5693
11.5693
11.5693
11.5693
11.5693
11.5693
11.5693
11.5693
11.5693
11.5693
11.5693
11.5694
11.5693
11.5694
11.5693
11.5694
11.5693
11.5694
11.5693
11.5694
11.5693
11.5695
11.5692
11.5697
11.5684
11.571
11.5635
11.5765
11.5271
11.5411