/*--------------------------------*- C++ -*----------------------------------*\
| =========                 |                                                 |
| \\      /  F ield         | OpenFOAM: The Open Source CFD Toolbox           |
|  \\    /   O peration     | Version:  5.x                                   |
|   \\  /    A nd           | Web:      www.OpenFOAM.org                      |
|    \\/     M anipulation  |                                                 |
\*---------------------------------------------------------------------------*/
FoamFile
{
    version     2.0;
    format      ascii;
    class       volScalarField;
    location    "0.1";
    object      gradTx;
}
// * * * * * * * * * * * * * * * * * * * * * * * * * * * * * * * * * * * * * //

dimensions      [0 -1 0 1 0 0 0];

internalField   nonuniform List<scalar> 
3200
(
44.1875
1.91869
0.594936
0.529499
0.17869
0.159041
0.0500933
0.0440212
0.0113524
0.00960406
0.00146052
0.00104849
-0.000345952
-0.00041539
-0.000590998
-0.000591971
-0.00043168
-0.000418093
-0.00025153
-0.000240075
-0.000133109
-0.000126103
-6.64916e-05
-6.26766e-05
-3.18966e-05
-2.99675e-05
-1.5181e-05
-1.43182e-05
-8.58353e-06
-1.23267e-05
-5.00111e-06
-2.46763e-06
-2.31832e-06
-1.84225e-06
-1.82503e-06
-1.97096e-06
-1.99143e-06
-2.36043e-06
-2.39819e-06
-2.93523e-06
-3.00787e-06
-4.20055e-06
-4.35322e-06
-6.82419e-06
-7.09356e-06
-1.11207e-05
-1.1519e-05
-1.71447e-05
-1.75976e-05
-2.25105e-05
-2.38084e-05
-4.98224e-05
-5.28516e-05
-9.94857e-05
-0.000105319
-0.000197997
-0.000209397
-0.000388894
-0.000411109
-0.000761524
-0.000805515
-0.00150202
-0.00159342
-0.00305661
-0.00327346
-0.00683553
-0.00751189
-0.0189566
-0.0221293
-0.075738
-0.234548
-0.185514
-0.38907
-0.415865
-0.885412
-0.87082
-0.0390451
-0.00526928
-0.00106107
-44.5117
46.9254
1.58703
0.599821
0.465228
0.182048
0.139906
0.0517056
0.0386604
0.0122177
0.00846123
0.00183155
0.000942543
-0.000219893
-0.000371359
-0.000517949
-0.000520502
-0.000395687
-0.000366971
-0.000235208
-0.000210884
-0.00012582
-0.000110912
-6.33751e-05
-5.52434e-05
-3.06464e-05
-2.6529e-05
-1.46981e-05
-1.28623e-05
-8.42423e-06
-1.05794e-05
-4.90613e-06
-2.54898e-06
-2.20984e-06
-1.80163e-06
-1.76193e-06
-1.86981e-06
-1.91232e-06
-2.20268e-06
-2.28281e-06
-2.71279e-06
-2.86742e-06
-3.81785e-06
-4.14167e-06
-6.09858e-06
-6.66861e-06
-9.85101e-06
-1.06922e-05
-1.5121e-05
-1.6095e-05
-2.02144e-05
-2.29768e-05
-4.35393e-05
-4.99675e-05
-8.71164e-05
-9.95161e-05
-0.0001733
-0.000197538
-0.0003405
-0.000387749
-0.000667019
-0.000760678
-0.00131689
-0.00151209
-0.00268769
-0.0031548
-0.00606159
-0.00754523
-0.0171945
-0.0243671
-0.0741792
-0.197832
-0.181157
-0.340715
-0.39631
-0.752405
-0.721942
-0.0852107
-0.0146247
-0.00305123
-47.1757
49.66
1.30355
0.571063
0.407298
0.176001
0.12282
0.0504232
0.0339299
0.0122189
0.00746824
0.00198598
0.000857406
-0.000129385
-0.000323499
-0.000448888
-0.000452704
-0.000355219
-0.000319461
-0.000214331
-0.000183904
-0.000115571
-9.68834e-05
-5.85695e-05
-4.83618e-05
-2.84898e-05
-2.33157e-05
-1.37452e-05
-1.14426e-05
-7.93856e-06
-9.04426e-06
-4.62234e-06
-2.50049e-06
-2.05585e-06
-1.69966e-06
-1.64663e-06
-1.72572e-06
-1.77793e-06
-2.00849e-06
-2.10872e-06
-2.4571e-06
-2.65103e-06
-3.41686e-06
-3.82177e-06
-5.38735e-06
-6.09874e-06
-8.63843e-06
-9.68646e-06
-1.32065e-05
-1.44389e-05
-1.79496e-05
-2.14144e-05
-3.78341e-05
-4.58761e-05
-7.58058e-05
-9.13404e-05
-0.000150736
-0.000181106
-0.00029625
-0.000355471
-0.00058057
-0.000698066
-0.00114747
-0.00139304
-0.00234983
-0.00294179
-0.00535102
-0.00726
-0.0155496
-0.0249241
-0.0697352
-0.166894
-0.169886
-0.296698
-0.364892
-0.634806
-0.597243
-0.108719
-0.021617
-0.00468813
-49.8461
52.3892
1.0597
0.519982
0.352416
0.163045
0.106682
0.0470077
0.0294898
0.0115826
0.00653476
0.00197892
0.000775316
-6.60186e-05
-0.000274914
-0.00038302
-0.00038773
-0.000311692
-0.000274288
-0.000190233
-0.000158252
-0.000103203
-8.35201e-05
-5.25442e-05
-4.17785e-05
-2.56729e-05
-2.02107e-05
-1.24446e-05
-1.00167e-05
-7.21722e-06
-7.65418e-06
-4.2014e-06
-2.34663e-06
-1.86117e-06
-1.54981e-06
-1.49067e-06
-1.54798e-06
-1.6019e-06
-1.78545e-06
-1.89082e-06
-2.17412e-06
-2.3785e-06
-2.99767e-06
-3.42321e-06
-4.67961e-06
-5.42586e-06
-7.45874e-06
-8.55649e-06
-1.13631e-05
-1.26729e-05
-1.5672e-05
-1.93242e-05
-3.24791e-05
-4.09355e-05
-6.51352e-05
-8.14917e-05
-0.000129472
-0.000161451
-0.000254515
-0.000316895
-0.00049898
-0.000622851
-0.000987328
-0.00124691
-0.00202894
-0.00265915
-0.00466612
-0.00672728
-0.0138776
-0.0240881
-0.0632609
-0.139861
-0.153785
-0.255178
-0.32553
-0.529459
-0.490514
-0.116158
-0.0257941
-0.00580905
-52.5221
55.1121
0.847975
0.454393
0.298706
0.144961
0.0908288
0.0419982
0.0251353
0.010469
0.00560756
0.00184956
0.000686346
-2.38162e-05
-0.000227387
-0.000319774
-0.000324933
-0.000266086
-0.000230607
-0.000163845
-0.000133366
-8.93068e-05
-7.05095e-05
-4.5631e-05
-3.5337e-05
-2.23713e-05
-1.71437e-05
-1.08847e-05
-8.56285e-06
-6.32549e-06
-6.36302e-06
-3.68118e-06
-2.10876e-06
-1.63149e-06
-1.36301e-06
-1.3036e-06
-1.34446e-06
-1.39501e-06
-1.54027e-06
-1.64074e-06
-1.86956e-06
-2.06488e-06
-2.56226e-06
-2.96786e-06
-3.96996e-06
-4.68005e-06
-6.29741e-06
-7.34058e-06
-9.56596e-06
-1.08275e-05
-1.33597e-05
-1.68508e-05
-2.73285e-05
-3.53936e-05
-5.48369e-05
-7.04547e-05
-0.000108969
-0.000139506
-0.000214251
-0.000273837
-0.000420198
-0.000538619
-0.000832343
-0.00108114
-0.00171617
-0.0023242
-0.003984
-0.00599818
-0.0120975
-0.022117
-0.0553465
-0.115449
-0.134295
-0.215031
-0.280926
-0.433788
-0.39714
-0.112224
-0.0271446
-0.00632432
-55.2029
57.8287
0.661804
0.379616
0.245171
0.12306
0.0748931
0.0357902
0.0207517
0.00899575
0.00465812
0.00162689
0.000585766
1.73924e-06
-0.000181809
-0.000258692
-0.000263813
-0.000219081
-0.000187865
-0.000135827
-0.000108891
-7.43051e-05
-5.76616e-05
-3.80696e-05
-2.8945e-05
-1.87129e-05
-1.40755e-05
-9.1314e-06
-7.07253e-06
-5.31091e-06
-5.13896e-06
-3.08959e-06
-1.80519e-06
-1.37278e-06
-1.1481e-06
-1.09319e-06
-1.12167e-06
-1.16569e-06
-1.27857e-06
-1.36741e-06
-1.54852e-06
-1.72158e-06
-2.11336e-06
-2.4719e-06
-3.25622e-06
-3.88298e-06
-5.14599e-06
-6.06568e-06
-7.79873e-06
-8.92419e-06
-1.10051e-05
-1.40991e-05
-2.2291e-05
-2.94244e-05
-4.47436e-05
-5.85713e-05
-8.88912e-05
-0.00011593
-0.000174801
-0.000227576
-0.000342941
-0.000447903
-0.000679972
-0.000900997
-0.00140624
-0.00194961
-0.00329191
-0.00511208
-0.0101731
-0.0192385
-0.0464067
-0.0927806
-0.112422
-0.175587
-0.232923
-0.345666
-0.313643
-0.100285
-0.025913
-0.00621501
-57.8878
60.5397
0.495442
0.2992
0.191348
0.0983394
0.0587002
0.0286865
0.0162849
0.00725307
0.00367435
0.00133353
0.000472291
1.4312e-05
-0.000138457
-0.000199369
-0.000203965
-0.000171145
-0.000145701
-0.000106659
-8.46176e-05
-5.85092e-05
-4.48679e-05
-3.00383e-05
-2.25525e-05
-1.4794e-05
-1.09871e-05
-7.23523e-06
-5.54533e-06
-4.20866e-06
-3.95996e-06
-2.44742e-06
-1.45162e-06
-1.09088e-06
-9.1231e-07
-8.65687e-07
-8.84881e-07
-9.2045e-07
-1.00493e-06
-1.07767e-06
-1.21534e-06
-1.35727e-06
-1.65388e-06
-1.94735e-06
-2.538e-06
-3.05037e-06
-3.99967e-06
-4.75081e-06
-6.0507e-06
-6.97909e-06
-8.60879e-06
-1.1147e-05
-1.73112e-05
-2.3153e-05
-3.47542e-05
-4.6088e-05
-6.90331e-05
-9.11963e-05
-0.000135767
-0.000179036
-0.000266434
-0.000352546
-0.000528714
-0.000710398
-0.00109621
-0.00154512
-0.0025842
-0.00410184
-0.0080989
-0.015654
-0.03674
-0.0712568
-0.0888862
-0.136464
-0.182766
-0.263311
-0.237358
-0.0827796
-0.0224843
-0.00552121
-60.576
63.246
0.343804
0.215462
0.137093
0.0715932
0.0422041
0.020931
0.0117205
0.00531391
0.00265502
0.000988121
0.000346922
1.70838e-05
-9.71947e-05
-0.000141417
-0.000145052
-0.000122607
-0.000103884
-7.66954e-05
-6.04253e-05
-4.21559e-05
-3.20734e-05
-2.16745e-05
-1.61376e-05
-1.06897e-05
-7.87244e-06
-5.23642e-06
-3.98587e-06
-3.04547e-06
-2.81054e-06
-1.77038e-06
-1.06148e-06
-7.91404e-07
-6.6154e-07
-6.26147e-07
-6.38316e-07
-6.64311e-07
-7.23034e-07
-7.76749e-07
-8.73607e-07
-9.78561e-07
-1.18659e-06
-1.40328e-06
-1.81583e-06
-2.19378e-06
-2.85586e-06
-3.40954e-06
-4.31482e-06
-5.00445e-06
-6.17657e-06
-8.05396e-06
-1.23573e-05
-1.66725e-05
-2.4811e-05
-3.31884e-05
-4.92764e-05
-6.56592e-05
-9.69205e-05
-0.00012891
-0.00019024
-0.000253938
-0.000377758
-0.000512357
-0.000784778
-0.00111866
-0.00186009
-0.00299683
-0.00589076
-0.0115432
-0.0265688
-0.0504657
-0.0642127
-0.0974601
-0.131286
-0.185199
-0.166185
-0.0614978
-0.0173144
-0.00432872
-63.2668
65.949
0.202321
0.129876
0.082437
0.0434811
0.0254417
0.0127311
0.00707064
0.00324051
0.001606
0.000606876
0.00021215
1.2976e-05
-5.76017e-05
-8.44528e-05
-8.67808e-05
-7.3697e-05
-6.22638e-05
-4.62123e-05
-3.62554e-05
-2.54336e-05
-1.92578e-05
-1.30892e-05
-9.69593e-06
-6.46128e-06
-4.73418e-06
-3.16844e-06
-2.40176e-06
-1.84232e-06
-1.67962e-06
-1.07068e-06
-6.46482e-07
-4.79664e-07
-4.00748e-07
-3.78676e-07
-3.85372e-07
-4.01171e-07
-4.35798e-07
-4.68681e-07
-5.26264e-07
-5.90573e-07
-7.13993e-07
-8.46627e-07
-1.09071e-06
-1.32189e-06
-1.7132e-06
-2.05172e-06
-2.58629e-06
-3.01016e-06
-3.71718e-06
-4.86773e-06
-7.41291e-06
-1.00551e-05
-1.48843e-05
-2.00159e-05
-2.95588e-05
-3.95945e-05
-5.81419e-05
-7.77405e-05
-0.000114141
-0.000153178
-0.000226747
-0.000309326
-0.000471697
-0.000677098
-0.00112215
-0.00182479
-0.00357837
-0.00706822
-0.0160663
-0.030121
-0.0388027
-0.0584809
-0.079034
-0.109991
-0.098415
-0.0377939
-0.0108913
-0.00275666
-65.9593
68.6499
0.0667873
0.0433823
0.0275106
0.0145798
0.00850134
0.00427207
0.00236355
0.00108876
0.000537574
0.000204603
7.13992e-05
4.77783e-06
-1.90781e-05
-2.80845e-05
-2.88857e-05
-2.45867e-05
-2.07444e-05
-1.54358e-05
-1.20858e-05
-8.50068e-06
-6.42193e-06
-4.37687e-06
-3.2344e-06
-2.16153e-06
-1.57993e-06
-1.06051e-06
-8.02317e-07
-6.16553e-07
-5.58806e-07
-3.58263e-07
-2.1707e-07
-1.60687e-07
-1.34208e-07
-1.26711e-07
-1.28844e-07
-1.34141e-07
-1.45586e-07
-1.56651e-07
-1.75762e-07
-1.97413e-07
-2.38332e-07
-2.82961e-07
-3.63772e-07
-4.41535e-07
-5.71025e-07
-6.84866e-07
-8.61685e-07
-1.0046e-06
-1.24096e-06
-1.62833e-06
-2.47088e-06
-3.36005e-06
-4.96134e-06
-6.68867e-06
-9.85234e-06
-1.32305e-05
-1.938e-05
-2.59776e-05
-3.80485e-05
-5.11923e-05
-7.56025e-05
-0.000103421
-0.000157382
-0.000226672
-0.000375102
-0.000612699
-0.00120025
-0.00237956
-0.00537573
-0.0100153
-0.0129787
-0.0194954
-0.0263853
-0.0364781
-0.0325936
-0.0127416
-0.00371428
-0.000946448
-68.653
68.651
0.0653278
0.0432874
0.0279879
0.0150528
0.00890677
0.00458202
0.00261921
0.00129107
0.000702977
0.000322586
0.000165857
8.28595e-05
4.788e-05
2.37911e-05
1.2947e-05
5.53216e-06
2.26301e-06
1.22727e-07
-8.05271e-07
-1.4019e-06
-1.65952e-06
-1.82509e-06
-1.8977e-06
-1.9478e-06
-1.98177e-06
-2.0422e-06
-2.1875e-06
-2.58319e-06
-3.15974e-06
-2.57042e-06
-2.15767e-06
-2.00614e-06
-1.94589e-06
-1.92787e-06
-1.92444e-06
-1.92311e-06
-1.92013e-06
-1.91568e-06
-1.90646e-06
-1.89922e-06
-1.88922e-06
-1.88344e-06
-1.87718e-06
-1.87003e-06
-1.85509e-06
-1.83435e-06
-1.78881e-06
-1.7243e-06
-1.60533e-06
-1.59435e-06
-1.68382e-06
-1.73142e-06
-1.76133e-06
-1.77791e-06
-1.79999e-06
-1.84007e-06
-1.93984e-06
-2.11489e-06
-2.54094e-06
-3.28749e-06
-5.14982e-06
-8.71078e-06
-1.80729e-05
-3.77562e-05
-9.19715e-05
-0.000214506
-0.000563793
-0.0013849
-0.0035866
-0.00728025
-0.0104316
-0.0172658
-0.0248938
-0.0365851
-0.0331893
-0.0130035
-0.00378393
-0.000959976
-68.6681
65.9524
0.197873
0.129624
0.0838952
0.044904
0.0266601
0.0136598
0.00783778
0.00384688
0.00210265
0.000959871
0.000495214
0.000247
0.000143418
7.0964e-05
3.87772e-05
1.64715e-05
6.76852e-06
3.34175e-07
-2.41949e-06
-4.21254e-06
-4.97689e-06
-5.47437e-06
-5.68972e-06
-5.83995e-06
-5.94028e-06
-6.11936e-06
-6.54888e-06
-7.73872e-06
-9.52066e-06
-7.70049e-06
-6.45888e-06
-6.0107e-06
-5.8317e-06
-5.77863e-06
-5.76871e-06
-5.7648e-06
-5.75577e-06
-5.74252e-06
-5.71453e-06
-5.69295e-06
-5.66259e-06
-5.64539e-06
-5.62653e-06
-5.60531e-06
-5.56029e-06
-5.49871e-06
-5.36155e-06
-5.16899e-06
-4.80469e-06
-4.77197e-06
-5.04684e-06
-5.18906e-06
-5.27878e-06
-5.32782e-06
-5.39361e-06
-5.51223e-06
-5.81101e-06
-6.32937e-06
-7.60529e-06
-9.81431e-06
-1.53808e-05
-2.59052e-05
-5.38249e-05
-0.000111935
-0.000273303
-0.000634717
-0.00167316
-0.00410092
-0.0107035
-0.0218687
-0.031155
-0.0517748
-0.074527
-0.110362
-0.10024
-0.0385722
-0.0110963
-0.00279888
-66.0046
63.2518
0.336153
0.215155
0.13961
0.0739772
0.0442416
0.0224748
0.0129997
0.00632262
0.00348433
0.00157319
0.000817682
0.000406373
0.000238349
0.000116887
6.44323e-05
2.70291e-05
1.12176e-05
4.4224e-07
-4.04281e-06
-7.04359e-06
-8.2882e-06
-9.12039e-06
-9.47083e-06
-9.72109e-06
-9.88299e-06
-1.01742e-05
-1.08683e-05
-1.28588e-05
-1.60089e-05
-1.27954e-05
-1.07165e-05
-9.99148e-06
-9.69889e-06
-9.6137e-06
-9.59838e-06
-9.59214e-06
-9.57678e-06
-9.55501e-06
-9.50719e-06
-9.47175e-06
-9.41996e-06
-9.39175e-06
-9.36004e-06
-9.32538e-06
-9.24965e-06
-9.14922e-06
-8.91883e-06
-8.60144e-06
-7.96896e-06
-7.91526e-06
-8.39543e-06
-8.63021e-06
-8.77978e-06
-8.8592e-06
-8.96735e-06
-9.15955e-06
-9.65608e-06
-1.04969e-05
-1.26174e-05
-1.61953e-05
-2.54102e-05
-4.24171e-05
-8.84245e-05
-0.000182123
-0.000446992
-0.00102865
-0.00272892
-0.00665424
-0.0176481
-0.036551
-0.0514474
-0.0862262
-0.123661
-0.185986
-0.169356
-0.0627747
-0.0176423
-0.00439911
-63.3422
60.5479
0.48422
0.299026
0.195058
0.101701
0.0615675
0.0308386
0.0180775
0.00866098
0.004839
0.00214546
0.0011293
0.000557692
0.00033248
0.000160646
8.98528e-05
3.69269e-05
1.55908e-05
3.73222e-07
-5.67463e-06
-9.90826e-06
-1.15859e-05
-1.27592e-05
-1.32311e-05
-1.35817e-05
-1.3797e-05
-1.41901e-05
-1.5114e-05
-1.79103e-05
-2.27196e-05
-1.78221e-05
-1.48974e-05
-1.39307e-05
-1.35325e-05
-1.34201e-05
-1.34011e-05
-1.33929e-05
-1.33707e-05
-1.33409e-05
-1.32714e-05
-1.3223e-05
-1.31478e-05
-1.31094e-05
-1.30643e-05
-1.30174e-05
-1.29098e-05
-1.27741e-05
-1.24473e-05
-1.20119e-05
-1.10708e-05
-1.09976e-05
-1.17182e-05
-1.2041e-05
-1.22507e-05
-1.23568e-05
-1.25053e-05
-1.27625e-05
-1.34557e-05
-1.45826e-05
-1.75433e-05
-2.23284e-05
-3.51193e-05
-5.7787e-05
-0.000121203
-0.00024569
-0.000608594
-0.00137914
-0.00369889
-0.00893182
-0.0242931
-0.0514251
-0.0709817
-0.120618
-0.171841
-0.264784
-0.242073
-0.0845222
-0.0229138
-0.00561645
-60.6816
57.8395
0.646468
0.379869
0.25026
0.127415
0.0786056
0.0385397
0.0230601
0.0107979
0.00616258
0.00265772
0.00142717
0.000697464
0.000425962
0.000201188
0.000115074
4.58457e-05
1.98981e-05
4.46547e-08
-7.30357e-06
-1.28197e-05
-1.48569e-05
-1.63843e-05
-1.69566e-05
-1.74091e-05
-1.7666e-05
-1.81476e-05
-1.9249e-05
-2.28442e-05
-2.97653e-05
-2.27319e-05
-1.89632e-05
-1.78078e-05
-1.73139e-05
-1.7181e-05
-1.71607e-05
-1.7151e-05
-1.7121e-05
-1.70843e-05
-1.69901e-05
-1.69304e-05
-1.68287e-05
-1.67814e-05
-1.6722e-05
-1.66647e-05
-1.65229e-05
-1.63576e-05
-1.59293e-05
-1.53885e-05
-1.4077e-05
-1.39868e-05
-1.50013e-05
-1.54034e-05
-1.56738e-05
-1.58014e-05
-1.59877e-05
-1.62971e-05
-1.71876e-05
-1.85462e-05
-2.23512e-05
-2.81034e-05
-4.44142e-05
-7.15436e-05
-0.00015165
-0.000300016
-0.000754681
-0.00166943
-0.00455672
-0.0108137
-0.0304907
-0.0666464
-0.0893644
-0.155011
-0.218409
-0.348227
-0.320189
-0.102436
-0.0264142
-0.00632946
-58.0237
55.1257
0.827774
0.455514
0.305421
0.150319
0.0954075
0.0453281
0.0279637
0.0126577
0.0074589
0.00308782
0.0017101
0.000821805
0.00051948
0.000237227
0.000140288
5.33975e-05
2.41977e-05
-6.41424e-07
-8.90155e-06
-1.57918e-05
-1.80804e-05
-1.99858e-05
-2.06277e-05
-2.11864e-05
-2.14689e-05
-2.20238e-05
-2.32292e-05
-2.7588e-05
-3.72855e-05
-2.74529e-05
-2.28676e-05
-2.15988e-05
-2.10191e-05
-2.08746e-05
-2.08557e-05
-2.08451e-05
-2.08059e-05
-2.07637e-05
-2.06403e-05
-2.05719e-05
-2.04391e-05
-2.03851e-05
-2.03098e-05
-2.02449e-05
-2.00654e-05
-1.98791e-05
-1.93407e-05
-1.87169e-05
-1.69458e-05
-1.68426e-05
-1.82277e-05
-1.8693e-05
-1.90262e-05
-1.91676e-05
-1.93895e-05
-1.9733e-05
-2.08263e-05
-2.2339e-05
-2.70128e-05
-3.33964e-05
-5.32396e-05
-8.31869e-05
-0.000179489
-0.000342433
-0.000883328
-0.00188294
-0.00528519
-0.0121703
-0.0360584
-0.0824631
-0.106096
-0.189579
-0.262395
-0.438009
-0.405899
-0.114687
-0.0276782
-0.00645019
-55.369
52.4058
1.03364
0.522614
0.361062
0.169398
0.112155
0.0508926
0.0328457
0.0141465
0.008744
0.00340846
0.00197957
0.000926139
0.000614531
0.000267099
0.000165922
5.90836e-05
2.86211e-05
-1.80908e-06
-1.04157e-05
-1.88413e-05
-2.1224e-05
-2.35505e-05
-2.42175e-05
-2.48913e-05
-2.5178e-05
-2.57917e-05
-2.70027e-05
-3.20344e-05
-4.54607e-05
-3.18783e-05
-2.65557e-05
-2.52753e-05
-2.46174e-05
-2.44725e-05
-2.44576e-05
-2.44469e-05
-2.43961e-05
-2.4351e-05
-2.4192e-05
-2.41192e-05
-2.39484e-05
-2.38911e-05
-2.37972e-05
-2.3729e-05
-2.3506e-05
-2.33112e-05
-2.26489e-05
-2.198e-05
-1.96241e-05
-1.95146e-05
-2.1377e-05
-2.18778e-05
-2.22778e-05
-2.24229e-05
-2.2679e-05
-2.30319e-05
-2.4342e-05
-2.59009e-05
-3.15069e-05
-3.80612e-05
-6.15979e-05
-9.21598e-05
-0.000204786
-0.000370099
-0.00099473
-0.00200273
-0.00588072
-0.0128598
-0.0407606
-0.0992625
-0.120512
-0.224678
-0.302363
-0.536128
-0.501981
-0.118775
-0.0263118
-0.00593608
-52.7185
49.6797
1.27032
0.576135
0.41824
0.183311
0.129229
0.0548255
0.0378258
0.0151412
0.0100523
0.00358427
0.00224113
0.0010047
0.000713791
0.00028855
0.00019277
6.22317e-05
3.3411e-05
-3.62517e-06
-1.1757e-05
-2.19912e-05
-2.42405e-05
-2.7061e-05
-2.76893e-05
-2.8495e-05
-2.87582e-05
-2.94199e-05
-3.05091e-05
-3.60267e-05
-5.45319e-05
-3.58528e-05
-2.99633e-05
-2.88049e-05
-2.80695e-05
-2.79383e-05
-2.79299e-05
-2.79199e-05
-2.7854e-05
-2.78101e-05
-2.7606e-05
-2.75356e-05
-2.73168e-05
-2.72616e-05
-2.71447e-05
-2.70795e-05
-2.68038e-05
-2.66191e-05
-2.58106e-05
-2.51589e-05
-2.20446e-05
-2.1939e-05
-2.44257e-05
-2.49154e-05
-2.53907e-05
-2.55253e-05
-2.58164e-05
-2.61446e-05
-2.77009e-05
-2.9156e-05
-3.58239e-05
-4.19169e-05
-6.95757e-05
-9.77977e-05
-0.000228082
-0.000379746
-0.001092
-0.00201024
-0.00635937
-0.0127265
-0.0442787
-0.117639
-0.131702
-0.260962
-0.336201
-0.644993
-0.612034
-0.111242
-0.0220619
-0.00480243
-50.0729
46.9484
1.54493
0.608658
0.478885
0.190227
0.147309
0.0565702
0.0431177
0.0154734
0.011446
0.00356727
0.00250652
0.00104975
0.000821679
0.00029841
0.000222179
6.18996e-05
3.89768e-05
-6.32539e-06
-1.27839e-05
-2.5277e-05
-2.70616e-05
-3.04973e-05
-3.09945e-05
-3.19619e-05
-3.21642e-05
-3.28724e-05
-3.36813e-05
-3.93387e-05
-6.48272e-05
-3.91517e-05
-3.30177e-05
-3.21505e-05
-3.1326e-05
-3.12262e-05
-3.12259e-05
-3.1218e-05
-3.11313e-05
-3.10953e-05
-3.08323e-05
-3.07749e-05
-3.04938e-05
-3.04489e-05
-3.0302e-05
-3.02496e-05
-2.99064e-05
-2.97592e-05
-2.87685e-05
-2.82341e-05
-2.41216e-05
-2.40359e-05
-2.73479e-05
-2.7751e-05
-2.83171e-05
-2.84218e-05
-2.87531e-05
-2.90093e-05
-3.08661e-05
-3.20063e-05
-3.99739e-05
-4.47284e-05
-7.73828e-05
-9.9248e-05
-0.000250598
-0.000367271
-0.00118229
-0.00188301
-0.00676516
-0.0115998
-0.0461685
-0.138492
-0.138386
-0.299554
-0.360834
-0.767561
-0.740811
-0.0872502
-0.0149341
-0.00313386
-47.4329
44.2141
1.86556
0.609427
0.546331
0.187571
0.167526
0.0553405
0.0490749
0.0149051
0.0130286
0.00329002
0.00279694
0.00105026
0.000945169
0.000292102
0.000256328
5.67281e-05
4.59798e-05
-1.02545e-05
-1.32779e-05
-2.87569e-05
-2.95912e-05
-3.3838e-05
-3.40696e-05
-3.52485e-05
-3.53395e-05
-3.61089e-05
-3.64487e-05
-4.16458e-05
-7.68008e-05
-4.14535e-05
-3.56406e-05
-3.52716e-05
-3.43246e-05
-3.42802e-05
-3.42876e-05
-3.42838e-05
-3.41678e-05
-3.41503e-05
-3.38082e-05
-3.37805e-05
-3.34159e-05
-3.33942e-05
-3.32062e-05
-3.31812e-05
-3.27479e-05
-3.26787e-05
-3.14481e-05
-3.11885e-05
-2.57466e-05
-2.57055e-05
-3.01171e-05
-3.03137e-05
-3.09988e-05
-3.10467e-05
-3.14305e-05
-3.15478e-05
-3.3799e-05
-3.43239e-05
-4.39994e-05
-4.61773e-05
-8.54116e-05
-9.53424e-05
-0.000274528
-0.000327065
-0.00127844
-0.00159076
-0.00718135
-0.00929697
-0.0457949
-0.163165
-0.138729
-0.342313
-0.371811
-0.907504
-0.894679
-0.0400157
-0.00538356
-0.00109116
-44.7996
44.1971
1.86963
0.612874
0.549686
0.189174
0.169017
0.0559146
0.0495973
0.0151206
0.0132262
0.00338197
0.00288277
0.00110099
0.000993937
0.000328092
0.000291698
8.93554e-05
7.85038e-05
2.23582e-05
1.93486e-05
4.04396e-06
3.22276e-06
-9.38359e-07
-1.16182e-06
-2.28006e-06
-2.34973e-06
-2.85707e-06
-2.91574e-06
-3.5979e-06
-6.76165e-06
-3.72158e-06
-3.08625e-06
-3.04358e-06
-2.83648e-06
-2.83058e-06
-2.89934e-06
-2.91479e-06
-3.21563e-06
-3.23968e-06
-3.51903e-06
-3.53485e-06
-3.63206e-06
-3.63641e-06
-3.63124e-06
-3.63668e-06
-3.76638e-06
-3.77244e-06
-3.7964e-06
-3.77426e-06
-3.16272e-06
-3.1624e-06
-3.75319e-06
-3.79315e-06
-4.19919e-06
-4.25071e-06
-5.04053e-06
-5.18212e-06
-7.65448e-06
-8.16519e-06
-1.73485e-05
-1.94455e-05
-5.73688e-05
-6.72147e-05
-0.000246075
-0.000298723
-0.00125507
-0.00156489
-0.00709698
-0.00919165
-0.0453139
-0.161646
-0.137541
-0.340296
-0.369722
-0.904393
-0.891644
-0.039882
-0.00536683
-0.00107868
-44.8137
46.9332
1.54847
0.611743
0.481787
0.191759
0.148607
0.0571402
0.0435772
0.015686
0.01162
0.00365553
0.00258151
0.00109697
0.000864751
0.00033151
0.00025398
9.15623e-05
6.8424e-05
2.31986e-05
1.67706e-05
4.42817e-06
2.67305e-06
-6.85542e-07
-1.16375e-06
-2.07108e-06
-2.22089e-06
-2.63532e-06
-2.76846e-06
-3.4556e-06
-5.79496e-06
-3.56274e-06
-2.92553e-06
-2.8277e-06
-2.6596e-06
-2.64687e-06
-2.70206e-06
-2.73479e-06
-2.97145e-06
-3.02229e-06
-3.2426e-06
-3.27621e-06
-3.355e-06
-3.36466e-06
-3.3643e-06
-3.37601e-06
-3.47697e-06
-3.48944e-06
-3.50451e-06
-3.45959e-06
-3.00218e-06
-3.00198e-06
-3.44934e-06
-3.53273e-06
-3.86051e-06
-3.9714e-06
-4.61349e-06
-4.91932e-06
-6.94016e-06
-8.04784e-06
-1.56086e-05
-2.01872e-05
-5.17742e-05
-7.34461e-05
-0.000224436
-0.000341265
-0.00115924
-0.00185435
-0.0066868
-0.0114743
-0.0456986
-0.137216
-0.137258
-0.297787
-0.358917
-0.764876
-0.738284
-0.086957
-0.0148918
-0.00310167
-47.4455
49.6663
1.27333
0.578843
0.420733
0.184728
0.130353
0.0553664
0.0382283
0.0153423
0.0102047
0.00366632
0.00230633
0.00104759
0.000751479
0.000318346
0.000220958
8.87233e-05
5.96359e-05
2.26616e-05
1.45691e-05
4.46447e-06
2.25357e-06
-4.98319e-07
-1.10131e-06
-1.84879e-06
-2.03839e-06
-2.38218e-06
-2.55639e-06
-3.20279e-06
-4.93333e-06
-3.29486e-06
-2.69854e-06
-2.56976e-06
-2.43087e-06
-2.41468e-06
-2.45913e-06
-2.49996e-06
-2.68745e-06
-2.75077e-06
-2.9259e-06
-2.96796e-06
-3.03249e-06
-3.045e-06
-3.04797e-06
-3.06278e-06
-3.14167e-06
-3.15685e-06
-3.16522e-06
-3.11112e-06
-2.76897e-06
-2.76924e-06
-3.10919e-06
-3.21209e-06
-3.47998e-06
-3.62035e-06
-4.14994e-06
-4.53838e-06
-6.21618e-06
-7.6282e-06
-1.39581e-05
-1.98273e-05
-4.66155e-05
-7.45838e-05
-0.00020451
-0.000356284
-0.00107002
-0.00198088
-0.00628682
-0.0125927
-0.0438381
-0.116569
-0.130665
-0.259426
-0.334481
-0.642698
-0.609933
-0.110864
-0.0220055
-0.00476524
-50.0839
52.3942
1.03617
0.524944
0.363179
0.170668
0.113118
0.051387
0.033194
0.0143303
0.00887598
0.00348251
0.00203565
0.000964131
0.000647032
0.000293308
0.00019045
8.22553e-05
5.15136e-05
2.11303e-05
1.25652e-05
4.24974e-06
1.90849e-06
-3.57845e-07
-9.96932e-07
-1.61572e-06
-1.81734e-06
-2.10386e-06
-2.29359e-06
-2.87258e-06
-4.15059e-06
-2.95071e-06
-2.41948e-06
-2.27867e-06
-2.16312e-06
-2.14578e-06
-2.18149e-06
-2.22427e-06
-2.37299e-06
-2.43926e-06
-2.57872e-06
-2.62293e-06
-2.67588e-06
-2.68944e-06
-2.69445e-06
-2.71015e-06
-2.77176e-06
-2.78728e-06
-2.79095e-06
-2.73609e-06
-2.48079e-06
-2.48157e-06
-2.73997e-06
-2.84681e-06
-3.06646e-06
-3.2157e-06
-3.65443e-06
-4.06882e-06
-5.4685e-06
-6.98009e-06
-1.23059e-05
-1.8622e-05
-4.14511e-05
-7.17359e-05
-0.000184026
-0.000349371
-0.000974455
-0.0019743
-0.00581457
-0.0127274
-0.0403618
-0.0983713
-0.119588
-0.22336
-0.300856
-0.534192
-0.500248
-0.118366
-0.0262498
-0.00590398
-52.728
55.1159
0.829854
0.45747
0.307186
0.15142
0.0962169
0.0457635
0.0282593
0.0128196
0.00757092
0.00315252
0.00175743
0.000854505
0.000546912
0.000259652
0.000161116
7.31418e-05
4.36755e-05
1.88696e-05
1.06489e-05
3.85031e-06
1.60205e-06
-2.52065e-07
-8.66226e-07
-1.3748e-06
-1.56911e-06
-1.80608e-06
-1.99211e-06
-2.48924e-06
-3.42758e-06
-2.55425e-06
-2.10053e-06
-1.96214e-06
-1.86658e-06
-1.84972e-06
-1.87813e-06
-1.91875e-06
-2.03594e-06
-2.09884e-06
-2.20916e-06
-2.2513e-06
-2.29439e-06
-2.30766e-06
-2.31362e-06
-2.32869e-06
-2.37646e-06
-2.39086e-06
-2.39149e-06
-2.3409e-06
-2.15174e-06
-2.15293e-06
-2.34831e-06
-2.44902e-06
-2.62776e-06
-2.77155e-06
-3.13232e-06
-3.53286e-06
-4.69158e-06
-6.1574e-06
-1.06017e-05
-1.6756e-05
-3.60305e-05
-6.57052e-05
-0.000161707
-0.000324605
-0.000865289
-0.00185675
-0.00522643
-0.0120468
-0.0357102
-0.0817319
-0.105298
-0.188471
-0.261112
-0.436409
-0.404489
-0.114284
-0.0276161
-0.00642692
-55.3771
57.8315
0.648125
0.381458
0.25169
0.128332
0.0792658
0.0389067
0.0233032
0.0109346
0.00625471
0.00271202
0.00146591
0.00072458
0.000448384
0.00021969
0.000132166
6.20852e-05
3.59007e-05
1.60694e-05
8.75546e-06
3.31334e-06
1.31219e-06
-1.7279e-07
-7.19791e-07
-1.12869e-06
-1.30217e-06
-1.49376e-06
-1.66185e-06
-2.07026e-06
-2.74991e-06
-2.12276e-06
-1.75182e-06
-1.62659e-06
-1.54926e-06
-1.5341e-06
-1.5562e-06
-1.59199e-06
-1.68265e-06
-1.73803e-06
-1.8237e-06
-1.86093e-06
-1.89523e-06
-1.90723e-06
-1.91325e-06
-1.92664e-06
-1.96303e-06
-1.97546e-06
-1.97437e-06
-1.93097e-06
-1.79289e-06
-1.79429e-06
-1.93987e-06
-2.02804e-06
-2.17041e-06
-2.29873e-06
-2.58892e-06
-2.94744e-06
-3.88506e-06
-5.2009e-06
-8.82233e-06
-1.43703e-05
-3.02342e-05
-5.71161e-05
-0.000136965
-0.000285229
-0.000739318
-0.00164654
-0.0045065
-0.0107052
-0.0301991
-0.066062
-0.0887031
-0.154109
-0.217355
-0.346943
-0.31907
-0.102069
-0.0263561
-0.00631512
-58.0302
60.5417
0.48548
0.300254
0.196163
0.102424
0.0620804
0.0311304
0.0182676
0.00876984
0.00491108
0.00218853
0.00115949
0.000579003
0.00034992
0.000175125
0.000103178
4.96063e-05
2.8075e-05
1.28711e-05
6.85079e-06
2.67406e-06
1.02624e-06
-1.13942e-07
-5.64593e-07
-8.79508e-07
-1.02272e-06
-1.17095e-06
-1.31083e-06
-1.62802e-06
-2.10632e-06
-1.66845e-06
-1.38158e-06
-1.27728e-06
-1.21738e-06
-1.20476e-06
-1.2213e-06
-1.2505e-06
-1.31807e-06
-1.36324e-06
-1.42731e-06
-1.45778e-06
-1.48397e-06
-1.49397e-06
-1.49934e-06
-1.51034e-06
-1.53711e-06
-1.54707e-06
-1.54527e-06
-1.51064e-06
-1.41287e-06
-1.41424e-06
-1.51934e-06
-1.59094e-06
-1.6997e-06
-1.80558e-06
-2.02915e-06
-2.32573e-06
-3.05173e-06
-4.14289e-06
-6.96306e-06
-1.15799e-05
-2.40337e-05
-4.64943e-05
-0.000109703
-0.000234063
-0.000596266
-0.00136043
-0.00365838
-0.00884287
-0.0240626
-0.0509782
-0.0704624
-0.119918
-0.17102
-0.2638
-0.241223
-0.084213
-0.0228636
-0.00560956
-60.6868
63.2474
0.337037
0.216028
0.140397
0.0744984
0.044608
0.0226865
0.0131362
0.00640171
0.00353609
0.0016044
0.000839303
0.000421713
0.000250812
0.000127275
7.39674e-05
3.61103e-05
2.01538e-05
9.38599e-06
4.92091e-06
1.96042e-06
7.37915e-07
-7.05143e-08
-4.04976e-07
-6.28766e-07
-7.3522e-07
-8.40921e-07
-9.45426e-07
-1.17118e-06
-1.48763e-06
-1.19985e-06
-9.96367e-07
-9.18409e-07
-8.7564e-07
-8.66206e-07
-8.77688e-07
-8.99184e-07
-9.46003e-07
-9.79259e-07
-1.02377e-06
-1.04625e-06
-1.06473e-06
-1.07221e-06
-1.07642e-06
-1.08457e-06
-1.10291e-06
-1.11014e-06
-1.10837e-06
-1.0833e-06
-1.01832e-06
-1.01947e-06
-1.09047e-06
-1.14301e-06
-1.21982e-06
-1.29848e-06
-1.45741e-06
-1.67821e-06
-2.19627e-06
-3.01017e-06
-5.03133e-06
-8.48444e-06
-1.74637e-05
-3.43149e-05
-8.01696e-05
-0.000173748
-0.00043798
-0.00101477
-0.00269915
-0.00658833
-0.0174815
-0.0362357
-0.0510741
-0.0857278
-0.123074
-0.185292
-0.168758
-0.0625401
-0.0176034
-0.00439763
-63.3458
65.9498
0.198396
0.130146
0.084366
0.0452185
0.02688
0.0137881
0.00791998
0.00389486
0.00213383
0.000978781
0.000508215
0.000256252
0.000150899
7.72146e-05
4.45051e-05
2.19295e-05
1.21373e-05
5.70666e-06
2.96503e-06
1.196e-06
4.45209e-07
-3.79684e-08
-2.43427e-07
-3.77379e-07
-4.42841e-07
-5.06261e-07
-5.70706e-07
-7.05688e-07
-8.85963e-07
-7.22804e-07
-6.01436e-07
-5.53345e-07
-5.27661e-07
-5.21835e-07
-5.28596e-07
-5.41728e-07
-5.69271e-07
-5.89587e-07
-6.15819e-07
-6.29577e-07
-6.40585e-07
-6.45208e-07
-6.47873e-07
-6.52869e-07
-6.63578e-07
-6.67952e-07
-6.66703e-07
-6.51568e-07
-6.14439e-07
-6.15199e-07
-6.56256e-07
-6.88281e-07
-7.34053e-07
-7.82409e-07
-8.77563e-07
-1.01348e-06
-1.32444e-06
-1.82611e-06
-3.04283e-06
-5.17519e-06
-1.06021e-05
-2.10299e-05
-4.88562e-05
-0.00010688
-0.000267811
-0.00062618
-0.00165494
-0.00406044
-0.0106028
-0.0216809
-0.0309302
-0.0514761
-0.0741747
-0.109949
-0.0998857
-0.038425
-0.0110717
-0.00280038
-66.0068
68.6502
0.0655013
0.043461
0.0281448
0.0151579
0.00898008
0.00462499
0.00264666
0.00130715
0.000713391
0.000328919
0.000170196
8.59515e-05
5.03747e-05
2.58775e-05
1.48575e-05
7.35301e-06
4.05376e-06
1.91455e-06
9.90567e-07
4.01917e-07
1.4886e-07
-1.19345e-08
-8.11944e-08
-1.25804e-07
-1.47883e-07
-1.69032e-07
-1.90789e-07
-2.35696e-07
-2.94233e-07
-2.41385e-07
-2.01063e-07
-1.8482e-07
-1.76252e-07
-1.74283e-07
-1.76516e-07
-1.8093e-07
-1.90023e-07
-1.96852e-07
-2.0552e-07
-2.10149e-07
-2.13805e-07
-2.15368e-07
-2.1628e-07
-2.17963e-07
-2.21485e-07
-2.22948e-07
-2.225e-07
-2.17443e-07
-2.05369e-07
-2.05634e-07
-2.1907e-07
-2.29823e-07
-2.45033e-07
-2.61339e-07
-2.93032e-07
-3.38897e-07
-4.42603e-07
-6.11998e-07
-1.01837e-06
-1.73906e-06
-3.55518e-06
-7.08329e-06
-1.6414e-05
-3.60653e-05
-9.01257e-05
-0.000211619
-0.000557649
-0.00137125
-0.00355288
-0.0072179
-0.0103565
-0.0171662
-0.0247764
-0.0364478
-0.0330717
-0.0129527
-0.00377557
-0.000961428
-68.6688
68.6507
0.0666334
0.0432243
0.0273671
0.014486
0.00843678
0.00423185
0.00233031
0.00105252
0.000514394
0.0002183
9.48569e-05
1.61175e-05
-1.47579e-05
-2.81205e-05
-3.04249e-05
-2.65203e-05
-2.26788e-05
-1.71837e-05
-1.36941e-05
-9.94606e-06
-7.7944e-06
-5.71189e-06
-4.57237e-06
-3.53374e-06
-2.99186e-06
-2.54781e-06
-2.42111e-06
-2.55974e-06
-2.95967e-06
-2.32738e-06
-1.89281e-06
-1.73452e-06
-1.67678e-06
-1.66375e-06
-1.6702e-06
-1.67553e-06
-1.68089e-06
-1.68586e-06