/*--------------------------------*- C++ -*----------------------------------*\
| =========                 |                                                 |
| \\      /  F ield         | OpenFOAM: The Open Source CFD Toolbox           |
|  \\    /   O peration     | Version:  5.x                                   |
|   \\  /    A nd           | Web:      www.OpenFOAM.org                      |
|    \\/     M anipulation  |                                                 |
\*---------------------------------------------------------------------------*/
FoamFile
{
    version     2.0;
    format      ascii;
    class       volScalarField;
    location    "0.1";
    object      T;
}
// * * * * * * * * * * * * * * * * * * * * * * * * * * * * * * * * * * * * * //

dimensions      [0 0 0 1 0 0 0];

internalField   nonuniform List<scalar> 
3200
(
2.11811
2.30064
2.30998
2.36013
2.36293
2.378
2.37883
2.38301
2.38323
2.38415
2.38419
2.38429
2.3843
2.38426
2.38426
2.3842
2.3842
2.38416
2.38415
2.38413
2.38413
2.38412
2.38412
2.38411
2.38411
2.38411
2.38411
2.38411
2.38411
2.38411
2.38411
2.38411
2.38411
2.38411
2.38411
2.38411
2.38411
2.38411
2.38411
2.38411
2.38411
2.38411
2.3841
2.3841
2.3841
2.3841
2.3841
2.3841
2.3841
2.3841
2.3841
2.3841
2.38409
2.38409
2.38408
2.38408
2.38406
2.38406
2.38403
2.38402
2.38395
2.38394
2.3838
2.38378
2.38349
2.38345
2.38281
2.3827
2.38091
2.38049
2.37334
2.35703
2.35479
2.31813
2.3132
2.22959
2.22612
2.22568
2.22559
2.22558
2.27664
2.41589
2.43534
2.47588
2.48187
2.49408
2.49586
2.49925
2.49972
2.50047
2.50057
2.50066
2.50066
2.50063
2.50063
2.50058
2.50057
2.50054
2.50054
2.50052
2.50052
2.50051
2.50051
2.5005
2.5005
2.5005
2.5005
2.5005
2.5005
2.5005
2.5005
2.5005
2.5005
2.5005
2.50049
2.50049
2.50049
2.50049
2.50049
2.50049
2.50049
2.50049
2.50049
2.50049
2.50049
2.50049
2.50049
2.50049
2.50049
2.50049
2.50049
2.50049
2.50048
2.50048
2.50048
2.50047
2.50046
2.50045
2.50042
2.50041
2.50036
2.50034
2.50023
2.50019
2.49996
2.49987
2.49935
2.49912
2.49763
2.49668
2.49021
2.4769
2.4721
2.44283
2.43247
2.36759
2.36027
2.35906
2.35881
2.35876
2.4298
2.53621
2.56015
2.59332
2.60088
2.61092
2.61316
2.61596
2.61656
2.61718
2.6173
2.61738
2.61739
2.61737
2.61736
2.61732
2.61731
2.61729
2.61728
2.61726
2.61726
2.61725
2.61725
2.61725
2.61725
2.61724
2.61724
2.61724
2.61724
2.61724
2.61724
2.61724
2.61724
2.61724
2.61724
2.61724
2.61724
2.61724
2.61724
2.61724
2.61724
2.61724
2.61724
2.61724
2.61724
2.61724
2.61724
2.61724
2.61724
2.61724
2.61724
2.61723
2.61723
2.61723
2.61722
2.61722
2.61721
2.6172
2.61718
2.61717
2.61712
2.6171
2.61701
2.61696
2.61677
2.61666
2.61624
2.61594
2.61468
2.61345
2.60771
2.59676
2.59072
2.56709
2.55423
2.50361
2.49451
2.49273
2.49234
2.49226
2.57887
2.66006
2.68484
2.71206
2.72008
2.72836
2.73075
2.73306
2.7337
2.73422
2.73435
2.73442
2.73443
2.73441
2.7344
2.73437
2.73436
2.73434
2.73433
2.73432
2.73432
2.73431
2.73431
2.73431
2.73431
2.7343
2.7343
2.7343
2.7343
2.7343
2.7343
2.7343
2.7343
2.7343
2.7343
2.7343
2.7343
2.7343
2.7343
2.7343
2.7343
2.7343
2.7343
2.7343
2.7343
2.7343
2.7343
2.7343
2.7343
2.7343
2.7343
2.7343
2.73429
2.73429
2.73429
2.73428
2.73427
2.73427
2.73425
2.73424
2.7342
2.73417
2.7341
2.73405
2.7339
2.73378
2.73343
2.73311
2.73204
2.7307
2.72572
2.71671
2.71034
2.6912
2.67778
2.63825
2.62873
2.62664
2.62615
2.62605
2.72485
2.78636
2.80964
2.8318
2.83952
2.8463
2.8486
2.8505
2.85111
2.85155
2.85167
2.85173
2.85174
2.85173
2.85172
2.8517
2.85169
2.85167
2.85166
2.85165
2.85165
2.85164
2.85164
2.85164
2.85164
2.85164
2.85164
2.85164
2.85164
2.85164
2.85164
2.85164
2.85164
2.85164
2.85164
2.85164
2.85164
2.85164
2.85164
2.85164
2.85163
2.85163
2.85163
2.85163
2.85163
2.85163
2.85163
2.85163
2.85163
2.85163
2.85163
2.85163
2.85163
2.85163
2.85162
2.85162
2.85161
2.85161
2.85159
2.85158
2.85155
2.85152
2.85147
2.85142
2.85129
2.85118
2.8509
2.85058
2.84969
2.84837
2.84415
2.83683
2.83072
2.81532
2.80263
2.77195
2.76292
2.76072
2.7602
2.76009
2.8685
2.91437
2.93468
2.95233
2.9592
2.96464
2.96669
2.96822
2.96876
2.96912
2.96923
2.96928
2.96929
2.96928
2.96927
2.96925
2.96924
2.96923
2.96922
2.96922
2.96921
2.96921
2.96921
2.96921
2.9692
2.9692
2.9692
2.9692
2.9692
2.9692
2.9692
2.9692
2.9692
2.9692
2.9692
2.9692
2.9692
2.9692
2.9692
2.9692
2.9692
2.9692
2.9692
2.9692
2.9692
2.9692
2.9692
2.9692
2.9692
2.9692
2.9692
2.9692
2.9692
2.96919
2.96919
2.96919
2.96918
2.96918
2.96917
2.96915
2.96913
2.96911
2.96906
2.96902
2.96892
2.96882
2.96859
2.96831
2.96758
2.96639
2.96294
2.95711
2.95169
2.93955
2.9284
2.90499
2.89704
2.89496
2.89445
2.89434
3.01043
3.04354
3.05998
3.07346
3.07911
3.08329
3.08498
3.08616
3.08661
3.08688
3.08698
3.08702
3.08702
3.08702
3.08701
3.087
3.08699
3.08698
3.08698
3.08697
3.08697
3.08696
3.08696
3.08696
3.08696
3.08696
3.08696
3.08696
3.08696
3.08696
3.08696
3.08696
3.08696
3.08696
3.08696
3.08696
3.08696
3.08696
3.08696
3.08696
3.08696
3.08696
3.08696
3.08696
3.08696
3.08696
3.08696
3.08696
3.08696
3.08696
3.08696
3.08696
3.08695
3.08695
3.08695
3.08695
3.08694
3.08694
3.08693
3.08692
3.0869
3.08689
3.08685
3.08682
3.08674
3.08666
3.08648
3.08625
3.08567
3.08469
3.082
3.07756
3.07311
3.06391
3.05483
3.03758
3.0311
3.0293
3.02885
3.02875
3.15113
3.17348
3.18551
3.19502
3.19922
3.20218
3.20344
3.20427
3.20461
3.20481
3.20488
3.2049
3.20491
3.20491
3.2049
3.20489
3.20489
3.20488
3.20488
3.20487
3.20487
3.20487
3.20487
3.20487
3.20487
3.20487
3.20486
3.20486
3.20486
3.20486
3.20486
3.20486
3.20486
3.20486
3.20486
3.20486
3.20486
3.20486
3.20486
3.20486
3.20486
3.20486
3.20486
3.20486
3.20486
3.20486
3.20486
3.20486
3.20486
3.20486
3.20486
3.20486
3.20486
3.20486
3.20486
3.20486
3.20485
3.20485
3.20484
3.20484
3.20482
3.20481
3.20479
3.20476
3.20471
3.20465
3.20452
3.20435
3.20393
3.20319
3.20128
3.19815
3.19486
3.1884
3.18173
3.16988
3.16511
3.16373
3.16338
3.1633
3.291
3.30391
3.31123
3.31689
3.31947
3.32124
3.32202
3.32252
3.32272
3.32284
3.32288
3.3229
3.3229
3.3229
3.3229
3.32289
3.32289
3.32289
3.32288
3.32288
3.32288
3.32288
3.32288
3.32288
3.32288
3.32288
3.32288
3.32288
3.32288
3.32288
3.32288
3.32288
3.32288
3.32288
3.32288
3.32288
3.32288
3.32288
3.32288
3.32288
3.32288
3.32288
3.32288
3.32288
3.32288
3.32288
3.32288
3.32288
3.32288
3.32287
3.32287
3.32287
3.32287
3.32287
3.32287
3.32287
3.32287
3.32287
3.32286
3.32286
3.32285
3.32284
3.32283
3.32281
3.32278
3.32275
3.32267
3.32256
3.32231
3.32186
3.32071
3.31884
3.31683
3.313
3.30892
3.302
3.29908
3.29822
3.29799
3.29794
3.43038
3.43461
3.43706
3.43895
3.43981
3.4404
3.44066
3.44083
3.4409
3.44094
3.44095
3.44096
3.44096
3.44096
3.44096
3.44096
3.44096
3.44095
3.44095
3.44095
3.44095
3.44095
3.44095
3.44095
3.44095
3.44095
3.44095
3.44095
3.44095
3.44095
3.44095
3.44095
3.44095
3.44095
3.44095
3.44095
3.44095
3.44095
3.44095
3.44095
3.44095
3.44095
3.44095
3.44095
3.44095
3.44095
3.44095
3.44095
3.44095
3.44095
3.44095
3.44095
3.44095
3.44095
3.44095
3.44095
3.44095
3.44095
3.44095
3.44095
3.44094
3.44094
3.44094
3.44093
3.44092
3.44091
3.44088
3.44085
3.44076
3.44061
3.44023
3.43961
3.43893
3.43766
3.43629
3.43401
3.43303
3.43274
3.43266
3.43264
3.4305
3.43461
3.43703
3.43894
3.43983
3.44044
3.44072
3.4409
3.44098
3.44103
3.44105
3.44106
3.44107
3.44107
3.44107
3.44107
3.44107
3.44107
3.44107
3.44107
3.44107
3.44107
3.44107
3.44107
3.44107
3.44107
3.44107
3.44107
3.44107
3.44107
3.44107
3.44107
3.44107
3.44107
3.44107
3.44107
3.44107
3.44107
3.44107
3.44107
3.44107
3.44107
3.44107
3.44107
3.44107
3.44107
3.44107
3.44107
3.44107
3.44107
3.44107
3.44107
3.44107
3.44107
3.44107
3.44107
3.44107
3.44107
3.44107
3.44107
3.44107
3.44107
3.44107
3.44107
3.44107
3.44106
3.44106
3.44104
3.441
3.4409
3.44064
3.44018
3.4396
3.43845
3.43711
3.43479
3.43379
3.43349
3.43341
3.43339
3.29134
3.30391
3.31112
3.31687
3.31951
3.32136
3.32218
3.32273
3.32296
3.32311
3.32317
3.32321
3.32322
3.32323
3.32324
3.32324
3.32324
3.32324
3.32324
3.32324
3.32324
3.32324
3.32324
3.32324
3.32324
3.32324
3.32324
3.32324
3.32324
3.32324
3.32324
3.32324
3.32324
3.32324
3.32324
3.32324
3.32324
3.32324
3.32324
3.32324
3.32323
3.32323
3.32323
3.32323
3.32323
3.32323
3.32323
3.32323
3.32323
3.32323
3.32323
3.32323
3.32323
3.32323
3.32323
3.32323
3.32323
3.32323
3.32323
3.32323
3.32323
3.32323
3.32323
3.32323
3.32322
3.32321
3.32319
3.32315
3.32303
3.32274
3.32196
3.32055
3.31884
3.31538
3.31139
3.30434
3.30137
3.30048
3.30026
3.3002
3.15171
3.17347
3.18533
3.19498
3.19929
3.20238
3.20371
3.20463
3.20501
3.20526
3.20536
3.20542
3.20544
3.20546
3.20547
3.20547
3.20547
3.20547
3.20548
3.20547
3.20547
3.20547
3.20547
3.20547
3.20547
3.20547
3.20547
3.20547
3.20547
3.20547
3.20547
3.20547
3.20547
3.20547
3.20547
3.20547
3.20547
3.20547
3.20547
3.20546
3.20546
3.20546
3.20546
3.20546
3.20546
3.20546
3.20546
3.20546
3.20546
3.20546
3.20546
3.20546
3.20546
3.20546
3.20546
3.20546
3.20546
3.20546
3.20546
3.20546
3.20545
3.20545
3.20545
3.20545
3.20544
3.20543
3.2054
3.20533
3.20513
3.20466
3.20336
3.20101
3.19822
3.19239
3.18585
3.17379
3.16891
3.16751
3.16715
3.16707
3.01129
3.04351
3.05971
3.07341
3.07921
3.08358
3.08537
3.08666
3.08718
3.08753
3.08766
3.08774
3.08777
3.0878
3.08781
3.08781
3.08782
3.08782
3.08782
3.08782
3.08782
3.08782
3.08782
3.08782
3.08782
3.08781
3.08781
3.08781
3.08781
3.08781
3.08781
3.08781
3.08781
3.08781
3.08781
3.08781
3.08781
3.08781
3.0878
3.0878
3.0878
3.0878
3.0878
3.0878
3.0878
3.0878
3.0878
3.0878
3.0878
3.0878
3.0878
3.0878
3.0878
3.0878
3.08779
3.08779
3.08779
3.08779
3.08779
3.08779
3.08779
3.08779
3.08779
3.08778
3.08777
3.08776
3.08771
3.08762
3.08734
3.08673
3.08491
3.08158
3.07782
3.06952
3.06063
3.04304
3.03642
3.03459
3.03413
3.03403
2.86966
2.91429
2.93431
2.95228
2.95933
2.96502
2.96719
2.96887
2.9695
2.96995
2.97012
2.97022
2.97026
2.97029
2.9703
2.97031
2.97031
2.97031
2.97031
2.97031
2.97031
2.97031
2.97031
2.97031
2.97031
2.97031
2.97031
2.97031
2.97031
2.9703
2.9703
2.9703
2.9703
2.9703
2.9703
2.9703
2.9703
2.9703
2.9703
2.9703
2.97029
2.97029
2.97029
2.97029
2.97029
2.97029
2.97029
2.97029
2.97029
2.97029
2.97029
2.97029
2.97028
2.97028
2.97028
2.97028
2.97028
2.97028
2.97028
2.97028
2.97028
2.97028
2.97027
2.97027
2.97026
2.97024
2.97018
2.97007
2.96973
2.96899
2.96668
2.96233
2.95774
2.94683
2.9359
2.912
2.90388
2.90176
2.90124
2.90113
2.72636
2.7862
2.80914
2.83175
2.83968
2.84679
2.84922
2.85132
2.85202
2.85258
2.85277
2.85289
2.85294
2.85298
2.85299
2.853
2.853
2.853
2.85301
2.853
2.853
2.853
2.853
2.853
2.853
2.853
2.853
2.853
2.853
2.85299
2.85299
2.85299
2.85299
2.85299
2.85299
2.85299
2.85299
2.85299
2.85298
2.85298
2.85298
2.85298
2.85298
2.85298
2.85298
2.85298
2.85298
2.85297
2.85297
2.85297
2.85297
2.85297
2.85297
2.85297
2.85297
2.85297
2.85297
2.85297
2.85296
2.85296
2.85296
2.85296
2.85296
2.85295
2.85294
2.85292
2.85285
2.85273
2.85232
2.85151
2.84872
2.84327
2.83811
2.82431
2.81187
2.78051
2.77128
2.76904
2.76851
2.76839
2.58081
2.65976
2.68418
2.71203
2.72028
2.72897
2.7315
2.73405
2.73478
2.73547
2.73566
2.73581
2.73585
2.7359
2.73592
2.73593
2.73593
2.73593
2.73594
2.73593
2.73593
2.73593
2.73593
2.73593
2.73593
2.73593
2.73593
2.73593
2.73592
2.73592
2.73592
2.73592
2.73592
2.73592
2.73591
2.73591
2.73591
2.73591
2.73591
2.73591
2.73591
2.73591
2.73591
2.7359
2.7359
2.7359
2.7359
2.7359
2.7359
2.7359
2.7359
2.7359
2.73589
2.73589
2.73589
2.73589
2.73589
2.73589
2.73589
2.73589
2.73588
2.73588
2.73588
2.73587
2.73586
2.73584
2.73576
2.73564
2.73517
2.73435
2.73109
2.72442
2.71904
2.70196
2.68881
2.64834
2.63861
2.63647
2.63598
2.63587
2.43226
2.53571
2.55929
2.59332
2.60112
2.61166
2.61404
2.61714
2.61782
2.61865
2.61883
2.61901
2.61905
2.61911
2.61912
2.61914
2.61914
2.61915
2.61915
2.61915
2.61915
2.61914
2.61914
2.61914
2.61914
2.61914
2.61914
2.61913
2.61913
2.61913
2.61913
2.61913
2.61913
2.61912
2.61912
2.61912
2.61912
2.61912
2.61912
2.61912
2.61911
2.61911
2.61911
2.61911
2.61911
2.61911
2.61911
2.61911
2.6191
2.6191
2.6191
2.6191
2.6191
2.6191
2.6191
2.6191
2.61909
2.61909
2.61909
2.61909
2.61909
2.61909
2.61908
2.61908
2.61906
2.61904
2.61895
2.61884
2.61831
2.61756
2.61388
2.6058
2.60071
2.5797
2.56709
2.51521
2.50589
2.50408
2.50368
2.5036
2.27975
2.41509
2.43425
2.47596
2.48213
2.49498
2.49687
2.50064
2.50118
2.50218
2.50232
2.50254
2.50257
2.50264
2.50265
2.50267
2.50268
2.50268
2.50268
2.50268
2.50268
2.50268
2.50268
2.50267
2.50267
2.50267
2.50267
2.50267
2.50267
2.50266
2.50266
2.50266
2.50266
2.50266
2.50265
2.50265
2.50265
2.50265
2.50265
2.50265
2.50264
2.50264
2.50264
2.50264
2.50264
2.50264
2.50264
2.50264
2.50263
2.50263
2.50263
2.50263
2.50263
2.50263
2.50262
2.50262
2.50262
2.50262
2.50262
2.50262
2.50261
2.50261
2.50261
2.5026
2.50258
2.50257
2.50246
2.50238
2.50179
2.50122
2.49717
2.48737
2.48333
2.45741
2.44725
2.38066
2.37317
2.37193
2.37167
2.37162
2.12203
2.29939
2.30858
2.36033
2.36321
2.37909
2.37997
2.38462
2.38487
2.38611
2.38618
2.38644
2.38646
2.38655
2.38655
2.38658
2.38658
2.38658
2.38658
2.38658
2.38658
2.38658
2.38658
2.38657
2.38657
2.38657
2.38657
2.38657
2.38657
2.38656
2.38656
2.38656
2.38656
2.38655
2.38655
2.38655
2.38655
2.38655
2.38654
2.38654
2.38654
2.38654
2.38654
2.38654
2.38653
2.38653
2.38653
2.38653
2.38653
2.38653
2.38653
2.38653
2.38652
2.38652
2.38652
2.38652
2.38652
2.38652
2.38651
2.38651
2.38651
2.38651
2.3865
2.3865
2.38647
2.38647
2.38634
2.38631
2.38563
2.38538
2.38105
2.36906
2.36717
2.33483
2.32999
2.24408
2.24053
2.24008
2.23999
2.23997
2.12098
2.29872
2.30795
2.36001
2.36291
2.37893
2.37982
2.38452
2.38478
2.38603
2.3861
2.38637
2.38639
2.38648
2.38649
2.38651
2.38652
2.38652
2.38652
2.38652
2.38652
2.38653
2.38653
2.38653
2.38653
2.38652
2.38652
2.38652
2.38652
2.38652
2.38652
2.38652
2.38652
2.38652
2.38652
2.38652
2.38652
2.38652
2.38652
2.38652
2.38652
2.38652
2.38652
2.38652
2.38652
2.38652
2.38652
2.38652
2.38652
2.38652
2.38652
2.38652
2.38652
2.38652
2.38652
2.38652
2.38652
2.38652
2.38652
2.38652
2.38652
2.38652
2.38651
2.38651
2.38649
2.38648
2.38636
2.38632
2.38565
2.3854
2.38112
2.36924
2.36737
2.33521
2.33039
2.24477
2.24123
2.24078
2.24069
2.24067
2.27884
2.41447
2.43369
2.47565
2.48187
2.49482
2.49673
2.50054
2.50109
2.50211
2.50225
2.50247
2.50251
2.50258
2.50259
2.50262
2.50262
2.50262
2.50263
2.50263
2.50263
2.50263
2.50263
2.50263
2.50263
2.50263
2.50263
2.50263
2.50263
2.50263
2.50263
2.50263
2.50263
2.50263
2.50263
2.50263
2.50263
2.50263
2.50262
2.50262
2.50262
2.50262
2.50262
2.50262
2.50262
2.50262
2.50262
2.50262
2.50262
2.50262
2.50262
2.50262
2.50262
2.50262
2.50262
2.50262
2.50262
2.50262
2.50262
2.50262
2.50262
2.50262
2.50261
2.50261
2.50259
2.50258
2.50248
2.50239
2.50181
2.50124
2.49724
2.48752
2.48351
2.45774
2.44762
2.38126
2.37379
2.37256
2.3723
2.37225
2.43148
2.53515
2.55881
2.59304
2.60088
2.61151
2.61392
2.61705
2.61774
2.61858
2.61876
2.61895
2.61899
2.61905
2.61907
2.61908
2.61909
2.61909
2.61909
2.6191
2.6191
2.6191
2.6191
2.6191
2.6191
2.6191
2.6191
2.6191
2.6191
2.6191
2.6191
2.6191
2.6191
2.61909
2.61909
2.61909
2.61909
2.61909
2.61909
2.61909
2.61909
2.61909
2.61909
2.61909
2.61909
2.61909
2.61909
2.61909
2.61909
2.61909
2.61909
2.61909
2.61909
2.61909
2.61909
2.61909
2.61909
2.61909
2.61909
2.61909
2.61909
2.61909
2.61908
2.61908
2.61906
2.61905
2.61896
2.61885
2.61833
2.61759
2.61394
2.60593
2.60088
2.57999
2.56743
2.51572
2.50644
2.50463
2.50424
2.50416
2.58014
2.65927
2.68376
2.71177
2.72008
2.72883
2.73139
2.73397
2.73471
2.73541
2.7356
2.73575
2.7358
2.73585
2.73586
2.73588
2.73588
2.73589
2.73589
2.73589
2.73589
2.73589
2.73589
2.73589
2.73589
2.73589
2.73589
2.73589
2.73589
2.73589
2.73589
2.73589
2.73589
2.73589
2.73589
2.73589
2.73589
2.73589
2.73589
2.73589
2.73589
2.73589
2.73589
2.73589
2.73589
2.73589
2.73589
2.73589
2.73589
2.73589
2.73589
2.73589
2.73589
2.73589
2.73589
2.73589
2.73589
2.73589
2.73589
2.73589
2.73588
2.73588
2.73588
2.73588
2.73586
2.73584
2.73576
2.73564
2.73518
2.73437
2.73115
2.72453
2.71919
2.7022
2.6891
2.64878
2.63908
2.63694
2.63645
2.63635
2.72581
2.78578
2.80879
2.83153
2.83951
2.84667
2.84913
2.85125
2.85196
2.85253
2.85271
2.85285
2.85289
2.85293
2.85294
2.85296
2.85296
2.85296
2.85297
2.85297
2.85297
2.85297
2.85297
2.85297
2.85297
2.85297
2.85297
2.85297
2.85297
2.85297
2.85297
2.85297
2.85297
2.85297
2.85297
2.85297
2.85296
2.85296
2.85296
2.85296
2.85296
2.85296
2.85296
2.85296
2.85296
2.85296
2.85296
2.85296
2.85296
2.85296
2.85296
2.85296
2.85296
2.85296
2.85296
2.85296
2.85296
2.85296
2.85296
2.85296
2.85296
2.85296
2.85296
2.85295
2.85294
2.85292
2.85285
2.85274
2.85233
2.85153
2.84876
2.84336
2.83823
2.82451
2.81212
2.78087
2.77167
2.76944
2.76891
2.7688
2.86921
2.91394
2.93402
2.95209
2.95919
2.96492
2.96712
2.96881
2.96945
2.96991
2.97007
2.97018
2.97022
2.97025
2.97026
2.97027
2.97028
2.97028
2.97028
2.97028
2.97028
2.97028
2.97028
2.97028
2.97028
2.97028
2.97028
2.97028
2.97028
2.97028
2.97028
2.97028
2.97028
2.97028
2.97028
2.97028
2.97028
2.97028
2.97028
2.97028
2.97028
2.97028
2.97028
2.97028
2.97028
2.97028
2.97028
2.97028
2.97028
2.97028
2.97028
2.97028
2.97028
2.97028
2.97028
2.97028
2.97028
2.97028
2.97028
2.97028
2.97028
2.97028
2.97027
2.97027
2.97026
2.97024
2.97019
2.97008
2.96974
2.96901
2.96672
2.9624
2.95785
2.94699
2.93611
2.9123
2.9042
2.90209
2.90157
2.90146
3.01094
3.04323
3.05949
3.07326
3.0791
3.0835
3.08531
3.08661
3.08714
3.08749
3.08763
3.08771
3.08774
3.08777
3.08778
3.08779
3.08779
3.08779
3.08779
3.08779
3.08779
3.08779
3.08779
3.08779
3.08779
3.08779
3.08779
3.08779
3.08779
3.08779
3.08779
3.08779
3.08779
3.08779
3.08779
3.08779
3.08779
3.08779
3.08779
3.08779
3.08779
3.08779
3.08779
3.08779
3.08779
3.08779
3.08779
3.08779
3.08779
3.08779
3.08779
3.08779
3.08779
3.08779
3.08779
3.08779
3.08779
3.08779
3.08779
3.08779
3.08779
3.08779
3.08779
3.08778
3.08778
3.08776
3.08772
3.08762
3.08735
3.08674
3.08494
3.08164
3.0779
3.06965
3.0608
3.04327
3.03667
3.03485
3.03439
3.03429
3.15147
3.17327
3.18517
3.19488
3.19921
3.20233
3.20367
3.2046
3.20498
3.20524
3.20534
3.2054
3.20542
3.20544
3.20545
3.20545
3.20545
3.20546
3.20546
3.20546
3.20546
3.20546
3.20546
3.20546
3.20546
3.20546
3.20546
3.20546
3.20546
3.20546
3.20546
3.20546
3.20546
3.20546
3.20546
3.20546
3.20546
3.20546
3.20546
3.20546
3.20546
3.20546
3.20546
3.20546
3.20546
3.20546
3.20546
3.20546
3.20546
3.20546
3.20546
3.20546
3.20546
3.20545
3.20545
3.20545
3.20545
3.20545
3.20545
3.20545
3.20545
3.20545
3.20545
3.20545
3.20544
3.20543
3.2054
3.20533
3.20513
3.20467
3.20338
3.20105
3.19827
3.19248
3.18597
3.17395
3.16909
3.16769
3.16733
3.16725
3.29119
3.30379
3.31103
3.31681
3.31946
3.32133
3.32215
3.32271
3.32294
3.3231
3.32316
3.32319
3.32321
3.32322
3.32322
3.32323
3.32323
3.32323
3.32323
3.32323
3.32323
3.32323
3.32323
3.32323
3.32323
3.32323
3.32323
3.32323
3.32323
3.32323
3.32323
3.32323
3.32323
3.32323
3.32323
3.32323
3.32323
3.32323
3.32323
3.32323
3.32323
3.32323
3.32323
3.32323
3.32323
3.32323
3.32323
3.32323
3.32323
3.32323
3.32323
3.32323
3.32323
3.32323
3.32323
3.32323
3.32323
3.32323
3.32323
3.32323
3.32323
3.32323
3.32323
3.32323
3.32322
3.32322
3.3232
3.32315
3.32303
3.32275
3.32197
3.32058
3.31888
3.31543
3.31146
3.30444
3.30147
3.30059
3.30036
3.30031
3.43045
3.43457
3.437
3.43892
3.43981
3.44043
3.44071
3.44089
3.44097
3.44102
3.44105
3.44106
3.44106
3.44107
3.44107
3.44107
3.44107
3.44107
3.44107
3.44107
3.44107
3.44107
3.44107
3.44107
3.44107
3.44107
3.44107
3.44107
3.44107
3.44107
3.44107
3.44107
3.44107
3.44107
3.44107
3.44107
3.44107
3.44107
3.44107
3.44107
3.44107
3.44107
3.44107
3.44107
3.44107
3.44107
3.44107
3.44107
3.44107
3.44107
3.44107
3.44107
3.44107
3.44107
3.44107
3.44107
3.44107
3.44107
3.44107
3.44107
3.44107
3.44107
3.44107
3.44107
3.44107
3.44106
3.44106
3.44104
3.441
3.44091
3.44065
3.44018
3.43961
3.43847
3.43713
3.43482
3.43383
3.43353
3.43345
3.43343
3.43043
3.43464
3.43709
3.43896
3.43983
3.44041
3.44067
3.44084
3.4409
3.44094
3.44096
3.44096
3.44097
3.44096
3.44096
3.44096
3.44096
3.44096
3.44096
3.44096
3.44096
3.44096
3.44096
3.44096
3.44096
3.44096
3.44096
3.44096
3.44096
3.44096
3.44095
3.44095
3.44095
3.44095
3.44095
3.44095
3.44095
3.44095
3.44095
3.44095
3.44095
3.44095
3.44095
3.44095
3.44095
3.44095
3.44095
3.44095
3.44095
3.44095
3.44095
3.44095
3.44095
3.44095
3.44095
3.44095
3.44095
3.44095
3.44095
3.44095
3.44095
3.44094
3.44094
3.44093
3.44092
3.44091
3.44088
3.44085
3.44076
3.44061
3.44022
3.4396
3.43892
3.43764
3.43627
3.43398
3.433
3.4327
3.43263
3.43261
3.29113
3.30401
3.31131
3.31695
3.31951
3.32127
3.32204
3.32253
3.32274
3.32285
3.32289
3.32291
3.32292
3.32292
3.32291
3.32291
3.3229
3.3229
3.3229
3.32289
3.32289
3.32289
3.32289
3.32289
3.32289
3.32289
3.32289
3.32289
3.32289
3.32289
3.32289
3.32289
3.32289
3.32289
3.32289
3.32288
3.32288
3.32288
3.32288
3.32288
3.32288
3.32288
3.32288
3.32288
3.32288
3.32288
3.32288
3.32288
3.32288
3.32288
3.32288
3.32288
3.32288
3.32288
3.32288
3.32288
3.32287
3.32287
3.32287
3.32286
3.32286
3.32285
3.32284
3.32282
3.32279
3.32275
3.32268
3.32257
3.32231
3.32186
3.3207
3.31883
3.3168
3.31295
3.30886
3.30191
3.29899
3.29812
3.2979
3.29785
3.15135
3.17365
3.18565
3.19512
3.19929
3.20223
3.20348
3.2043
3.20463
3.20482
3.20489
3.20492
3.20493
3.20493
3.20493
3.20492
3.20491
3.2049
3.2049
3.20489
3.20489
3.20489
3.20489
3.20489
3.20489
3.20488
3.20488
3.20488
3.20488
3.20488
3.20488
3.20488
3.20488
3.20488
3.20488
3.20488
3.20488
3.20488
3.20488
3.20488
3.20488
3.20488
3.20488
3.20488
3.20488
3.20487
3.20487
3.20487
3.20487
3.20487
3.20487
3.20487
3.20487
3.20487
3.20487
3.20486
3.20486
3.20486
3.20485
3.20485
3.20483
3.20482
3.2048
3.20477
3.20472
3.20466
3.20453
3.20436
3.20394
3.20319
3.20126
3.19812
3.19481
3.18833
3.18163
3.16974
3.16495
3.16357
3.16322
3.16314
3.01074
3.04378
3.06018
3.07359
3.07921
3.08336
3.08503
3.0862
3.08664
3.0869
3.08699
3.08704
3.08705
3.08705
3.08704
3.08703
3.08702
3.08701
3.08701
3.087
3.087
3.08699
3.08699
3.08699
3.08699
3.08699
3.08699
3.08699
3.08698
3.08698
3.08698
3.08698
3.08698
3.08698
3.08698
3.08698
3.08698
3.08698
3.08698
3.08698
3.08698
3.08698
3.08698
3.08697
3.08697
3.08697
3.08697
3.08697
3.08697
3.08697
3.08697
3.08697
3.08697
3.08696
3.08696
3.08696
3.08695
3.08695
3.08694
3.08693
3.08692
3.0869
3.08686
3.08683
3.08675
3.08667
3.08649
3.08626
3.08568
3.08468
3.08198
3.07751
3.07304
3.06381
3.0547
3.03739
3.03088
3.02908
3.02863
3.02853
2.8689
2.91468
2.93494
2.9525
2.95932
2.96472
2.96675
2.96827
2.9688
2.96913
2.96924
2.96931
2.96933
2.96932
2.96931
2.96929
2.96928
2.96927
2.96926
2.96925
2.96925
2.96925
2.96924
2.96924
2.96924
2.96924
2.96924
2.96924
2.96923
2.96923
2.96923
2.96923
2.96923
2.96923
2.96923
2.96923
2.96923
2.96923
2.96923
2.96922
2.96922
2.96922
2.96922
2.96922
2.96922
2.96922
2.96922
2.96922
2.96922
2.96922
2.96921
2.96921
2.96921
2.96921
2.96921
2.9692
2.9692
2.96919
2.96918
2.96917
2.96915
2.96912
2.96908
2.96904
2.96894
2.96884
2.96861
2.96833
2.96758
2.96639
2.96291
2.95705
2.95161
2.93942
2.92822
2.90473
2.89676
2.89467
2.89416
2.89405
2.72535
2.78674
2.80996
2.832
2.83967
2.8464
2.84868
2.85056
2.85116
2.85156
2.85169
2.85177
2.85179
2.85178
2.85177
2.85175
2.85173
2.85172
2.85171
2.8517
2.85169
2.85169
2.85169
2.85168
2.85168
2.85168
2.85168
2.85168
2.85167
2.85167
2.85167
2.85167
2.85167
2.85167
2.85167
2.85167
2.85167
2.85166
2.85166
2.85166
2.85166
2.85166
2.85166
2.85166
2.85166
2.85166
2.85166
2.85165
2.85165
2.85165
2.85165
2.85165
2.85165
2.85164
2.85164
2.85164
2.85163
2.85162
2.85161
2.8516
2.85157
2.85154
2.85148
2.85144
2.85131
2.8512
2.85091
2.8506
2.84969
2.84837
2.84412
2.83676
2.83062
2.81516
2.80241
2.77163
2.76257
2.76037
2.75985
2.75974
2.57946
2.6605
2.68521
2.71228
2.72026
2.72847
2.73084
2.73313
2.73375
2.73423
2.73436
2.73446
2.73448
2.73447
2.73446
2.73443
2.73442
2.7344
2.73439
2.73437
2.73437
2.73436
2.73436
2.73435
2.73435
2.73435
2.73435
2.73435
2.73435
2.73434
2.73434
2.73434
2.73434
2.73434
2.73434
2.73434
2.73434
2.73433
2.73433
2.73433
2.73433
2.73433
2.73433
2.73433
2.73433
2.73433
2.73432
2.73432
2.73432
2.73432
2.73432
2.73432
2.73431
2.73431
2.73431
2.7343
2.73429
2.73429
2.73427
2.73425
2.73422
2.73419
2.73412
2.73407
2.73392
2.7338
2.73345
2.73313
2.73205
2.7307
2.72568
2.71663
2.71022
2.691
2.67753
2.63787
2.62832
2.62622
2.62574
2.62563
2.4305
2.53671
2.56059
2.59357
2.60108
2.61104
2.61327
2.61603
2.61662
2.61719
2.61731
2.61743
2.61745
2.61743
2.61742
2.61738
2.61737
2.61735
2.61734
2.61732
2.61732
2.61731
2.61731
2.6173
2.6173
2.6173
2.61729
2.61729
2.61729
2.61729
2.61729
2.61729
2.61728
2.61728
2.61728
2.61728
2.61728
2.61728
2.61728
2.61728
2.61727
2.61727
2.61727
2.61727
2.61727
2.61727
2.61727
2.61726
2.61726
2.61726
2.61726
2.61726
2.61725
2.61725
2.61724
2.61724
2.61723
2.61722
2.6172
2.61719
2.61714
2.61712
2.61703
2.61698
2.61679
2.61669
2.61626
2.61596
2.61469
2.61345
2.60767
2.59665
2.59058
2.56685
2.55395
2.50316
2.49403
2.49225
2.49186
2.49178
2.27745
2.41645
2.43585
2.47614
2.4821
2.49422
2.49598
2.49933
2.49979
2.50047
2.50057
2.50072
2.50073
2.50071
2.5007
2.50065
2.50064
2.50061
2.5006
2.50058
2.50058
2.50057
2.50057
2.50056
2.50056
2.50055
2.50055
2.50055
2.50055
2.50055
2.50054
2.50054
2.50054
2.50054
2.50054
2.50054
2.50053
2.50053
2.50053
2.50053
2.50053
2.50053
2.50053
2.50053
2.50052
2.50052
2.50052
2.50052
2.50052
2.50052
2.50051
2.50051
2.50051
2.5005
2.5005
2.50049
2.50048
2.50047
2.50044
2.50043
2.50038
2.50036
2.50025
2.50021
2.49998
2.4999
2.49937
2.49914
2.49764
2.49668
2.49017
2.47677
2.47195
2.44255
2.43215
2.36706
2.35972
2.35851
2.35826
2.3582
2.11903
2.30124
2.31055
2.36041
2.36318
2.37814
2.37896
2.3831
2.38331
2.38414
2.38418
2.38436
2.38437
2.38434
2.38433
2.38427
2.38427
2.38423
2.38422
2.3842
2.3842
2.38418
2.38418
2.38417
2.38417
2.38417
2.38417
2.38416
2.38416
2.38416
2.38416
2.38416
2.38415
2.38415
2.38415
2.38415
2.38415
2.38415
2.38414
2.38414
2.38414
2.38414
2.38414
2.38414
2.38413
2.38413
2.38413
2.38413
2.38413
2.38413
2.38412
2.38412
2.38411
2.38411
2.3841
2.3841
2.38408
2.38408
2.38404
2.38404
2.38397
2.38396
2.38382
2.3838
2.38352
2.38348
2.38283
2.38272
2.38092
2.38049
2.37329
2.35689
2.35463
2.31781
2.31287
2.22898
2.2255
2.22506
2.22497
2.22495
)
;

boundaryField
{
    F1_1
    {
        type            fixedValue;
        value           nonuniform List<scalar> 
80
(
2.03737
2.24983
2.24983
2.30706
2.30706
2.32437
2.32437
2.32922
2.32922
2.33029
2.33029
2.33042
2.33042
2.33038
2.33038
2.33032
2.33032
2.33027
2.33027
2.33025
2.33025
2.33024
2.33024
2.33023
2.33023
2.33023
2.33023
2.33022
2.33022
2.33022
2.33022
2.33022
2.33022
2.33022
2.33022
2.33022
2.33022
2.33022
2.33022
2.33022
2.33022
2.33022
2.33022
2.33022
2.33022
2.33022
2.33022
2.33022
2.33022
2.33022
2.33022
2.33022
2.33021
2.33021
2.3302
2.3302
2.33018
2.33018
2.33014
2.33014
2.33005
2.33005
2.32989
2.32989
2.32956
2.32956
2.32883
2.32883
2.3268
2.3268
2.31929
2.30087
2.30087
2.25898
2.25898
2.16266
2.16266
2.16266
2.16266
2.16266
)
;
    }
    F1_2
    {
        type            fixedValue;
        value           nonuniform List<scalar> 
80
(
2.04187
2.24827
2.24827
2.30744
2.30744
2.32568
2.32568
2.33107
2.33107
2.33251
2.33251
2.33282
2.33282
2.33293
2.33293
2.33296
2.33296
2.33296
2.33296
2.33296
2.33296
2.33296
2.33296
2.33296
2.33296
2.33295
2.33295
2.33295
2.33295
2.33294
2.33294
2.33294
2.33294
2.33294
2.33293
2.33293
2.33293
2.33293
2.33293
2.33293
2.33293
2.33293
2.33292
2.33292
2.33292
2.33292
2.33292
2.33292
2.33291
2.33291
2.33291
2.33291
2.33291
2.33291
2.33291
2.33291
2.3329
2.3329
2.3329
2.3329
2.3329
2.3329
2.33289
2.33289
2.33286
2.33286
2.33272
2.33272
2.33197
2.33197
2.32752
2.31397
2.31397
2.27704
2.27704
2.17802
2.17802
2.17802
2.17802
2.17802
)
;
    }
    F1_3
    {
        type            fixedValue;
        value           nonuniform List<scalar> 
80
(
2.04078
2.24762
2.24762
2.30714
2.30714
2.32554
2.32554
2.33099
2.33099
2.33245
2.33245
2.33277
2.33277
2.33288
2.33288
2.33292
2.33292
2.33293
2.33293
2.33293
2.33293
2.33293
2.33293
2.33293
2.33293
2.33293
2.33293
2.33293
2.33293
2.33293
2.33293
2.33293
2.33293
2.33293
2.33293
2.33293
2.33293
2.33293
2.33293
2.33293
2.33293
2.33293
2.33293
2.33293
2.33293
2.33293
2.33293
2.33293
2.33293
2.33293
2.33293
2.33293
2.33293
2.33293
2.33292
2.33292
2.33292
2.33292
2.33292
2.33292
2.33292
2.33292
2.33292
2.33292
2.33289
2.33289
2.33276
2.33276
2.33201
2.33201
2.32761
2.31418
2.31418
2.27747
2.27747
2.17877
2.17877
2.17877
2.17877
2.17877
)
;
    }
    F1_4
    {
        type            fixedValue;
        value           nonuniform List<scalar> 
80
(
2.03834
2.25042
2.25042
2.30732
2.30732
2.32448
2.32448
2.32928
2.32928
2.33024
2.33024
2.33046
2.33046
2.33044
2.33044
2.33037
2.33037
2.33032
2.33032
2.33029
2.33029
2.33028
2.33028
2.33027
2.33027
2.33026
2.33026
2.33026
2.33026
2.33026
2.33025
2.33025
2.33025
2.33025
2.33025
2.33025
2.33024
2.33024
2.33024
2.33024
2.33024
2.33024
2.33024
2.33024
2.33023
2.33023
2.33023
2.33023
2.33022
2.33022
2.33022
2.33022
2.33021
2.33021
2.3302
2.3302
2.33018
2.33018
2.33014
2.33014
2.33006
2.33006
2.3299
2.3299
2.32957
2.32957
2.32883
2.32883
2.32679
2.32679
2.31922
2.3007
2.3007
2.25862
2.25862
2.16199
2.16199
2.16199
2.16199
2.16199
)
;
    }
    F2_1
    {
        type            fixedValue;
        value           uniform 3.5;
    }
    F2_2
    {
        type            fixedValue;
        value           uniform 3.5;
    }
    F2_3
    {
        type            fixedValue;
        value           uniform 3.5;
    }
    F2_4
    {
        type            fixedValue;
        value           uniform 3.5;
    }
    defaultFaces
    {
        type            empty;
    }
}


// ************************************************************************* //
