/*--------------------------------*- C++ -*----------------------------------*\
| =========                 |                                                 |
| \\      /  F ield         | OpenFOAM: The Open Source CFD Toolbox           |
|  \\    /   O peration     | Version:  5.x                                   |
|   \\  /    A nd           | Web:      www.OpenFOAM.org                      |
|    \\/     M anipulation  |                                                 |
\*---------------------------------------------------------------------------*/
FoamFile
{
    version     2.0;
    format      ascii;
    class       volScalarField;
    location    "5.3";
    object      gradTy;
}
// * * * * * * * * * * * * * * * * * * * * * * * * * * * * * * * * * * * * * //

dimensions      [0 -1 0 1 0 0 0];

internalField   nonuniform List<scalar> 
2048
(
-26.4235
-26.3959
-26.3415
-26.2619
-26.1591
-26.0357
-25.8944
-25.7382
-25.5696
-25.3914
-25.2059
-25.0153
-24.8215
-24.6262
-24.4308
-24.2368
-24.0452
-23.8569
-23.6727
-23.4932
-23.3188
-23.1499
-22.9867
-22.8295
-22.6784
-22.5339
-22.396
-22.2652
-22.1418
-22.0263
-21.9193
-21.8214
-21.7334
-21.656
-21.5903
-21.5373
-21.498
-21.4736
-21.4653
-21.4745
-21.5023
-21.55
-21.6189
-21.7101
-21.8245
-21.9629
-22.1257
-22.3128
-22.5236
-22.7567
-23.0096
-23.2793
-23.5613
-23.8504
-24.1406
-24.4253
-24.6976
-24.9511
-25.1796
-25.3777
-25.5412
-25.6666
-25.7515
-25.7943
-26.4458
-26.4175
-26.3619
-26.2806
-26.1757
-26.0501
-25.9066
-25.7481
-25.5774
-25.3973
-25.2101
-25.0179
-24.8227
-24.6262
-24.4298
-24.2348
-24.0425
-23.8536
-23.6689
-23.4891
-23.3144
-23.1453
-22.9819
-22.8245
-22.6732
-22.5284
-22.3903
-22.2591
-22.1354
-22.0195
-21.912
-21.8135
-21.7247
-21.6466
-21.5801
-21.5261
-21.4859
-21.4605
-21.4513
-21.4594
-21.4862
-21.5329
-21.6009
-21.6912
-21.805
-21.9431
-22.106
-22.2937
-22.5056
-22.7405
-22.9962
-23.2693
-23.5555
-23.8496
-24.1451
-24.4352
-24.7129
-24.9713
-25.2041
-25.4058
-25.572
-25.6994
-25.7856
-25.829
-26.4885
-26.459
-26.401
-26.3163
-26.2074
-26.0775
-25.9295
-25.7667
-25.5921
-25.4083
-25.2178
-25.0227
-24.8249
-24.6261
-24.4277
-24.231
-24.0373
-23.8472
-23.6617
-23.4812
-23.306
-23.1365
-22.9727
-22.815
-22.6634
-22.5182
-22.3795
-22.2478
-22.1233
-22.0066
-21.8981
-21.7984
-21.7084
-21.6289
-21.5608
-21.5051
-21.4631
-21.4358
-21.4246
-21.4308
-21.4556
-21.5005
-21.5667
-21.6555
-21.7681
-21.9055
-22.0684
-22.257
-22.4711
-22.7094
-22.9701
-23.2498
-23.5442
-23.8476
-24.1534
-24.4541
-24.7421
-25.01
-25.251
-25.4595
-25.6309
-25.7619
-25.8504
-25.895
-26.5497
-26.5183
-26.4567
-26.3671
-26.2524
-26.1161
-25.9617
-25.7928
-25.6125
-25.4235
-25.2284
-25.0292
-24.8277
-24.6256
-24.4245
-24.2254
-24.0297
-23.8381
-23.6513
-23.4699
-23.2941
-23.124
-22.9599
-22.8017
-22.6496
-22.5038
-22.3644
-22.2319
-22.1064
-21.9885
-21.8786
-21.7774
-21.6856
-21.604
-21.5336
-21.4756
-21.431
-21.4011
-21.3872
-21.3906
-21.4126
-21.4547
-21.5183
-21.6049
-21.7156
-21.8519
-22.0146
-22.2044
-22.4212
-22.6643
-22.932
-23.2211
-23.5271
-23.8441
-24.1648
-24.481
-24.784
-25.0656
-25.3184
-25.5364
-25.7151
-25.8512
-25.9428
-25.9889
-26.6281
-26.5942
-26.5277
-26.4315
-26.309
-26.1644
-26.0018
-25.825
-25.6374
-25.442
-25.2411
-25.0367
-24.8308
-24.6247
-24.42
-24.218
-24.0198
-23.8262
-23.638
-23.4556
-23.279
-23.1084
-22.9438
-22.7851
-22.6324
-22.4859
-22.3457
-22.2122
-22.0855
-21.9662
-21.8546
-21.7514
-21.6573
-21.5731
-21.4999
-21.4388
-21.391
-21.3578
-21.3404
-21.3403
-21.3587
-21.3973
-21.4576
-21.5411
-21.6493
-21.7839
-21.9461
-22.1369
-22.3569
-22.6057
-22.8819
-23.1829
-23.5039
-23.8385
-24.1787
-24.515
-24.8376
-25.137
-25.4049
-25.6349
-25.8224
-25.9647
-26.0601
-26.1079
-26.7227
-26.6855
-26.6129
-26.5083
-26.376
-26.2211
-26.0483
-25.862
-25.6658
-25.4628
-25.2552
-25.045
-24.8337
-24.623
-24.4142
-24.2087
-24.0076
-23.8118
-23.622
-23.4384
-23.2611
-23.09
-22.9249
-22.7658
-22.6125
-22.4651
-22.324
-22.1893
-22.0613
-21.9403
-21.8267
-21.7212
-21.6244
-21.5372
-21.4607
-21.396
-21.3444
-21.3072
-21.2857
-21.2814
-21.2956
-21.3299
-21.3861
-21.4657
-21.5707
-21.7029
-21.864
-22.0556
-22.2787
-22.5337
-22.8199
-23.1348
-23.4737
-23.83
-24.1942
-24.5555
-24.9023
-25.2234
-25.5095
-25.7536
-25.9513
-26.1003
-26.1997
-26.2493
-26.8329
-26.7915
-26.7112
-26.5963
-26.4521
-26.2848
-26.0999
-25.9026
-25.6967
-25.4851
-25.2701
-25.0534
-24.8363
-24.6204
-24.407
-24.1975
-23.9931
-23.7949
-23.6034
-23.4187
-23.2408
-23.0693
-22.9038
-22.7441
-22.5902
-22.442
-22.2998
-22.1639
-22.0344
-21.9116
-21.7959
-21.6877
-21.5878
-21.4972
-21.4168
-21.3481
-21.2922
-21.2505
-21.2243
-21.2152
-21.2245
-21.2539
-21.3052
-21.3803
-21.4812
-21.6102
-21.7694
-21.9611
-22.1871
-22.4485
-22.7455
-23.076
-23.4359
-23.8176
-24.2105
-24.6019
-24.9777
-25.3246
-25.6317
-25.8916
-26.1003
-26.2562
-26.3595
-26.4108
-26.9581
-26.9118
-26.8221
-26.6945
-26.5361
-26.3541
-26.1554
-25.9456
-25.7289
-25.5081
-25.2853
-25.0616
-24.8383
-24.6167
-24.3981
-24.1843
-23.9764
-23.7755
-23.5823
-23.3966
-23.2182
-23.0465
-22.8808
-22.7207
-22.5661
-22.417
-22.2737
-22.1364
-22.0054
-21.8807
-21.7627
-21.6517
-21.5484
-21.4539
-21.3693
-21.296
-21.2353
-21.1887
-21.1574
-21.143
-21.1468
-21.1707
-21.2164
-21.286
-21.382
-21.5069
-21.6633
-21.8542
-22.0823
-22.3499
-22.658
-23.0058
-23.3892
-23.8003
-24.227
-24.6539
-25.0637
-25.4404
-25.7713
-26.0484
-26.2683
-26.4307
-26.5374
-26.5901
-27.0984
-27.0459
-26.9448
-26.8021
-26.6268
-26.4278
-26.2133
-25.9898
-25.7615
-25.5311
-25.3001
-25.0693
-24.8394
-24.6117
-24.3877
-24.169
-23.9572
-23.7536
-23.5587
-23.3723
-23.1937
-23.022
-22.8563
-22.6958
-22.5406
-22.3905
-22.2461
-22.1075
-21.9748
-21.8483
-21.7278
-21.6138
-21.5069
-21.4082
-21.3189
-21.2406
-21.1748
-21.1228
-21.086
-21.0658
-21.0637
-21.0814
-21.1208
-21.1843
-21.2744
-21.3941
-21.5466
-21.7356
-21.9647
-22.2377
-22.5569
-22.9229
-23.3323
-23.7768
-24.2427
-24.711
-25.1606
-25.5715
-25.9286
-26.2236
-26.4542
-26.6223
-26.7314
-26.7849
-27.2537
-27.1937
-27.0789
-26.9183
-26.7231
-26.5046
-26.2725
-26.034
-25.7935
-25.5534
-25.3142
-25.0762
-24.8396
-24.6055
-24.3755
-24.1515
-23.9356
-23.7292
-23.5327
-23.3459
-23.1675
-22.9962
-22.8307
-22.67
-22.514
-22.363
-22.2172
-22.0773
-21.9432
-21.8148
-21.6918
-21.5747
-21.4639
-21.3606
-21.2663
-21.1827
-21.1113
-21.0536
-21.011
-20.9847
-20.9762
-20.9872
-21.0197
-21.0762
-21.1595
-21.2729
-21.4202
-21.6058
-21.8346
-22.1117
-22.4414
-22.8262
-23.2638
-23.7459
-24.2567
-24.7733
-25.2689
-25.7185
-26.1041
-26.4171
-26.6573
-26.8293
-26.9393
-26.9928
-27.4243
-27.3554
-27.224
-27.0421
-26.8238
-26.5831
-26.3315
-26.0769
-25.8241
-25.5743
-25.3273
-25.0823
-24.8389
-24.5981
-24.3616
-24.1319
-23.9115
-23.7021
-23.5043
-23.3174
-23.1398
-22.9694
-22.8043
-22.6436
-22.4868
-22.3346
-22.1876
-22.0463
-21.9108
-21.7806
-21.6553
-21.5349
-21.4199
-21.3117
-21.212
-21.1227
-21.0455
-20.9819
-20.9332
-20.9006
-20.8853
-20.8891
-20.9141
-20.9629
-21.0385
-21.1446
-21.2853
-21.4658
-21.6923
-21.9717
-22.3107
-22.7141
-23.1818
-23.7057
-24.2679
-24.8405
-25.3894
-25.8827
-26.2986
-26.6291
-26.8768
-27.0502
-27.1592
-27.2115
-27.6108
-27.531
-27.38
-27.1728
-26.9277
-26.6618
-26.3888
-26.1175
-25.8523
-25.5934
-25.3392
-25.0875
-24.8374
-24.5895
-24.346
-24.1099
-23.8847
-23.6723
-23.4735
-23.2871
-23.1109
-22.942
-22.7777
-22.6169
-22.4593
-22.3057
-22.1572
-22.0147
-21.8781
-21.7464
-21.6188
-21.495
-21.3756
-21.2621
-21.1566
-21.0612
-20.9779
-20.9083
-20.8534
-20.8142
-20.792
-20.7882
-20.8051
-20.8455
-20.9125
-21.0101
-21.1427
-21.3164
-21.5384
-21.8177
-22.164
-22.5854
-23.0845
-23.6545
-24.2752
-24.9128
-25.5235
-26.0657
-26.5135
-26.8597
-27.1117
-27.2833
-27.3885
-27.4383
-27.8138
-27.7209
-27.5464
-27.3096
-27.0335
-26.7394
-26.4432
-26.1545
-25.8772
-25.6103
-25.3498
-25.092
-24.8353
-24.58
-24.3287
-24.0856
-23.8551
-23.6397
-23.4401
-23.255
-23.0811
-22.9142
-22.7512
-22.5904
-22.4318
-22.2765
-22.1263
-21.9827
-21.8452
-21.7124
-21.5826
-21.4554
-21.3314
-21.2122
-21.1004
-20.9987
-20.9091
-20.8333
-20.7721
-20.7264
-20.697
-20.6853
-20.6936
-20.7249
-20.7826
-20.8706
-20.9937
-21.1585
-21.3735
-21.6498
-22.0005
-22.4382
-22.9697
-23.5898
-24.2771
-24.9903
-25.6727
-26.2698
-26.7502
-27.1094
-27.3613
-27.5266
-27.625
-27.6706
-28.0341
-27.9255
-27.7232
-27.4514
-27.1397
-26.8143
-26.4932
-26.1867
-25.8982
-25.6245
-25.3591
-25.0961
-24.8328
-24.5698
-24.3099
-24.0588
-23.8225
-23.604
-23.4042
-23.2211
-23.0505
-22.8866
-22.7252
-22.5644
-22.4045
-22.247
-22.095
-21.9504
-21.8125
-21.6789
-21.5473
-21.4167
-21.2878
-21.1624
-21.0439
-20.9354
-20.8395
-20.7574
-20.6901
-20.6379
-20.6011
-20.5812
-20.5805
-20.6022
-20.6498
-20.7272
-20.8395
-20.9934
-21.1985
-21.4682
-21.8197
-22.2711
-22.8348
-23.5091
-24.2716
-25.0731
-25.8394
-26.498
-27.0108
-27.3784
-27.6243
-27.7783
-27.8662
-27.9057
-28.2727
-28.1455
-27.9101
-27.5975
-27.2449
-26.8848
-26.5372
-26.2128
-25.9145
-25.6361
-25.3674
-25.1
-24.8304
-24.5592
-24.2896
-24.0294
-23.7868
-23.5651
-23.3654
-23.1855
-23.0194
-22.8596
-22.7002
-22.5394
-22.3778
-22.2175
-22.0631
-21.9177
-21.7801
-21.6465
-21.5132
-21.3792
-21.2452
-21.1131
-20.9871
-20.8717
-20.7693
-20.681
-20.6077
-20.5491
-20.5051
-20.4767
-20.4665
-20.4781
-20.5151
-20.5812
-20.6811
-20.8222
-21.0145
-21.2734
-21.621
-22.0824
-22.6774
-23.4092
-24.2562
-25.1614
-26.0266
-26.7537
-27.2973
-27.667
-27.8997
-28.0362
-28.1094
-28.1407
-28.5309
-28.3813
-28.1071
-27.7466
-27.3473
-26.9493
-26.5738
-26.2317
-25.9254
-25.6448
-25.3751
-25.1042
-24.8285
-24.5487
-24.2679
-23.9972
-23.7476
-23.5228
-23.3237
-23.1483
-22.9883
-22.8336
-22.6766
-22.5156
-22.3518
-22.1879
-22.0305
-21.8846
-21.7481
-21.6153
-21.4808
-21.3434
-21.2039
-21.0644
-20.9304
-20.8078
-20.6987
-20.6045
-20.5255
-20.4608
-20.4096
-20.3724
-20.3523
-20.3534
-20.3794
-20.4335
-20.52
-20.6464
-20.8228
-21.0661
-21.404
-21.8704
-22.4947
-23.2865
-24.228
-25.2552
-26.2381
-27.0414
-27.6124
-27.9754
-28.1857
-28.2977
-28.3518
-28.373
-28.8102
-28.6337
-28.3142
-27.8976
-27.445
-27.0062
-26.6016
-26.2421
-25.9303
-25.6507
-25.3827
-25.1092
-24.8275
-24.5388
-24.245
-23.9618
-23.7048
-23.4767
-23.2786
-23.1093
-22.9573
-22.8093
-22.6549
-22.4934
-22.3271
-22.1582
-21.9968
-21.8509
-21.7168
-21.5859
-21.4504
-21.3095
-21.1645
-21.0166
-20.8737
-20.7437
-20.6281
-20.528
-20.4438
-20.3735
-20.3152
-20.269
-20.2386
-20.2287
-20.2435
-20.2852
-20.3573
-20.4674
-20.625
-20.8474
-21.1689
-21.6337
-22.2838
-23.1369
-24.1826
-25.3545
-26.479
-27.3665
-27.9586
-28.3032
-28.4805
-28.5604
-28.5908
-28.5998
-29.112
-28.9032
-28.5314
-28.0492
-27.5357
-27.054
-26.6194
-26.2427
-25.9287
-25.6541
-25.391
-25.1157
-24.828
-24.5303
-24.221
-23.9227
-23.6582
-23.4267
-23.2299
-23.0685
-22.9269
-22.7873
-22.6354
-22.4731
-22.3039
-22.1283
-21.9615
-21.8163
-21.6862
-21.5587
-21.4224
-21.278
-21.1273
-20.9699
-20.817
-20.6795
-20.5575
-20.4516
-20.3629
-20.2876
-20.2225
-20.1671
-20.1257
-20.1046
-20.1082
-20.1374
-20.1941
-20.2868
-20.4231
-20.6186
-20.9157
-21.3707
-22.0422
-22.956
-24.1144
-25.4588
-26.7559
-27.7355
-28.3385
-28.6497
-28.7817
-28.8214
-28.8237
-28.8184
-29.4383
-29.1905
-28.7589
-28.1999
-27.6167
-27.0912
-26.6259
-26.232
-25.92
-25.6553
-25.4011
-25.124
-24.8303
-24.5243
-24.1961
-23.8793
-23.6076
-23.3727
-23.177
-23.026
-22.8974
-22.7684
-22.6187
-22.455
-22.2829
-22.0982
-21.9239
-21.7806
-21.6564
-21.5342
-21.3971
-21.2489
-21.0929
-20.9245
-20.76
-20.6154
-20.4871
-20.3755
-20.2831
-20.2035
-20.1321
-20.067
-20.0141
-19.9815
-19.9742
-19.9911
-20.0315
-20.1062
-20.2192
-20.3815
-20.6451
-21.0801
-21.7675
-22.739
-24.0157
-25.5671
-27.0779
-28.1563
-28.7543
-29.0135
-29.0864
-29.0779
-29.0478
-29.0266
-29.7911
-29.4955
-28.9976
-28.3481
-27.6849
-27.1168
-26.6204
-26.2083
-25.904
-25.6546
-25.4146
-25.1348
-24.8344
-24.5222
-24.1705
-23.8304
-23.5532
-23.3145
-23.1189
-22.9817
-22.8693
-22.7537
-22.6051
-22.4391
-22.2648
-22.0676
-21.8828
-21.7432
-21.6276
-21.5133
-21.3747
-21.2224
-21.0621
-20.8805
-20.7021
-20.5513
-20.4169
-20.2996
-20.2047
-20.1218
-20.0446
-19.9692
-19.9041
-19.8595
-19.842
-19.8473
-19.8704
-19.9271
-20.016
-20.1379
-20.358
-20.7606
-21.4578
-22.4812
-23.8764
-25.6775
-27.4568
-28.6376
-29.2079
-29.3923
-29.3914
-29.3267
-29.2608
-29.2223
-30.1732
-29.8178
-29.2487
-28.4919
-27.7358
-27.1306
-26.6024
-26.1694
-25.8803
-25.6526
-25.4334
-25.1482
-24.8402
-24.526
-24.1441
-23.7741
-23.4954
-23.2524
-23.0547
-22.9355
-22.8429
-22.7446
-22.5946
-22.4251
-22.2509
-22.0366
-21.8367
-21.7039
-21.5999
-21.4969
-21.3553
-21.1983
-21.0357
-20.8378
-20.6427
-20.4876
-20.3473
-20.2236
-20.1279
-20.0427
-19.9607
-19.8742
-19.7957
-19.7388
-19.7122
-19.707
-19.7112
-19.7509
-19.8167
-19.8902
-20.0559
-20.4106
-21.1125
-22.1787
-23.6821
-25.7864
-27.909
-29.1899
-29.6998
-29.7825
-29.6927
-29.565
-29.4603
-29.4036
-30.5875
-30.1555
-29.5146
-28.6294
-27.7638
-27.1331
-26.572
-26.1125
-25.8492
-25.6496
-25.4605
-25.1641
-24.8466
-24.539
-24.1173
-23.7078
-23.4352
-23.1867
-22.9824
-22.8876
-22.8184
-22.743
-22.5873
-22.4123
-22.2431
-22.0049
-21.7834
-21.6623
-21.5733
-21.4865
-21.3389
-21.176
-21.0154
-20.7967
-20.5804
-20.4246
-20.2784
-20.147
-20.053
-19.9667
-19.881
-19.7822
-19.6891
-19.6192
-19.5851
-19.5716
-19.5541
-19.5789
-19.6249
-19.6404
-19.7408
-20.0281
-20.732
-21.829
-23.414
-25.8882
-28.457
-29.8242
-30.2292
-30.1796
-29.9862
-29.7897
-29.6445
-29.5692
-31.0381
-30.505
-29.7997
-28.7585
-27.7611
-27.1267
-26.5302
-26.0333
-25.8115
-25.6453
-25.4999
-25.182
-24.8516
-24.5656
-24.0901
-23.6271
-23.3744
-23.1182
-22.8996
-22.8386
-22.7957
-22.7516
-22.5828
-22.3995
-22.2442
-21.9724
-21.7199
-21.6184
-21.5475
-21.4843
-21.3252
-21.1545
-21.0033
-20.757
-20.5132
-20.3631
-20.2106
-20.0692
-19.9804
-19.8939
-19.8065
-19.6935
-19.5842
-19.5004
-19.4609
-19.4425
-19.3986
-19.4116
-19.4452
-19.3908
-19.4158
-19.6098
-20.3184
-21.4329
-23.0459
-25.9738
-29.132
-30.552
-30.793
-30.5776
-30.2674
-29.9981
-29.8118
-29.7181
-31.5304
-30.8593
-30.1109
-28.877
-27.7169
-27.1161
-26.4786
-25.9261
-25.7689
-25.6389
-25.5573
-25.2006
-24.8514
-24.6128
-24.0626
-23.5259
-23.3167
-23.0483
-22.8023
-22.7895
-22.7743
-22.774
-22.5801
-22.384
-22.2587
-21.9392
-21.6419
-21.5729
-21.522
-21.493
-21.3134
-21.1317
-21.0025
-20.7187
-20.4382
-20.3046
-20.1444
-19.9886
-19.9107
-19.8244
-19.7381
-19.6082
-19.481
-19.3816
-19.3397
-19.322
-19.2433
-19.2493
-19.2833
-19.143
-19.0853
-19.1506
-19.8759
-20.9965
-22.5431
-26.0295
-29.9769
-31.3838
-31.385
-30.9694
-30.5317
-30.188
-29.9612
-29.8497
-32.0718
-31.2067
-30.4593
-28.9826
-27.6161
-27.1097
-26.4203
-25.7821
-25.7251
-25.6277
-25.641
-25.2177
-24.8397
-24.6906
-24.0349
-23.3948
-23.2675
-22.9791
-22.6849
-22.7428
-22.7522
-22.8157
-22.5779
-22.3618
-22.2928
-21.905
-21.5432
-21.5275
-21.4953
-21.5172
-21.3024
-21.1044
-21.018
-20.6819
-20.3511
-20.2513
-20.0807
-19.9035
-19.8449
-19.7579
-19.6774
-19.5264
-19.3793
-19.2619
-19.2213
-19.213
-19.0859
-19.0911
-19.1468
-18.8973
-18.7561
-18.642
-19.4108
-20.5337
-21.8588
-26.0346
-31.0515
-32.3274
-31.9954
-31.3465
-30.7745
-30.3572
-30.0919
-29.9638
-32.6728
-31.528
-30.8624
-29.0729
-27.4371
-27.1208
-26.3595
-25.5886
-25.687
-25.6064
-25.7628
-25.2298
-24.8067
-24.8135
-24.0069
-23.2203
-23.2358
-22.9134
-22.5388
-22.7028
-22.7259
-22.8845
-22.5737
-22.3266
-22.356
-21.8698
-21.4158
-21.4855
-21.4647
-21.563
-21.2903
-21.0676
-21.0567
-20.6461
-20.2457
-20.2071
-20.0204
-19.8106
-19.7846
-19.6938
-19.626
-19.4478
-19.2792
-19.1402
-19.1049
-19.1202
-18.9227
-18.9351
-19.0454
-18.6519
-18.4385
-18.0707
-18.9318
-20.0709
-20.9308
-25.9591
-32.4381
-33.385
-32.61
-31.7
-30.992
-30.5044
-30.2036
-30.0605
-33.3481
-31.7938
-31.3463
-29.1457
-27.1503
-27.1702
-26.302
-25.3273
-25.666
-25.5654
-25.9397
-25.2318
-24.7376
-25.0023
-23.9784
-22.9831
-23.2349
-22.8551
-22.3518
-22.6767
-22.6891
-22.9914
-22.5641
-22.2688
-22.4615
-21.8334
-21.248
-21.4532
-21.425
-21.6393
-21.2745
-21.0139
-21.1288
-20.6109
-20.1132
-20.1778
-19.9648
-19.7057
-19.7327
-19.6304
-19.5865
-19.3718
-19.1809
-19.0146
-18.9892
-19.0501
-18.7483
-18.7773
-18.9926
-18.4016
-18.1479
-17.4166
-18.4489
-19.6518
-19.6776
-25.7601
-34.2494
-34.5486
-33.2102
-32.0204
-31.1805
-30.6288
-30.2965
-30.1404
-34.1187
-31.9597
-31.9493
-29.1987
-26.7143
-27.2884
-26.2554
-24.972
-25.6808
-25.4882
-26.1956
-25.2165
-24.611
-25.2861
-23.9489
-22.6563
-23.2845
-22.8092
-22.1068
-22.6767
-22.6308
-23.1521
-22.5445
-22.1745
-22.6283
-21.7952
-21.0241
-21.4409
-21.3677
-21.7587
-21.2509
-20.9326
-21.2484
-20.5757
-19.9414
-20.1719
-19.9153
-19.5825
-19.6933
-19.5652
-19.5625
-19.2973
-19.0848
-18.8832
-18.8716
-19.012
-18.5551
-18.6116
-19.0067
-18.1353
-17.908
-16.6495
-17.9731
-19.3443
-17.9931
-25.377
-36.6386
-35.7943
-33.7727
-32.2987
-31.3376
-30.73
-30.3712
-30.2041
-35.0141
-31.9614
-32.7263
-29.2296
-26.0728
-27.5188
-26.229
-24.4861
-25.7604
-25.3485
-26.5639
-25.1746
-24.3962
-25.705
-23.9174
-22.2029
-23.4126
-22.782
-21.7792
-22.7218
-22.5338
-23.3886
-22.5085
-22.0241
-22.8821
-21.7541
-20.7229
-21.4648
-21.2791
-21.9388
-21.2146
-20.8083
-21.4351
-20.5393
-19.7139
-20.202
-19.8736
-19.4323
-19.6731
-19.4937
-19.5587
-19.2222
-18.9922
-18.7436
-18.7482
-19.0194
-18.3326
-18.4284
-19.1131
-17.8338
-17.7538
-15.7266
-17.5144
-19.2485
-15.741
-24.7268
-39.8116
-37.0737
-34.2709
-32.5273
-31.4618
-30.8084
-30.4284
-30.2528
-36.0752
-31.7077
-33.7546
-29.2359
-25.1504
-27.9221
-26.234
-23.8189
-25.949
-25.1059
-27.0905
-25.0935
-24.0511
-26.3132
-23.8825
-21.5732
-23.6582
-22.7808
-21.3356
-22.8405
-22.3715
-23.7311
-22.4476
-21.7905
-23.2581
-21.7084
-20.316
-21.5496
-21.1378
-22.2038
-21.1586
-20.6203
-21.7158
-20.4997
-19.4082
-20.2856
-19.8413
-19.2428
-19.6819
-19.409
-19.5821
-19.1433
-18.9048
-18.5931
-18.6123
-19.0907
-18.0675
-18.2139
-19.3466
-17.4654
-17.7365
-14.5883
-17.0795
-19.5071
-12.7488
-23.6963
-44.0418
-38.304
-34.6765
-32.7002
-31.5528
-30.865
-30.4694
-30.2875
-37.3579
-31.0722
-35.1396
-29.2147
-23.8472
-28.5808
-26.2831
-22.9019
-26.3107
-24.7006
-27.8379
-24.9574
-23.5188
-27.1828
-23.8417
-20.7015
-24.0746
-22.8146
-20.7307
-23.075
-22.1047
-24.2209
-22.3512
-21.4371
-23.8028
-21.6552
-19.766
-21.7314
-20.9125
-22.5866
-21.0739
-20.3403
-22.1259
-20.4543
-18.9952
-20.4465
-19.8201
-18.9982
-19.7339
-19.3009
-19.642
-19.0557
-18.8258
-18.4289
-18.4543
-19.2509
-17.7423
-17.9486
-19.7547
-16.9818
-17.9293
-13.1539
-16.6678
-20.3163
-8.80014
-22.1349
-49.6877
-39.3539
-34.9631
-32.8145
-31.6115
-30.9011
-30.4954
-30.3095
-38.9368
-29.8848
-37.0252
-29.1641
-22.0345
-29.6046
-26.3908
-21.6444
-26.938
-24.0478
-28.8907
-24.7464
-22.7235
-28.4069
-23.7914
-19.5026
-24.7326
-22.8933
-19.9036
-23.4845
-21.6767
-24.9126
-22.2053
-20.9151
-24.5767
-21.5897
-19.0236
-22.061
-20.5574
-23.1313
-20.9493
-19.9315
-22.7122
-20.3989
-18.4369
-20.7167
-19.8106
-18.6768
-19.8491
-19.1541
-19.7513
-18.9519
-18.7594
-18.2481
-18.26
-19.5333
-17.335
-17.6052
-20.4016
-16.3111
-18.4338
-11.3169
-16.2667
-21.9392
-3.62812
-19.8443
-57.2131
-40.0275
-35.111
-32.8704
-31.6397
-30.9184
-30.5078
-30.3199
)
;

boundaryField
{
    left
    {
        type            calculated;
        value           nonuniform List<scalar> 
32
(
-26.4235
-26.4458
-26.4885
-26.5497
-26.6281
-26.7227
-26.8329
-26.9581
-27.0984
-27.2537
-27.4243
-27.6108
-27.8138
-28.0341
-28.2727
-28.5309
-28.8102
-29.112
-29.4383
-29.7911
-30.1732
-30.5875
-31.0381
-31.5304
-32.0718
-32.6728
-33.3481
-34.1187
-35.0141
-36.0752
-37.3579
-38.9368
)
;
    }
    right
    {
        type            calculated;
        value           nonuniform List<scalar> 
32
(
-25.7943
-25.829
-25.895
-25.9889
-26.1079
-26.2493
-26.4108
-26.5901
-26.7849
-26.9928
-27.2115
-27.4383
-27.6706
-27.9057
-28.1407
-28.373
-28.5998
-28.8184
-29.0266
-29.2223
-29.4036
-29.5692
-29.7181
-29.8497
-29.9638
-30.0605
-30.1404
-30.2041
-30.2528
-30.2875
-30.3095
-30.3199
)
;
    }
    interface
    {
        type            calculated;
        value           nonuniform List<scalar> 
64
(
-39.811
-29.1289
-38.1137
-29.1313
-20.9829
-30.2235
-26.4613
-20.9177
-27.3316
-23.6471
-29.5055
-24.6195
-22.2493
-29.1208
-23.7633
-18.8094
-25.1321
-22.9451
-19.4259
-23.7416
-21.414
-25.3168
-22.118
-20.605
-25.0294
-21.5531
-18.5973
-22.2702
-20.3408
-23.4505
-20.8754
-19.6896
-23.056
-20.3682
-18.116
-20.8835
-19.8089
-18.4938
-19.9254
-19.0688
-19.8201
-18.8949
-18.73
-18.1532
-18.1517
-19.7098
-17.1078
-17.41
-20.794
-15.9183
-18.7787
-10.2827
-16.0663
-22.9914
-0.699441
-18.4886
-61.5109
-40.2413
-35.1483
-32.884
-31.6465
-30.9225
-30.5107
-30.3223
)
;
    }
    bottom
    {
        type            calculated;
        value           nonuniform List<scalar> 
64
(
-26.4177
-26.3902
-26.3362
-26.257
-26.1547
-26.0319
-25.8912
-25.7356
-25.5676
-25.3899
-25.2048
-25.0146
-24.8212
-24.6262
-24.4311
-24.2373
-24.0459
-23.8578
-23.6737
-23.4943
-23.32
-23.1511
-22.988
-22.8308
-22.6798
-22.5353
-22.3975
-22.2667
-22.1435
-22.0281
-21.9213
-21.8235
-21.7357
-21.6585
-21.593
-21.5402
-21.5011
-21.477
-21.469
-21.4784
-21.5065
-21.5545
-21.6236
-21.715
-21.8295
-21.968
-22.1308
-22.3178
-22.5283
-22.7608
-23.0131
-23.2819
-23.5628
-23.8506
-24.1394
-24.4227
-24.6937
-24.9458
-25.1732
-25.3705
-25.5332
-25.6581
-25.7427
-25.7853
)
;
    }
    defaultFaces
    {
        type            empty;
    }
}


// ************************************************************************* //
