/*--------------------------------*- C++ -*----------------------------------*\
| =========                 |                                                 |
| \\      /  F ield         | OpenFOAM: The Open Source CFD Toolbox           |
|  \\    /   O peration     | Version:  5.x                                   |
|   \\  /    A nd           | Web:      www.OpenFOAM.org                      |
|    \\/     M anipulation  |                                                 |
\*---------------------------------------------------------------------------*/
FoamFile
{
    version     2.0;
    format      ascii;
    class       volScalarField;
    location    "5.3";
    object      T;
}
// * * * * * * * * * * * * * * * * * * * * * * * * * * * * * * * * * * * * * //

dimensions      [0 0 0 1 0 0 0];

internalField   nonuniform List<scalar> 
2048
(
9.81021
9.81041
9.81079
9.81136
9.8121
9.81298
9.81399
9.81511
9.81632
9.81759
9.81892
9.82029
9.82168
9.82308
9.82448
9.82587
9.82725
9.8286
9.82992
9.83121
9.83246
9.83368
9.83485
9.83598
9.83706
9.8381
9.83909
9.84003
9.84092
9.84174
9.84251
9.84321
9.84385
9.8444
9.84487
9.84525
9.84553
9.8457
9.84576
9.84569
9.84549
9.84515
9.84465
9.84399
9.84317
9.84218
9.84101
9.83966
9.83815
9.83648
9.83467
9.83274
9.83072
9.82865
9.82658
9.82454
9.82259
9.82078
9.81915
9.81773
9.81656
9.81567
9.81506
9.81475
9.43876
9.43935
9.44051
9.4422
9.44439
9.44701
9.45002
9.45334
9.45692
9.46071
9.46465
9.4687
9.47282
9.47697
9.48112
9.48525
9.48932
9.49332
9.49723
9.50104
9.50475
9.50834
9.5118
9.51514
9.51835
9.52142
9.52435
9.52713
9.52975
9.5322
9.53448
9.53656
9.53843
9.54007
9.54147
9.5426
9.54343
9.54395
9.54413
9.54394
9.54335
9.54234
9.54088
9.53894
9.53651
9.53357
9.53012
9.52614
9.52166
9.51671
9.51133
9.5056
9.4996
9.49345
9.48728
9.48122
9.47543
9.47004
9.46518
9.46096
9.45748
9.45482
9.45301
9.4521
9.08312
9.08409
9.08601
9.08881
9.09243
9.09676
9.10172
9.1072
9.11309
9.11932
9.1258
9.13245
9.1392
9.14601
9.15281
9.15956
9.16622
9.17277
9.17917
9.1854
9.19145
9.19732
9.20298
9.20844
9.21368
9.2187
9.22349
9.22803
9.23232
9.23634
9.24006
9.24347
9.24654
9.24924
9.25154
9.2534
9.25479
9.25566
9.25597
9.25568
9.25474
9.25311
9.25075
9.24761
9.24365
9.23886
9.23321
9.22671
9.21937
9.21124
9.2024
9.19297
9.18308
9.17293
9.16273
9.15272
9.14314
9.13423
9.1262
9.11924
9.1135
9.1091
9.10612
9.10462
8.74235
8.74372
8.7464
8.75032
8.75536
8.7614
8.7683
8.7759
8.78407
8.79269
8.80164
8.81082
8.82014
8.82952
8.83888
8.84817
8.85734
8.86633
8.87512
8.88368
8.89199
8.90004
8.90781
8.9153
8.92249
8.92938
8.93595
8.9422
8.94809
8.95361
8.95874
8.96344
8.96767
8.97141
8.9746
8.97719
8.97913
8.98036
8.98083
8.98048
8.97924
8.97704
8.97384
8.96957
8.96418
8.95763
8.94989
8.94096
8.93085
8.91963
8.9074
8.89432
8.88058
8.86646
8.85225
8.83829
8.82493
8.8125
8.8013
8.79161
8.78363
8.77752
8.77339
8.77131
8.41563
8.41739
8.42086
8.42591
8.43241
8.44017
8.44901
8.45873
8.46916
8.48013
8.49151
8.50317
8.51499
8.52687
8.53873
8.55049
8.56207
8.57343
8.58453
8.59532
8.6058
8.61593
8.62573
8.63516
8.64423
8.65291
8.6612
8.66908
8.67652
8.6835
8.68999
8.69594
8.70132
8.70607
8.71014
8.71346
8.71597
8.71759
8.71825
8.71787
8.71638
8.71369
8.70972
8.70441
8.69767
8.68945
8.67971
8.66844
8.65565
8.64141
8.62584
8.60914
8.59156
8.57344
8.55519
8.53724
8.52004
8.50405
8.48967
8.47723
8.467
8.45918
8.4539
8.45125
8.10218
8.10435
8.10863
8.11486
8.12285
8.13237
8.14317
8.15502
8.1677
8.18101
8.19479
8.20888
8.22315
8.23748
8.25177
8.26592
8.27985
8.29349
8.30681
8.31976
8.33231
8.34446
8.35618
8.36749
8.37835
8.38876
8.39871
8.40816
8.4171
8.42549
8.4333
8.44048
8.44698
8.45273
8.45768
8.46174
8.46483
8.46686
8.46775
8.4674
8.46571
8.46259
8.45794
8.45166
8.44366
8.43388
8.42224
8.40871
8.39332
8.37612
8.35725
8.33694
8.31549
8.29333
8.27095
8.24891
8.22779
8.20817
8.19054
8.17532
8.16283
8.1533
8.14688
8.14365
7.80128
7.8039
7.80903
7.81649
7.82602
7.83734
7.85015
7.86415
7.87909
7.89473
7.91088
7.92737
7.94404
7.96077
7.97743
7.99391
8.01011
8.02598
8.04143
8.05645
8.071
8.08507
8.09866
8.11175
8.12434
8.13642
8.14795
8.15893
8.16931
8.17907
8.18817
8.19655
8.20415
8.21091
8.21673
8.22154
8.22523
8.22771
8.22886
8.22858
8.22676
8.22328
8.21802
8.21087
8.20172
8.19046
8.17702
8.16134
8.14342
8.12332
8.10118
8.07724
8.05187
8.02557
7.99895
7.9727
7.94754
7.92417
7.90322
7.88517
7.8704
7.85916
7.85159
7.84779
7.51228
7.51536
7.5214
7.53016
7.54132
7.55451
7.56937
7.58555
7.60276
7.62072
7.63922
7.65808
7.67712
7.6962
7.71517
7.73393
7.75235
7.77035
7.78788
7.80488
7.82135
7.83727
7.85263
7.86745
7.88169
7.89536
7.90843
7.92088
7.93266
7.94375
7.9541
7.96366
7.97235
7.9801
7.98681
7.99238
7.9967
7.99965
8.00111
8.00096
7.99906
7.99529
7.98951
7.98158
7.97137
7.95875
7.9436
7.92587
7.90551
7.88256
7.85717
7.82959
7.80024
7.76969
7.73867
7.70804
7.67867
7.65143
7.62705
7.60612
7.58905
7.57609
7.5674
7.56304
7.23455
7.23814
7.24516
7.25529
7.26816
7.2833
7.30028
7.31869
7.33818
7.35846
7.37929
7.40048
7.42185
7.44324
7.46449
7.48546
7.50604
7.52612
7.54564
7.56456
7.58286
7.60054
7.61761
7.63407
7.64991
7.66512
7.67967
7.69353
7.70667
7.71905
7.73062
7.74134
7.75111
7.75985
7.76746
7.7738
7.77877
7.78223
7.78403
7.78406
7.78215
7.77817
7.77195
7.76334
7.75216
7.73828
7.72155
7.70186
7.67914
7.65342
7.6248
7.59355
7.56013
7.5252
7.48961
7.45439
7.42063
7.38935
7.36144
7.33757
7.31818
7.30353
7.29372
7.28881
6.96752
6.97166
6.97973
6.99135
7.00602
7.02321
7.04238
7.06305
7.08485
7.10744
7.13059
7.15408
7.17774
7.20139
7.22487
7.24802
7.2707
7.2928
7.31424
7.33499
7.35505
7.37442
7.39312
7.41115
7.42853
7.44521
7.46118
7.47641
7.49086
7.5045
7.51727
7.52912
7.53996
7.54969
7.5582
7.56534
7.57098
7.57498
7.57717
7.57743
7.57557
7.57145
7.56487
7.55566
7.54364
7.52861
7.5104
7.48886
7.46389
7.43546
7.40365
7.36872
7.33114
7.29166
7.25129
7.21125
7.17286
7.13736
7.10581
7.07895
7.05725
7.04092
7.03003
7.02459
6.71063
6.71537
6.72459
6.73782
6.75443
6.77376
6.7952
6.81819
6.8423
6.8672
6.89263
6.91839
6.94431
6.97019
6.99586
7.02114
7.04587
7.06992
7.09322
7.11573
7.13746
7.15843
7.17869
7.19823
7.21707
7.23518
7.25253
7.26908
7.2848
7.29965
7.31359
7.32655
7.33846
7.34918
7.3586
7.36655
7.37289
7.37745
7.38008
7.38061
7.37887
7.37467
7.36782
7.35812
7.34534
7.32928
7.30971
7.28645
7.25934
7.22829
7.19333
7.1547
7.11287
7.06867
7.02328
6.97814
6.93485
6.89494
6.85963
6.82974
6.80574
6.78778
6.77586
6.76992
6.46338
6.46878
6.47926
6.49422
6.51291
6.53452
6.5583
6.58366
6.6101
6.63728
6.66496
6.69296
6.72109
6.74917
6.777
6.80437
6.8311
6.85704
6.88212
6.90631
6.92963
6.95214
6.97387
6.99486
7.01512
7.0346
7.05328
7.0711
7.08804
7.10407
7.11914
7.13321
7.14616
7.15788
7.16822
7.177
7.18406
7.18922
7.19232
7.19317
7.19159
7.18739
7.18036
7.17025
7.15683
7.13985
7.11905
7.0942
7.06507
7.0315
6.99346
6.95111
6.90494
6.85584
6.80515
6.75459
6.70612
6.66156
6.62237
6.58944
6.56318
6.54366
6.53078
6.52438
6.22526
6.23141
6.24328
6.26014
6.28105
6.30506
6.33129
6.35905
6.38782
6.41726
6.44716
6.47735
6.50766
6.5379
6.56785
6.59728
6.62596
6.65375
6.68054
6.70633
6.73115
6.7551
6.77824
6.80062
6.82223
6.84304
6.863
6.88205
6.90017
6.91734
6.93352
6.94866
6.96266
6.97538
6.98665
6.99628
7.00408
7.00987
7.01346
7.01467
7.01332
7.00919
7.00204
6.99163
6.97767
6.95989
6.93799
6.91167
6.88066
6.8447
6.80365
6.75761
6.70702
6.65281
6.59651
6.54018
6.48617
6.43674
6.39356
6.35759
6.32915
6.30818
6.29441
6.28759
5.99583
6.00279
6.0162
6.03514
6.05846
6.085
6.11377
6.14397
6.17507
6.20674
6.2388
6.27113
6.30358
6.33595
6.368
6.39945
6.43005
6.45962
6.48806
6.51536
6.5416
6.56691
6.59139
6.61508
6.638
6.6601
6.6813
6.70153
6.72079
6.73905
6.7563
6.7725
6.78754
6.80127
6.81348
6.82397
6.83254
6.83897
6.84309
6.84471
6.84363
6.83963
6.83245
6.82181
6.80742
6.78896
6.76609
6.73846
6.70571
6.6675
6.62356
6.57386
6.51877
6.45925
6.39702
6.33448
6.27455
6.21997
6.17271
6.13374
6.10325
6.08095
6.0664
6.05924
5.77462
5.78251
5.79763
5.81885
5.84477
5.874
5.90539
5.93807
5.97148
6.00532
6.03948
6.0739
6.10844
6.14291
6.17704
6.2105
6.24298
6.27428
6.30428
6.33301
6.36058
6.38717
6.4129
6.43786
6.46204
6.48539
6.50779
6.52917
6.5495
6.56882
6.58711
6.60435
6.62042
6.63516
6.64833
6.65971
6.66905
6.67615
6.68082
6.68288
6.68211
6.6783
6.67117
6.6604
6.64568
6.62665
6.60294
6.57415
6.53983
6.49954
6.45284
6.39954
6.33989
6.27486
6.20632
6.13711
6.0708
6.01079
5.95938
5.9175
5.88511
5.86165
5.84647
5.83902
5.56123
5.57015
5.58717
5.61091
5.63964
5.67171
5.70581
5.741
5.77668
5.81263
5.84883
5.88527
5.92186
5.95839
5.99459
6.03004
6.06437
6.09734
6.12885
6.15892
6.18772
6.21548
6.24241
6.26858
6.29398
6.31854
6.34211
6.36459
6.38595
6.40627
6.42557
6.44383
6.46093
6.47668
6.49083
6.5031
6.51324
6.52103
6.52627
6.52879
6.52838
6.52482
6.5178
6.50698
6.49202
6.47254
6.44813
6.41833
6.38262
6.34043
6.29115
6.23435
6.17011
6.09936
6.02412
5.94769
5.87448
5.80873
5.75312
5.70847
5.67439
5.64999
5.63432
5.62667
5.35524
5.36532
5.38446
5.41098
5.44276
5.47783
5.51474
5.55244
5.59035
5.62832
5.66645
5.70485
5.74344
5.78202
5.82028
5.85772
5.89387
5.92847
5.9614
5.99271
6.02263
6.05149
6.07954
6.10686
6.13345
6.1592
6.18392
6.20744
6.22978
6.25105
6.27132
6.29058
6.3087
6.32549
6.34063
6.3538
6.36475
6.37324
6.37907
6.38207
6.38206
6.37879
6.37195
6.36117
6.34606
6.32624
6.30126
6.2706
6.23369
6.18981
6.13815
6.078
6.00917
5.93251
5.85014
5.76586
5.68512
5.61331
5.55351
5.50629
5.47081
5.4457
5.42971
5.42195
5.15627
5.16766
5.18917
5.21875
5.25384
5.29207
5.33186
5.37209
5.41216
5.45204
5.492
5.53229
5.57283
5.61343
5.65375
5.69318
5.73113
5.7673
5.80159
5.83404
5.86498
5.89483
5.92393
5.95236
5.98011
6.00704
6.03288
6.0574
6.08066
6.10281
6.12402
6.14426
6.1634
6.18123
6.19739
6.21148
6.22324
6.23244
6.23886
6.24237
6.24278
6.23986
6.23327
6.22259
6.20742
6.18735
6.16193
6.13058
6.09265
6.04732
5.99352
5.93019
5.85682
5.77408
5.68415
5.59128
5.50228
5.42407
5.36014
5.31064
5.27407
5.24853
5.23243
5.22465
4.96393
4.97682
5.00095
5.03393
5.07261
5.11415
5.15689
5.19966
5.24179
5.28345
5.32512
5.36722
5.40968
5.45226
5.49467
5.53611
5.57582
5.61353
5.64911
5.68259
5.71442
5.74516
5.77524
5.80475
5.83361
5.86172
5.88868
5.91416
5.93825
5.96123
5.98334
6.00454
6.02468
6.04358
6.06078
6.0758
6.08838
6.09829
6.10532
6.10933
6.11019
6.10767
6.10138
6.09088
6.07573
6.0555
6.02976
5.99786
5.95911
5.9126
5.85694
5.79067
5.71282
5.62388
5.52596
5.42363
5.32548
5.24052
5.17261
5.12121
5.08394
5.05829
5.04227
5.03458
4.77788
4.79246
4.8195
4.85626
4.89883
4.94381
4.98958
5.03488
5.07895
5.12224
5.16547
5.20931
5.25364
5.29816
5.3427
5.3862
5.42764
5.46684
5.50364
5.53804
5.57063
5.60214
5.63316
5.6637
5.69365
5.72296
5.75104
5.77741
5.80226
5.82598
5.84896
5.8711
5.89224
5.91224
5.93051
5.94646
5.95987
5.9705
5.97811
5.98264
5.98397
5.98188
5.97597
5.96571
5.95063
5.93034
5.90439
5.87208
5.8327
5.78528
5.72808
5.65916
5.57695
5.48173
5.37541
5.26263
5.15424
5.06218
4.99056
4.93772
4.9002
4.87477
4.85905
4.85154
4.59776
4.61427
4.64452
4.68547
4.73229
4.78081
4.82965
4.87748
4.92335
4.96808
5.0127
5.05824
5.10439
5.15081
5.19754
5.24316
5.28628
5.32692
5.3649
5.40007
5.43329
5.46545
5.49736
5.52891
5.55991
5.59044
5.61967
5.64687
5.67238
5.69677
5.72058
5.74365
5.76577
5.78689
5.80628
5.82315
5.83739
5.84874
5.85693
5.86197
5.86378
5.86218
5.85669
5.84674
5.83179
5.8115
5.78547
5.75287
5.71303
5.66501
5.60664
5.53541
5.44899
5.34748
5.23243
5.108
4.98802
4.88855
4.81363
4.75994
4.72267
4.69781
4.6826
4.67537
4.42324
4.44198
4.47571
4.52134
4.57279
4.62489
4.67686
4.72724
4.77472
4.82068
4.86649
4.91369
4.96163
5.00985
5.05888
5.10672
5.15144
5.19349
5.23262
5.26842
5.3021
5.33477
5.36755
5.40008
5.43209
5.46391
5.49434
5.52227
5.54834
5.57328
5.59792
5.6219
5.64496
5.66727
5.68784
5.70561
5.72067
5.73275
5.74149
5.74702
5.74931
5.74824
5.74325
5.73366
5.71889
5.69866
5.67266
5.63988
5.59972
5.55144
5.49228
5.41918
5.32872
5.22097
5.09699
4.95951
4.82623
4.71912
4.64149
4.58767
4.55119
4.52726
4.51276
4.50592
4.25398
4.27533
4.31277
4.36366
4.42019
4.4758
4.53094
4.58394
4.63277
4.67975
4.7265
4.77537
4.82509
4.87496
4.92643
4.97665
5.02283
5.06627
5.10654
5.14278
5.17678
5.20979
5.24345
5.27696
5.30987
5.34308
5.37479
5.40335
5.42987
5.45523
5.4807
5.5056
5.52952
5.55311
5.57492
5.59355
5.60943
5.62226
5.6315
5.63751
5.64028
5.63979
5.63535
5.62618
5.61162
5.59148
5.56564
5.53276
5.4924
5.4442
5.38469
5.31022
5.21589
5.10205
4.96919
4.81699
4.6682
4.55338
4.47388
4.42074
4.38563
4.36297
4.34938
4.343
4.08965
4.11411
4.15541
4.21222
4.27437
4.33328
4.39166
4.44738
4.49725
4.54501
4.59239
4.643
4.69449
4.74579
4.79992
4.85273
4.90016
4.94497
4.98645
5.02291
5.05705
5.0902
5.12479
5.1593
5.19297
5.22771
5.26085
5.28987
5.31671
5.34233
5.36868
5.3945
5.41918
5.44414
5.46732
5.48671
5.5034
5.51701
5.5267
5.53316
5.53639
5.53654
5.53271
5.52402
5.50968
5.48965
5.46412
5.43119
5.39067
5.34296
5.28353
5.20833
5.11025
4.99053
4.84921
4.68031
4.51316
4.3908
4.31055
4.25902
4.22586
4.20481
4.19231
4.18647
3.92992
3.95816
4.00329
4.06683
4.13527
4.19706
4.25875
4.31742
4.36788
4.4162
4.46379
4.51632
4.56963
4.62196
4.67907
4.7348
4.78314
4.82933
4.87214
4.90851
4.94267
4.97569
5.01134
5.04687
5.08107
5.11755
5.15232
5.18159
5.20863
5.2343
5.26161
5.28838
5.31363
5.34013
5.36482
5.38482
5.40235
5.41677
5.42682
5.43372
5.43737
5.43822
5.43508
5.42693
5.4128
5.39285
5.36781
5.33487
5.29416
5.24739
5.18846
5.11331
5.01153
4.88616
4.73739
4.54943
4.36016
4.23087
4.15133
4.10243
4.07181
4.05267
4.04141
4.03618
3.77445
3.80739
3.85604
3.92733
4.00289
4.0668
4.13195
4.19393
4.24437
4.29309
4.34035
4.39511
4.45032
4.50309
4.56365
4.62275
4.67144
4.71908
4.76344
4.79934
4.8334
4.86593
4.90286
4.93948
4.97384
5.01238
5.04907
5.07825
5.10541
5.13082
5.15928
5.18704
5.21258
5.24084
5.26726
5.28763
5.30601
5.32135
5.33162
5.33893
5.34296
5.34459
5.34221
5.33467
5.32072
5.30077
5.27649
5.24351
5.20245
5.15718
5.09912
5.02502
4.91939
4.78863
4.63425
4.42439
4.20806
4.07313
3.99611
3.95093
3.92338
3.90642
3.89653
3.89195
3.62287
3.66182
3.71323
3.79355
3.87734
3.94213
4.01097
4.07686
4.12642
4.17549
4.22164
4.27916
4.33644
4.38873
4.45341
4.51651
4.56472
4.61394
4.66025
4.6951
4.72904
4.76058
4.79914
4.83699
4.87093
4.91197
4.95099
4.97962
5.00686
5.03161
5.06148
5.09034
5.1157
5.14605
5.1745
5.19487
5.21415
5.23054
5.24084
5.24859
5.25289
5.2554
5.25385
5.247
5.2332
5.21311
5.18992
5.15687
5.11512
5.07204
5.01511
4.94338
4.83352
4.69745
4.54053
4.3054
4.05541
3.91717
3.84486
3.80449
3.78051
3.76594
3.75751
3.75362
3.47476
3.52162
3.57432
3.66535
3.75881
3.82258
3.89551
3.96623
4.01366
4.06328
4.1072
4.16831
4.22794
4.27837
4.34811
4.41613
4.46259
4.51363
4.5625
4.5955
4.62944
4.65927
4.70003
4.7393
4.77195
4.81612
4.85805
4.88541
4.91282
4.93632
4.96804
4.99815
5.02266
5.05556
5.08645
5.10626
5.12654
5.1442
5.15424
5.16247
5.1669
5.17045
5.16978
5.16373
5.15002
5.12953
5.10794
5.07471
5.03172
4.99174
4.93597
4.86839
4.75351
4.61194
4.45723
4.19281
3.9004
3.7627
3.69764
3.66313
3.64312
3.63111
3.6242
3.62102
3.32967
3.38712
3.43866
3.54257
3.64766
3.70758
3.78528
3.86217
3.90567
3.95639
3.9965
4.06241
4.12487
4.17141
4.24754
4.32173
4.36458
4.41787
4.4702
4.50018
4.53451
4.56159
4.60535
4.64637
4.67644
4.72462
4.77025
4.79532
4.82318
4.84459
4.87881
4.9104
4.93307
4.96918
5.00307
5.02148
5.04296
5.0622
5.07156
5.0804
5.08473
5.08952
5.08979
5.08467
5.07097
5.04968
5.03041
4.99687
4.95175
4.91612
4.86116
4.80019
4.67898
4.53115
4.38568
4.08722
3.74073
3.60961
3.55461
3.52688
3.51115
3.5018
3.49645
3.49399
3.18704
3.25889
3.3054
3.42509
3.54442
3.5964
3.67992
3.76491
3.80192
3.8549
3.88889
3.96137
4.02739
4.06713
4.15151
4.23357
4.27016
4.32637
4.38345
4.40874
4.44421
4.46705
4.51501
4.55825
4.58389
4.6373
4.68768
4.70898
4.7379
4.75601
4.79366
4.82709
4.84649
4.88673
4.92438
4.9402
4.96318
4.98446
4.99253
5.00223
5.00613
5.01244
5.01366
5.00965
4.9959
4.97319
4.95723
4.92321
4.87463
4.84512
4.79002
4.73903
4.6095
4.45373
4.3276
3.98949
3.57349
3.45808
3.41599
3.39578
3.38452
3.37788
3.37409
3.37235
3.04621
3.13785
3.17344
3.31277
3.44987
3.48814
3.57907
3.67487
3.70173
3.75902
3.78361
3.86515
3.93579
3.96464
4.05982
4.15209
4.17865
4.23881
4.30245
4.32066
4.35864
4.37509
4.4289
4.47507
4.49367
4.55398
4.61052
4.62594
4.65701
4.67009
4.71249
4.74829
4.76241
4.80804
4.85048
4.86204
4.88699
4.91093
4.91686
4.92783
4.93081
4.93904
4.94118
4.93851
4.92466
4.89963
4.88837
4.85368
4.79971
4.7788
4.72175
4.68541
4.54469
4.37786
4.28517
3.90085
3.39497
3.30863
3.28207
3.26986
3.26314
3.2592
3.25695
3.25593
2.90635
3.02526
3.0414
3.20549
3.36504
3.38164
3.48236
3.59268
3.6042
3.66919
3.67972
3.77376
3.85055
3.86289
3.9723
4.07788
4.08924
4.15488
4.22757
4.23532
4.27803
4.28504
4.34699
4.39708
4.40503
4.47452
4.53906
4.54565
4.58068
4.58627
4.63524
4.67417
4.68022
4.73298
4.78156
4.78653
4.8142
4.84163
4.8442
4.85714
4.85849
4.8692
4.87215
4.87111
4.85717
4.82851
4.82384
4.78828
4.72619
4.71743
4.65528
4.64002
4.48419
4.30111
4.26108
3.82295
3.20055
3.16235
3.1532
3.14913
3.14691
3.14561
3.14487
3.14453
)
;

boundaryField
{
    left
    {
        type            zeroGradient;
    }
    right
    {
        type            zeroGradient;
    }
    interface
    {
        type            fixedValue;
        value           nonuniform List<scalar> 
64
(
2.83485
2.97289
2.97289
3.15312
3.32735
3.32735
3.43483
3.55508
3.55508
3.6267
3.6267
3.72955
3.8106
3.8106
3.92961
4.0441
4.0441
4.11368
4.19269
4.19269
4.23958
4.23958
4.30727
4.36008
4.36008
4.43582
4.50566
4.50566
4.54415
4.54415
4.59775
4.6388
4.6388
4.6964
4.74903
4.74903
4.77862
4.80842
4.80842
4.8229
4.8229
4.83526
4.83851
4.83851
4.82457
4.79311
4.79311
4.75701
4.68885
4.68885
4.62157
4.62157
4.45534
4.25983
4.25983
3.78975
3.09008
3.09008
3.09008
3.09008
3.09008
3.09008
3.09008
3.09008
)
;
    }
    bottom
    {
        type            fixedValue;
        value           uniform 10;
    }
    defaultFaces
    {
        type            empty;
    }
}


// ************************************************************************* //
