/*--------------------------------*- C++ -*----------------------------------*\
| =========                 |                                                 |
| \\      /  F ield         | OpenFOAM: The Open Source CFD Toolbox           |
|  \\    /   O peration     | Version:  5.x                                   |
|   \\  /    A nd           | Web:      www.OpenFOAM.org                      |
|    \\/     M anipulation  |                                                 |
\*---------------------------------------------------------------------------*/
FoamFile
{
    version     2.0;
    format      ascii;
    class       volScalarField;
    location    "2.8";
    object      gradTy;
}
// * * * * * * * * * * * * * * * * * * * * * * * * * * * * * * * * * * * * * //

dimensions      [0 -1 0 1 0 0 0];

internalField   nonuniform List<scalar> 
3200
(
18.1718
8.59583
11.6764
8.27744
9.70604
8.00977
8.75716
7.76735
8.21072
7.57917
7.85046
7.49743
7.70443
7.30097
7.50974
7.12576
7.32185
6.96857
7.14781
6.8281
6.98943
6.70371
6.84726
6.59459
6.72141
6.49919
6.61246
6.41449
6.52845
6.36082
6.22702
6.3133
6.19607
6.25311
6.16195
6.20613
6.13288
6.16847
6.10878
6.13783
6.08892
6.1127
6.07264
6.09205
6.05946
6.07508
6.04914
6.06122
6.04177
6.05009
6.03883
6.04503
6.03338
6.03875
6.02994
6.03343
6.02889
6.02966
6.03094
6.02789
6.03745
6.02864
6.05094
6.0326
6.07637
6.04002
6.12464
6.04613
6.22143
5.99919
6.29142
7.10491
6.41947
7.94112
6.7769
9.88556
9.11668
8.9991
8.97482
8.9696
16.9369
9.70737
11.281
8.73892
9.50488
8.2381
8.63826
7.89835
8.13462
7.6621
7.80696
7.54345
7.65377
7.35152
7.46181
7.17416
7.27784
7.01323
7.10803
6.86856
6.95391
6.73991
6.81587
6.62663
6.69376
6.52736
6.58748
6.43942
6.5012
6.36455
6.25163
6.29904
6.21148
6.24189
6.17366
6.19709
6.14225
6.1611
6.1164
6.13179
6.09516
6.10776
6.07775
6.08803
6.06363
6.07189
6.05246
6.05885
6.04428
6.0487
6.04029
6.04359
6.03486
6.03768
6.03108
6.03291
6.02951
6.0299
6.03085
6.02921
6.03636
6.03165
6.04831
6.0385
6.07119
6.05164
6.11471
6.07175
6.20156
6.07447
6.34967
6.9899
6.62074
7.759
7.15349
9.49316
9.09063
8.99536
8.97406
8.96939
15.9912
10.4667
11.05
9.06804
9.38498
8.39973
8.56493
7.99027
8.08683
7.72031
7.77977
7.5745
7.61959
7.38555
7.42977
7.2069
7.24854
7.04348
7.0816
6.89602
6.93035
6.7645
6.79506
6.6484
6.67544
6.54645
6.57081
6.45595
6.48187
6.36732
6.26981
6.29017
6.22218
6.23462
6.18171
6.19118
6.14866
6.15627
6.12162
6.12782
6.09943
6.10451
6.08125
6.08539
6.06648
6.0698
6.05475
6.05731
6.04603
6.04782
6.04128
6.04262
6.03586
6.03698
6.03187
6.0326
6.02997
6.03011
6.03086
6.03018
6.03573
6.03379
6.04674
6.0427
6.0681
6.05994
6.10903
6.09046
6.19196
6.13365
6.39333
6.91527
6.76171
7.64663
7.41226
9.21045
9.05228
8.98867
8.97263
8.96899
15.2664
10.9818
10.9217
9.3052
9.31717
8.51533
8.5212
8.05534
8.05758
7.76149
7.76318
7.59554
7.59658
7.40844
7.40842
7.22905
7.22912
7.06402
7.06412
6.91469
6.9148
6.78124
6.78135
6.66322
6.66336
6.55942
6.55972
6.46684
6.46817
6.36942
6.28328
6.28484
6.22965
6.22996
6.18726
6.18735
6.15307
6.15313
6.1252
6.12524
6.10236
6.10239
6.08365
6.08367
6.06844
6.06845
6.05633
6.05633
6.04725
6.04728
6.04195
6.04197
6.03655
6.03654
6.03244
6.03243
6.03032
6.0303
6.03093
6.0309
6.03541
6.03535
6.04585
6.04571
6.06636
6.06596
6.10605
6.10436
6.18876
6.18012
6.42649
6.86766
6.86115
7.57903
7.58973
9.00599
9.01015
8.98008
8.9707
8.96844
14.7131
11.3278
10.8557
9.47724
9.28193
8.59864
8.49635
8.10169
8.04027
7.79076
7.75336
7.60983
7.58114
7.42382
7.39425
7.24403
7.2163
7.07795
7.05263
6.92738
6.90459
6.79263
6.77237
6.67332
6.65544
6.56821
6.55236
6.47397
6.45847
6.37101
6.29324
6.28177
6.23491
6.22702
6.1911
6.1849
6.15611
6.15111
6.12767
6.12358
6.10438
6.10103
6.08531
6.08257
6.06979
6.06759
6.05742
6.05571
6.04811
6.04695
6.04241
6.04154
6.03702
6.03626
6.03283
6.03234
6.03059
6.03047
6.03102
6.03143
6.03527
6.03648
6.04539
6.0479
6.06545
6.07035
6.10474
6.11482
6.18928
6.21638
6.45187
6.83795
6.93161
7.53971
7.71098
8.85802
8.9694
8.97065
8.9685
8.96781
14.2951
11.5574
10.8259
9.60195
9.26622
8.65872
8.4832
8.13472
8.03049
7.81155
7.74779
7.61953
7.57086
7.4341
7.3849
7.25411
7.20791
7.08736
7.04514
6.93597
6.89796
6.80036
6.76655
6.68017
6.6503
6.57416
6.5475
6.47859
6.45165
6.37221
6.30055
6.28013
6.23861
6.2252
6.19375
6.18335
6.1582
6.14982
6.12936
6.12252
6.10576
6.10016
6.08644
6.08187
6.07072
6.06704
6.05818
6.05533
6.04872
6.04676
6.04272
6.04126
6.03735
6.03608
6.03312
6.0323
6.03079
6.03061
6.03112
6.03184
6.03523
6.0373
6.04518
6.04948
6.06505
6.07357
6.1044
6.12271
6.1917
6.24431
6.47122
6.81994
6.98149
7.51787
7.7932
8.75147
8.93305
8.96136
8.96623
8.96715
13.9867
11.7067
10.8159
9.69116
9.26139
8.70153
8.47698
8.15799
8.0253
7.82614
7.74482
7.62606
7.5641
7.44087
7.37883
7.26082
7.2025
7.09364
7.04033
6.94172
6.89372
6.80554
6.76283
6.68477
6.64702
6.57813
6.54434
6.48153
6.44693
6.37311
6.30582
6.27933
6.24119
6.22411
6.19557
6.1824
6.15963
6.14902
6.13051
6.12186
6.1067
6.09962
6.08721
6.08143
6.07135
6.06671
6.0587
6.05511
6.04913
6.04665
6.04294
6.04108
6.03757
6.03598
6.03332
6.03228
6.03094
6.03072
6.03121
6.03213
6.03525
6.03789
6.04511
6.05062
6.06494
6.0759
6.10457
6.12857
6.19477
6.26527
6.48569
6.80942
7.01638
7.50647
7.84811
8.67599
8.90282
8.95302
8.96412
8.96653
13.7695
11.8005
10.8152
9.75257
9.26177
8.73094
8.47455
8.17382
8.02278
7.83603
7.74334
7.63032
7.5598
7.44521
7.375
7.26514
7.19912
7.09771
7.03733
6.94545
6.89109
6.80891
6.76053
6.68776
6.64499
6.5807
6.54233
6.48334
6.44379
6.37375
6.30945
6.279
6.24292
6.22348
6.19677
6.18182
6.16056
6.14854
6.13126
6.12146
6.10732
6.09929
6.08772
6.08117
6.07177
6.0665
6.05904
6.05497
6.04942
6.04659
6.04308
6.04097
6.03771
6.03592
6.03345
6.03229
6.03105
6.03081
6.03128
6.03234
6.03529
6.0383
6.04512
6.0514
6.06495
6.07752
6.10492
6.13274
6.19767
6.28023
6.49604
6.80357
7.03995
7.50101
7.88356
8.62455
8.87967
8.94623
8.96236
8.966
13.6311
11.855
10.8176
9.79113
9.26377
8.74938
8.4739
8.18367
8.0217
7.84216
7.74269
7.63289
7.55727
7.44777
7.37277
7.26772
7.19716
7.10014
7.0356
6.94768
6.88957
6.81093
6.7592
6.68955
6.64382
6.58223
6.54116
6.48438
6.44187
6.37416
6.31173
6.2789
6.244
6.22314
6.1975
6.18151
6.16113
6.14827
6.13172
6.12123
6.10769
6.09911
6.08802
6.08102
6.07202
6.06639
6.05925
6.0549
6.04959
6.04657
6.04316
6.04091
6.0378
6.03588
6.03353
6.03229
6.03112
6.03086
6.03134
6.03247
6.03532
6.03856
6.04514
6.05189
6.06501
6.07854
6.10525
6.13543
6.19986
6.28986
6.50271
6.80057
7.05453
7.49869
7.90468
8.59255
8.86406
8.94146
8.96109
8.96562
13.5637
11.8799
10.8196
9.80973
9.26525
8.75827
8.47385
8.1884
8.02132
7.8451
7.74245
7.6341
7.5561
7.44896
7.37174
7.26892
7.19626
7.10128
7.03481
6.94873
6.88888
6.81187
6.7586
6.69039
6.64328
6.58295
6.54062
6.48485
6.44096
6.37436
6.31283
6.27888
6.24451
6.22299
6.19784
6.18136
6.1614
6.14815
6.13193
6.12113
6.10787
6.09903
6.08817
6.08096
6.07214
6.06634
6.05935
6.05487
6.04967
6.04656
6.0432
6.04088
6.03784
6.03587
6.03357
6.0323
6.03116
6.03089
6.03136
6.03254
6.03534
6.03869
6.04516
6.05213
6.06506
6.07904
6.10545
6.13675
6.20103
6.29457
6.50599
6.79932
7.06149
7.4979
7.91452
8.5772
8.85621
8.93901
8.96043
8.96542
-13.5531
-11.7558
-10.5319
-9.19748
-8.38976
-7.5007
-6.94062
-6.29114
-5.87784
-5.39809
-5.10626
-4.78271
-4.54681
-4.22095
-3.98739
-3.67878
-3.46335
-3.18556
-2.9939
-2.74939
-2.58157
-2.36849
-2.22252
-2.03744
-1.91034
-1.74843
-1.63497
-1.48546
-1.36703
-1.18607
-1.01714
-0.922655
-0.825054
-0.762986
-0.689109
-0.640002
-0.579513
-0.538854
-0.488313
-0.454239
-0.411781
-0.383156
-0.347505
-0.323531
-0.29378
-0.273931
-0.249565
-0.233674
-0.214773
-0.203164
-0.190155
-0.180639
-0.167464
-0.158034
-0.145593
-0.136939
-0.125824
-0.118197
-0.108529
-0.101957
-0.0937108
-0.0881907
-0.0814125
-0.0771264
-0.0723417
-0.0702919
-0.0700449
-0.0749144
-0.0913405
-0.127479
-0.22175
-0.372794
-0.531097
-0.822999
-1.13024
-1.64607
-1.86425
-1.92908
-1.94586
-1.94976
-13.625
-11.7329
-10.5364
-9.17645
-8.39306
-7.48758
-6.94423
-6.28173
-5.88054
-5.39061
-5.10757
-4.77923
-4.55045
-4.21729
-3.99042
-3.67509
-3.46588
-3.18215
-2.99604
-2.74635
-2.58341
-2.36584
-2.22411
-2.03515
-1.91176
-1.74652
-1.63644
-1.48424
-1.36956
-1.18561
-1.01418
-0.922797
-0.823649
-0.763474
-0.688132
-0.640471
-0.578733
-0.539262
-0.487666
-0.454585
-0.411238
-0.383446
-0.347046
-0.32377
-0.293392
-0.274119
-0.249233
-0.2338
-0.214487
-0.203225
-0.190021
-0.18079
-0.167319
-0.158158
-0.145446
-0.137041
-0.125687
-0.118281
-0.108407
-0.102025
-0.0936032
-0.0882422
-0.0813137
-0.077147
-0.0722327
-0.0702199
-0.0698401
-0.0744516
-0.0905513
-0.125153
-0.219477
-0.372501
-0.52575
-0.822383
-1.12189
-1.65797
-1.87038
-1.931
-1.94637
-1.94991
-13.7727
-11.6823
-10.5474
-9.1324
-8.40128
-7.46001
-6.95266
-6.2619
-5.88682
-5.3749
-5.11072
-4.77182
-4.55829
-4.20942
-3.99703
-3.66719
-3.47142
-3.17487
-3.00076
-2.73988
-2.58746
-2.36018
-2.22762
-2.03026
-1.91488
-1.74242
-1.63961
-1.48155
-1.37487
-1.18466
-1.00804
-0.923268
-0.820703
-0.764585
-0.686065
-0.641518
-0.577076
-0.540168
-0.486291
-0.455354
-0.410083
-0.384091
-0.346073
-0.324302
-0.292568
-0.274539
-0.248529
-0.234088
-0.213885
-0.20337
-0.189732
-0.181115
-0.167005
-0.158429
-0.145129
-0.137264
-0.125395
-0.118467
-0.108148
-0.102178
-0.0933748
-0.0883577
-0.0811053
-0.0771981
-0.0720079
-0.0700827
-0.0694353
-0.0735289
-0.0890211
-0.120436
-0.214855
-0.372197
-0.514664
-0.821647
-1.10407
-1.68282
-1.88257
-1.93472
-1.94735
-1.9502
-14.004
-11.5934
-10.5697
-9.06105
-8.41795
-7.41514
-6.96846
-6.2295
-5.89862
-5.34931
-5.11691
-4.75943
-4.57159
-4.19612
-4.00838
-3.65396
-3.48103
-3.16272
-3.00899
-2.7291
-2.59454
-2.35076
-2.23376
-2.02212
-1.92031
-1.73557
-1.64503
-1.47682
-1.38355
-1.1832
-0.998247
-0.924471
-0.815917
-0.76661
-0.682655
-0.643377
-0.574332
-0.541767
-0.484011
-0.456708
-0.408169
-0.385228
-0.344459
-0.325242
-0.291204
-0.275286
-0.24737
-0.234614
-0.212901
-0.203645
-0.189248
-0.181666
-0.166475
-0.158892
-0.144599
-0.137651
-0.124909
-0.11879
-0.107717
-0.102445
-0.0929965
-0.0885639
-0.0807641
-0.0773012
-0.0716528
-0.0698944
-0.0688407
-0.0721497
-0.0868531
-0.113198
-0.207713
-0.372485
-0.496995
-0.82189
-1.0744
-1.72281
-1.90067
-1.94001
-1.94871
-1.95059
-14.3318
-11.4491
-10.6114
-8.95512
-8.44905
-7.34806
-6.99599
-6.18081
-5.9192
-5.31109
-5.12814
-4.74029
-4.59243
-4.17536
-4.02643
-3.6335
-3.49649
-3.14402
-3.0223
-2.71253
-2.60602
-2.33631
-2.24371
-2.00962
-1.92909
-1.72498
-1.65357
-1.46912
-1.39654
-1.18115
-0.984027
-0.927085
-0.80878
-0.770038
-0.677474
-0.646442
-0.570144
-0.544386
-0.480526
-0.458924
-0.405242
-0.387089
-0.341993
-0.326784
-0.289123
-0.276521
-0.245611
-0.235504
-0.211426
-0.204132
-0.188497
-0.182525
-0.165645
-0.159629
-0.143779
-0.138272
-0.124161
-0.119315
-0.107057
-0.102882
-0.0924192
-0.088906
-0.0802504
-0.0774923
-0.0711425
-0.0696779
-0.0680713
-0.0703141
-0.0842185
-0.103232
-0.19776
-0.37438
-0.471307
-0.825023
-1.02889
-1.78163
-1.92429
-1.94653
-1.95034
-1.95106
-14.7749
-11.2231
-10.686
-8.80323
-8.504
-7.25107
-7.0421
-6.11002
-5.95368
-5.2559
-5.1476
-4.7116
-4.62409
-4.1439
-4.05427
-3.60285
-3.5206
-3.11613
-3.04316
-2.68787
-2.62407
-2.31479
-2.25935
-1.99101
-1.94283
-1.7091
-1.66667
-1.45697
-1.41527
-1.17838
-0.96422
-0.932172
-0.798479
-0.775637
-0.669848
-0.651332
-0.563949
-0.548544
-0.475363
-0.462435
-0.400905
-0.390037
-0.338341
-0.329233
-0.286048
-0.278496
-0.243028
-0.23696
-0.209285
-0.204958
-0.187365
-0.183826
-0.164386
-0.160762
-0.142549
-0.139242
-0.123045
-0.120139
-0.106075
-0.103572
-0.0915655
-0.0894551
-0.0795016
-0.0778278
-0.0704371
-0.0694672
-0.0671476
-0.0680115
-0.0813786
-0.0902441
-0.18452
-0.379461
-0.435344
-0.834147
-0.961413
-1.86484
-1.95273
-1.95377
-1.95209
-1.95155
-15.3601
-10.8766
-10.8144
-8.58803
-8.59713
-7.11236
-7.11717
-6.00824
-6.00986
-5.17718
-5.18021
-4.669
-4.67148
-4.09687
-4.09663
-3.55747
-3.55764
-3.07501
-3.07535
-2.65159
-2.65196
-2.28316
-2.28353
-1.96362
-1.96403
-1.6856
-1.68648
-1.43813
-1.44183
-1.17473
-0.937149
-0.941344
-0.783761
-0.78457
-0.658747
-0.658993
-0.554889
-0.555026
-0.467802
-0.467902
-0.394552
-0.39463
-0.332995
-0.333055
-0.281557
-0.281596
-0.239276
-0.239287
-0.206217
-0.20632
-0.185676
-0.185769
-0.162498
-0.162484
-0.140726
-0.14073
-0.1214
-0.121411
-0.104633
-0.104644
-0.0903175
-0.0903192
-0.0784226
-0.0783927
-0.0694752
-0.0693105
-0.0660964
-0.0652083
-0.0787179
-0.0738386
-0.167252
-0.390101
-0.385661
-0.854128
-0.862889
-1.98066
-1.98464
-1.96112
-1.95378
-1.95201
-16.1248
-10.3532
-11.0294
-8.28347
-8.75007
-6.91412
-7.23683
-5.86208
-6.09945
-5.06506
-5.23343
-4.60589
-4.742
-4.02689
-4.16058
-3.49054
-3.61402
-3.01461
-3.12454
-2.59837
-2.69465
-2.23679
-2.32055
-1.92345
-1.99641
-1.65096
-1.71629
-1.40923
-1.47924
-1.16993
-0.900426
-0.957006
-0.762726
-0.798585
-0.64262
-0.670843
-0.541673
-0.565017
-0.456761
-0.476319
-0.385273
-0.401701
-0.325191
-0.338947
-0.275012
-0.286397
-0.233838
-0.242944
-0.201827
-0.208518
-0.183163
-0.18865
-0.159684
-0.16508
-0.138037
-0.142995
-0.118985
-0.123358
-0.102522
-0.106291
-0.0884979
-0.0916606
-0.0768698
-0.0793136
-0.0681634
-0.0692759
-0.0649518
-0.0618287
-0.0767919
-0.0535001
-0.144805
-0.40983
-0.317059
-0.892494
-0.72
-2.14104
-2.01764
-1.96782
-1.95525
-1.9524
-17.1203
-9.57199
-11.3814
-7.85045
-8.99515
-6.62957
-7.42443
-5.65148
-6.23994
-4.90488
-5.31852
-4.51227
-4.8466
-3.923
-4.25671
-3.39192
-3.69935
-2.92587
-3.1992
-2.52029
-2.75954
-2.16879
-2.37684
-1.8645
-2.04556
-1.59991
-1.76101
-1.36527
-1.53186
-1.16355
-0.850679
-0.982721
-0.732502
-0.820291
-0.61914
-0.689004
-0.52237
-0.580284
-0.44062
-0.489172
-0.371707
-0.4125
-0.313786
-0.347957
-0.265463
-0.293764
-0.22594
-0.248617
-0.195532
-0.212004
-0.179421
-0.192915
-0.1555
-0.168978
-0.134071
-0.146423
-0.115438
-0.126316
-0.0994292
-0.108803
-0.0858415
-0.0937214
-0.0746285
-0.0807791
-0.0663614
-0.0694589
-0.0637589
-0.0577252
-0.0763952
-0.0285768
-0.115408
-0.443868
-0.221725
-0.960773
-0.513365
-2.36318
-2.04769
-1.97302
-1.95632
-1.95267
-18.4176
-8.41628
-11.9467
-7.23024
-9.38048
-6.21844
-7.71458
-5.34628
-6.45724
-4.6746
-5.45227
-4.3729
-5.00138
-3.76868
-4.40065
-3.24627
-3.8278
-2.79513
-3.31183
-2.40536
-2.85751
-2.06872
-2.46184
-1.77771
-2.11967
-1.5245
-1.82792
-1.29873
-1.60577
-1.15487
-0.783062
-1.02366
-0.688693
-0.85349
-0.584762
-0.716568
-0.494034
-0.603405
-0.416905
-0.508621
-0.351769
-0.42884
-0.29703
-0.361599
-0.251451
-0.304947
-0.214395
-0.257295
-0.186431
-0.21743
-0.173817
-0.199198
-0.149264
-0.174795
-0.128201
-0.151571
-0.110205
-0.130774
-0.0948776
-0.112601
-0.0819459
-0.0968559
-0.0713742
-0.0830644
-0.0638577
-0.0699931
-0.0625804
-0.052635
-0.0786612
0.00172882
-0.0763512
-0.49994
-0.0879543
-1.07652
-0.214856
-2.67196
-2.06813
-1.97592
-1.9569
-1.95282
18.4176
8.4163
11.9468
7.23025
9.38049
6.21845
7.71459
5.34628
6.45724
4.6746
5.45228
4.3729
5.00139
3.76868
4.40066
3.24627
3.8278
2.79513
3.31183
2.40536
2.85752
2.06872
2.46184
1.7777
2.11967
1.52449
1.82792
1.29873
1.60578
1.15487
0.783056
1.02366
0.688689
0.853492
0.584758
0.716569
0.494031
0.603406
0.416902
0.508622
0.351767
0.428842
0.297028
0.3616
0.251449
0.304949
0.214394
0.257296
0.186431
0.217431
0.173817
0.1992
0.149264
0.174797
0.128201
0.151573
0.110205
0.130777
0.094878
0.112603
0.0819463
0.0968584
0.0713746
0.0830669
0.0638579
0.0699957
0.0625796
0.0526388
0.078657
-0.00171806
0.0763462
0.499874
0.0879459
1.07638
0.214822
2.67164
2.06788
1.97568
1.95666
1.95258
17.1203
9.57204
11.3814
7.85049
8.9952
6.62961
7.42447
5.65152
6.23999
4.90492
5.31856
4.51231
4.84664
3.92304
4.25675
3.39195
3.69939
2.9259
3.19923
2.52031
2.75957
2.16882
2.37687
1.86452
2.04559
1.59994
1.76104
1.36529
1.53188
1.16356
0.850691
0.982738
0.732514
0.820306
0.619151
0.689017
0.52238
0.580296
0.440629
0.489182
0.371714
0.412509
0.313793
0.347965
0.265468
0.293772
0.225945
0.248623
0.195536
0.21201
0.179426
0.192921
0.155505
0.168983
0.134075
0.146428
0.115441
0.12632
0.0994318
0.108806
0.0858435
0.0937243
0.0746299
0.0807814
0.066362
0.0694607
0.0637582
0.0577268
0.0763908
0.0285807
0.115395
0.443807
0.221695
0.960644
0.51329
2.3629
2.04744
1.97278
1.95609
1.95244
16.1248
10.3533
11.0295
8.28355
8.75015
6.91419
7.2369
5.86216
6.09952
5.06513
5.2335
4.60596
4.74206
4.02695
4.16064
3.4906
3.61408
3.01467
3.12459
2.59842
2.6947
2.23684
2.3206
1.92349
1.99646
1.651
1.71633
1.40927
1.47929
1.16996
0.900454
0.957035
0.762752
0.798612
0.642643
0.670867
0.541694
0.565038
0.45678
0.476337
0.38529
0.401717
0.325205
0.338962
0.275024
0.28641
0.233848
0.242955
0.201837
0.208528
0.183172
0.18866
0.159692
0.165088
0.138044
0.143002
0.118991
0.123364
0.102527
0.106296
0.0885013
0.0916642
0.0768721
0.0793162
0.0681645
0.0692774
0.0649512
0.061829
0.0767873
0.053499
0.144788
0.409773
0.317014
0.892372
0.719899
2.14077
2.01739
1.96757
1.95501
1.95216
15.3602
10.8767
10.8145
8.58812
8.59722
7.11245
7.11725
6.00832
6.00994
5.17726
5.18029
4.66907
4.67156
4.09694
4.0967
3.55753
3.5577
3.07508
3.07541
2.65165
2.65202
2.28322
2.28359
1.96367
1.96409
1.68566
1.68653
1.43818
1.44188
1.17477
0.937183
0.941378
0.783793
0.784601
0.658775
0.659021
0.554913
0.555051
0.467824
0.467923
0.394571
0.394649
0.333012
0.333071
0.281572
0.28161
0.239289
0.2393
0.206228
0.206331
0.185687
0.185779
0.162507
0.162493
0.140734
0.140738
0.121407
0.121418
0.104639
0.104649
0.0903215
0.0903232
0.0784254
0.0783953
0.0694766
0.0693119
0.066096
0.0652078
0.0787132
0.0738342
0.167232
0.390047
0.385607
0.854012
0.862771
1.98042
1.98439
1.96088
1.95354
1.95177
14.775
11.2232
10.6861
8.80332
8.50409
7.25116
7.04218
6.1101
5.95376
5.25598
5.14768
4.71167
4.62416
4.14398
4.05435
3.60292
3.52067
3.1162
3.04323
2.68794
2.62413
2.31486
2.25941
1.99107
1.94289
1.70916
1.66672
1.45702
1.41532
1.17843
0.964258
0.932208
0.798512
0.775669
0.669878
0.651361
0.563975
0.54857
0.475386
0.462458
0.400925
0.390057
0.338359
0.329251
0.286064
0.278511
0.243042
0.236974
0.209298
0.20497
0.187376
0.183837
0.164396
0.160772
0.142557
0.13925
0.123052
0.120145
0.106081
0.103577
0.09157
0.0894592
0.0795048
0.0778306
0.0704388
0.0694685
0.0671474
0.0680106
0.0813738
0.0902374
0.184498
0.379409
0.435284
0.834034
0.961284
1.8646
1.95249
1.95353
1.95184
1.95131
14.3318
11.4492
10.6115
8.95521
8.44914
7.34815
6.99608
6.18089
5.91928
5.31117
5.12822
4.74037
4.59251
4.17543
4.0265
3.63358
3.49656
3.14409
3.02237
2.7126
2.60609
2.33637
2.24377
2.00968
1.92914
1.72503
1.65363
1.46917
1.39659
1.18119
0.984066
0.927122
0.808815
0.770071
0.677505
0.646471
0.570172
0.544413
0.48055
0.458947
0.405263
0.387109
0.342012
0.326802
0.289139
0.276537
0.245626
0.235518
0.211439
0.204144
0.188509
0.182537
0.165656
0.159638
0.143788
0.138281
0.124168
0.119322
0.107063
0.102887
0.092424
0.0889103
0.0802538
0.0774953
0.0711445
0.0696793
0.0680712
0.0703129
0.0842136
0.103224
0.197736
0.37433
0.471243
0.824912
1.02875
1.7814
1.92405
1.94628
1.9501
1.95082
14.0041
11.5935
10.5698
9.06114
8.41804
7.41523
6.96855
6.22958
5.8987
5.34939
5.11699
4.75951
4.57167
4.1962
4.00845
3.65403
3.4811
3.16279
3.00906
2.72916
2.5946
2.35082
2.23382
2.02218
1.92037
1.73562
1.64508
1.47687
1.3836
1.18325
0.998287
0.924509
0.815952
0.766643
0.682686
0.643406
0.57436
0.541793
0.484035
0.456731
0.40819
0.385249
0.344478
0.32526
0.29122
0.275302
0.247384
0.234628
0.212914
0.203657
0.18926
0.181677
0.166486
0.158902
0.144608
0.137659
0.124917
0.118797
0.107724
0.102451
0.0930015
0.0885683
0.0807677
0.0773042
0.071655
0.0698958
0.0688408
0.0721484
0.0868482
0.113189
0.207689
0.372435
0.496928
0.82178
1.07426
1.7226
1.90043
1.93977
1.94847
1.95035
13.7727
11.6823
10.5475
9.13249
8.40137
7.4601
6.95274
6.26199
5.8869
5.37498
5.1108
4.7719
4.55837
4.20949
3.9971
3.66726
3.47149
3.17493
3.00083
2.73994
2.58752
2.36024
2.22768
2.03032
1.91493
1.74248
1.63967
1.4816
1.37492
1.18471
1.00808
0.923305
0.820737
0.764618
0.686095
0.641547
0.577103
0.540194
0.486315
0.455377
0.410105
0.384112
0.346092
0.32432
0.292584
0.274555
0.248543
0.234102
0.213898
0.203382
0.189744
0.181127
0.167016
0.158439
0.145138
0.137273
0.125403
0.118474
0.108155
0.102183
0.0933799
0.0883622
0.0811091
0.0772013
0.0720102
0.0700843
0.0694356
0.0735277
0.0890163
0.120426
0.21483
0.372148
0.514596
0.821538
1.10393
1.6826
1.88234
1.93448
1.94711
1.94995
13.6251
11.733
10.5364
9.17653
8.39314
7.48766
6.94432
6.28181
5.88061
5.39069
5.10764
4.77931
4.55052
4.21736
3.99049
3.67516
3.46594
3.18221
2.99611
2.74641
2.58346
2.3659
2.22417
2.0352
1.91181
1.74657
1.63649
1.48429
1.3696
1.18565
1.01422
0.922833
0.823682
0.763505
0.688162
0.640499
0.578759
0.539287
0.48769
0.454608
0.411258
0.383466
0.347065
0.323787
0.293408
0.274134
0.249247
0.233814
0.214499
0.203237
0.190032
0.180801
0.167329
0.158168
0.145455
0.13705
0.125695
0.118288
0.108414
0.102031
0.0936084
0.0882468
0.0813175
0.0771503
0.0722352
0.0702217
0.0698405
0.0744505
0.0905466
0.125142
0.219452
0.372453
0.525681
0.822275
1.12174
1.65776
1.87014
1.93076
1.94613
1.94966
13.5531
11.7559
10.532
9.19756
8.38984
7.50078
6.9407
6.29121
5.87791
5.39816
5.10633
4.78277
4.54688
4.22101
3.98745
3.67885
3.46341
3.18562
2.99396
2.74945
2.58162
2.36855
2.22258
2.03749
1.91039
1.74848
1.63502
1.48551
1.36708
1.18611
1.01718
0.922689
0.825085
0.763016
0.689136
0.640028
0.579538
0.538878
0.488336
0.45426
0.411801
0.383174
0.347522
0.323547
0.293796
0.273946
0.249578
0.233686
0.214785
0.203175
0.190166
0.18065
0.167474
0.158043
0.145602
0.136948
0.125831
0.118204
0.108535
0.101962
0.0937159
0.0881953
0.0814164
0.0771298
0.0723443
0.0702938
0.0700455
0.0749134
0.0913361
0.127469
0.221725
0.372746
0.531028
0.822893
1.13009
1.64587
1.86402
1.92884
1.94562
1.94951
-13.5672
-11.8848
-10.8264
-9.82008
-9.27968
-8.78052
-8.50504
-8.23669
-8.08789
-7.94114
-7.84006
-7.70639
-7.61226
-7.48963
-7.40407
-7.29353
-7.21662
-7.11748
-7.04864
-6.96011
-6.89881
-6.82025
-6.76604
-6.69677
-6.649
-6.58791
-6.54509
-6.48872
-6.44439
-6.37716
-6.31508
-6.28084
-6.24618
-6.22449
-6.19915
-6.18254
-6.16243
-6.14909
-6.13275
-6.12188
-6.10852
-6.09962
-6.08869
-6.08143
-6.07256
-6.06672
-6.05968
-6.05518
-6.04994
-6.04681
-6.04343
-6.04109
-6.03804
-6.03605
-6.03373
-6.03245
-6.03129
-6.03101
-6.03147
-6.03263
-6.03543
-6.03877
-6.04523
-6.0522
-6.06511
-6.07909
-6.10549
-6.13679
-6.20107
-6.29461
-6.50602
-6.79935
-7.06152
-7.49793
-7.91455
-8.57723
-8.85623
-8.93903
-8.96046
-8.96544
-13.6345
-11.8599
-10.8243
-9.80146
-9.27804
-8.77159
-8.50477
-8.23192
-8.08782
-7.93932
-7.84138
-7.70482
-7.6134
-7.48815
-7.40507
-7.29219
-7.21751
-7.11628
-7.04943
-6.95902
-6.89951
-6.81928
-6.76664
-6.69592
-6.64954
-6.58718
-6.54563
-6.48824
-6.44531
-6.37696
-6.31397
-6.28085
-6.24566
-6.22464
-6.1988
-6.18268
-6.16216
-6.14921
-6.13253
-6.12198
-6.10834
-6.0997
-6.08854
-6.0815
-6.07244
-6.06677
-6.05958
-6.05521
-6.04986
-6.04682
-6.04339
-6.04112
-6.038
-6.03606
-6.03369
-6.03244
-6.03125
-6.03098
-6.03144
-6.03257
-6.03541
-6.03864
-6.04521
-6.05196
-6.06507
-6.07859
-6.1053
-6.13548
-6.1999
-6.28989
-6.50275
-6.8006
-7.05455
-7.49872
-7.90471
-8.59257
-8.86408
-8.94149
-8.96112
-8.96564
-13.7728
-11.8054
-10.8217
-9.76287
-9.27574
-8.75307
-8.50474
-8.222
-8.08793
-7.93549
-7.84424
-7.70145
-7.61591
-7.48499
-7.40727
-7.28933
-7.21947
-7.1137
-7.05117
-6.95671
-6.90104
-6.81722
-6.76798
-6.69409
-6.65072
-6.58562
-6.54681
-6.48719
-6.44724
-6.37654
-6.31167
-6.28096
-6.24458
-6.22498
-6.19806
-6.183
-6.16158
-6.14948
-6.13207
-6.1222
-6.10796
-6.09988
-6.08823
-6.08164
-6.07218
-6.06688
-6.05937
-6.05528
-6.04969
-6.04685
-6.04331
-6.04119
-6.03791
-6.0361
-6.03361
-6.03243
-6.03118
-6.03093
-6.03139
-6.03244
-6.03537
-6.03838
-6.04519
-6.05147
-6.06501
-6.07757
-6.10496
-6.13279
-6.19771
-6.28026
-6.49607
-6.8036
-7.03997
-7.50104
-7.88359
-8.62458
-8.87969
-8.94626
-8.96238
-8.96602
-13.9899
-11.7116
-10.8222
-9.70143
-9.27486
-8.7236
-8.5061
-8.20615
-8.08878
-7.92921
-7.84917
-7.69579
-7.62023
-7.47971
-7.41109
-7.28455
-7.22288
-7.10939
-7.05419
-6.95284
-6.90369
-6.81377
-6.7703
-6.69105
-6.65277
-6.58302
-6.54883
-6.48535
-6.45041
-6.37589
-6.308
-6.28129
-6.24283
-6.22562
-6.19685
-6.18358
-6.16064
-6.14996
-6.13131
-6.1226
-6.10734
-6.10021
-6.08772
-6.08191
-6.07176
-6.06708
-6.05903
-6.05541
-6.0494
-6.0469
-6.04317
-6.0413
-6.03776
-6.03616
-6.03348
-6.03243
-6.03107
-6.03084
-6.03131
-6.03223
-6.03533
-6.03797
-6.04518
-6.05068
-6.06499
-6.07595
-6.10461
-6.12862
-6.19481
-6.2653
-6.48573
-6.80945
-7.01641
-7.5065
-7.84813
-8.67601
-8.90285
-8.95304
-8.96414
-8.96655
-14.298
-11.5622
-10.8319
-9.61223
-9.27899
-8.68078
-8.51077
-8.183
-8.09133
-7.91976
-7.85704
-7.68703
-7.62716
-7.47156
-7.41722
-7.27718
-7.22836
-7.10276
-7.05906
-6.9469
-6.90799
-6.80846
-6.77405
-6.68637
-6.65609
-6.57899
-6.55202
-6.48238
-6.45517
-6.37499
-6.30269
-6.28209
-6.24023
-6.22672
-6.19503
-6.18454
-6.15921
-6.15077
-6.13016
-6.12327
-6.1064
-6.10076
-6.08695
-6.08235
-6.07112
-6.06742
-6.0585
-6.05564
-6.04898
-6.04701
-6.04295
-6.04148
-6.03754
-6.03627
-6.03328
-6.03245
-6.03092
-6.03073
-6.03122
-6.03193
-6.03532
-6.03738
-6.04525
-6.04955
-6.06511
-6.07363
-6.10445
-6.12276
-6.19174
-6.24435
-6.47125
-6.81997
-6.98152
-7.5179
-7.79323
-8.75149
-8.93307
-8.96139
-8.96625
-8.96718
-14.7156
-11.3327
-10.8612
-9.48759
-9.29373
-8.62085
-8.52176
-8.15042
-8.09709
-7.90597
-7.86921
-7.67386
-7.63793
-7.45937
-7.4268
-7.26617
-7.23691
-7.09286
-7.06668
-6.93802
-6.91471
-6.80056
-6.77995
-6.6794
-6.66128
-6.57297
-6.55693
-6.47771
-6.46205
-6.37376
-6.29531
-6.28375
-6.2365
-6.22855
-6.19235
-6.1861
-6.1571
-6.15206
-6.12845
-6.12433
-6.105
-6.10163
-6.0858
-6.08305
-6.07019
-6.06797
-6.05774
-6.05602
-6.04837
-6.04721
-6.04264
-6.04176
-6.03721
-6.03644
-6.03299
-6.03249
-6.03071
-6.03059
-6.03112
-6.03153
-6.03535
-6.03656
-6.04545
-6.04796
-6.06551
-6.07041
-6.10478
-6.11487
-6.18932
-6.21642
-6.4519
-6.83798
-6.93164
-7.53974
-7.71101
-8.85804
-8.96942
-8.97068
-8.96852
-8.96784
-15.2686
-10.9867
-10.9266
-9.31577
-9.32764
-8.53798
-8.54364
-8.10512
-8.10836
-7.88601
-7.88773
-7.65433
-7.65441
-7.44135
-7.44149
-7.24991
-7.25007
-7.07825
-7.07839
-6.92494
-6.92507
-6.78892
-6.78904
-6.66914
-6.66928
-6.56405
-6.56436
-6.47049
-6.47183
-6.37215
-6.28526
-6.28683
-6.2312
-6.23151
-6.18848
-6.18858
-6.15404
-6.1541
-6.12597
-6.12601
-6.10297
-6.103
-6.08414
-6.08416
-6.06883
-6.06884
-6.05664
-6.05665
-6.04751
-6.04754
-6.04217
-6.04219
-6.03674
-6.03673
-6.03259
-6.03258
-6.03044
-6.03043
-6.03103
-6.031
-6.03549
-6.03543
-6.04592
-6.04578
-6.06641
-6.06601
-6.10609
-6.10441
-6.1888
-6.18015
-6.42652
-6.86768
-6.86118
-7.57905
-7.58976
-9.00602
-9.01018
-8.9801
-8.97073
-8.96847
-15.9928
-10.4718
-11.0541
-9.07906
-9.39362
-8.4233
-8.58331
-8.04217
-8.12866
-7.85709
-7.91567
-7.62547
-7.67942
-7.4148
-7.46387
-7.22598
-7.2701
-7.05677
-7.09626
-6.90572
-6.94088
-6.77183
-6.80294
-6.65408
-6.6815
-6.55092
-6.57557
-6.45948
-6.48566
-6.37003
-6.27167
-6.29221
-6.22366
-6.2362
-6.18289
-6.19243
-6.1496
-6.15726
-6.12236
-6.12861
-6.10002
-6.10513
-6.08172
-6.08589
-6.06685
-6.0702
-6.05505
-6.05763
-6.04628
-6.04808
-6.0415
-6.04285
-6.03604
-6.03718
-6.03202
-6.03276
-6.03009
-6.03024
-6.03096
-6.03028
-6.03581
-6.03388
-6.0468
-6.04276
-6.06815
-6.06
-6.10907
-6.0905
-6.192
-6.13369
-6.39336
-6.91529
-6.76174
-7.64665
-7.41228
-9.21047
-9.05231
-8.9887
-8.97266
-8.96901
-16.9379
-9.71283
-11.2838
-8.75077
-9.51101
-8.26343
-8.65103
-7.95411
-8.1633
-7.81498
-7.95756
-7.58285
-7.71718
-7.3757
-7.49773
-7.19078
-7.30044
-7.02518
-7.12333
-6.87747
-6.96487
-6.74675
-6.82404
-6.63197
-6.70004
-6.53158
-6.5924
-6.44278
-6.50517
-6.36722
-6.25333
-6.30115
-6.21288
-6.24353
-6.17478
-6.19839
-6.14313
-6.16213
-6.11711
-6.1326
-6.09573
-6.1084
-6.0782
-6.08854
-6.06399
-6.0723
-6.05275
-6.05918
-6.04452
-6.04897
-6.0405
-6.04382
-6.03503
-6.03788
-6.03122
-6.03307
-6.02962
-6.03003
-6.03094
-6.02931
-6.03643
-6.03173
-6.04837
-6.03857
-6.07124
-6.05169
-6.11475
-6.0718
-6.20159
-6.07451
-6.3497
-6.98993
-6.62077
-7.75902
-7.15351
-9.49319
-9.09065
-8.99539
-8.97409
-8.96941
-18.172
-8.60195
-11.6777
-8.29071
-9.70866
-8.0381
-8.76209
-7.82979
-8.2202
-7.7532
-8.02012
-7.51984
-7.77394
-7.31805
-7.54872
-7.1389
-7.34616
-6.97863
-7.16415
-6.83588
-7.00106
-6.70983
-6.8559
-6.59944
-6.72803
-6.50306
-6.61765
-6.41758
-6.53268
-6.36344
-6.22851
-6.31552
-6.19734
-6.25484
-6.16297
-6.20749
-6.1337
-6.16955
-6.10943
-6.13868
-6.08944
-6.11339
-6.07306
-6.09259
-6.0598
-6.07551
-6.04941
-6.06157
-6.042
-6.05037
-6.03903
-6.04528
-6.03355
-6.03896
-6.03008
-6.0336
-6.029
-6.0298
-6.03103
-6.028
-6.03752
-6.02873
-6.05099
-6.03268
-6.07642
-6.04008
-6.12468
-6.04618
-6.22146
-5.99923
-6.29145
-7.10493
-6.41949
-7.94115
-6.77693
-9.88559
-9.11671
-8.99912
-8.97485
-8.96962
)
;

boundaryField
{
    F1_1
    {
        type            calculated;
        value           nonuniform List<scalar> 
80
(
18.8714
7.93614
11.9247
8.00753
9.8313
7.87581
8.83039
7.69025
8.25731
7.53037
7.87714
7.46993
7.73467
7.27076
7.53846
7.09688
7.34826
6.94195
7.17169
6.80398
7.01077
6.68214
6.86613
6.5755
6.73803
6.48239
6.62743
6.39951
6.5444
6.35867
6.21287
6.32205
6.18695
6.2599
6.15499
6.21159
6.12731
6.17292
6.10425
6.14147
6.08521
6.11569
6.0696
6.09447
6.05699
6.077
6.04717
6.06265
6.04029
6.05093
6.03795
6.0459
6.03251
6.0394
6.02927
6.03375
6.02853
6.02953
6.03102
6.02712
6.03814
6.02688
6.05257
6.02915
6.07959
6.03324
6.13089
6.03127
6.23451
5.95705
6.25802
7.17449
6.30095
8.05338
6.55375
10.1138
9.12531
9.0001
8.97502
8.96965
)
;
    }
    F1_2
    {
        type            calculated;
        value           nonuniform List<scalar> 
80
(
-19.1519
-7.72761
-12.2943
-6.86451
-9.61539
-5.97519
-7.89046
-5.16549
-6.58893
-4.53863
-5.53381
-4.28945
-5.0937
-3.67643
-4.48689
-3.15939
-3.9049
-2.7172
-3.37949
-2.33687
-2.91638
-2.0091
-2.51291
-1.72598
-2.16418
-1.47949
-1.86799
-1.25868
-1.64895
-1.14983
-0.744068
-1.04869
-0.662724
-0.873524
-0.564309
-0.733156
-0.47716
-0.617307
-0.402777