/*--------------------------------*- C++ -*----------------------------------*\
| =========                 |                                                 |
| \\      /  F ield         | OpenFOAM: The Open Source CFD Toolbox           |
|  \\    /   O peration     | Version:  5.x                                   |
|   \\  /    A nd           | Web:      www.OpenFOAM.org                      |
|    \\/     M anipulation  |                                                 |
\*---------------------------------------------------------------------------*/
FoamFile
{
    version     2.0;
    format      ascii;
    class       volScalarField;
    location    "2.8";
    object      gradTx;
}
// * * * * * * * * * * * * * * * * * * * * * * * * * * * * * * * * * * * * * //

dimensions      [0 -1 0 1 0 0 0];

internalField   nonuniform List<scalar> 
3200
(
45.3199
3.69731
1.64014
1.5319
0.808711
0.765252
0.461602
0.442227
0.289685
0.278671
0.168094
0.163993
0.177685
0.177832
0.170366
0.169551
0.157176
0.156095
0.142412
0.141264
0.127376
0.126236
0.112747
0.111674
0.0993476
0.0984735
0.0893979
0.0893901
0.0942248
0.163224
0.081703
0.0546886
0.0528765
0.0412428
0.0404253
0.0329377
0.0323886
0.0267912
0.0263716
0.0219334
0.0215962
0.0179618
0.0176816
0.0146068
0.014364
0.0116262
0.0113998
0.00872099
0.00847907
0.00529499
0.00515993
0.00511849
0.00506565
0.00391723
0.00379652
0.0020455
0.00187176
-0.000533456
-0.000778387
-0.00421831
-0.00458635
-0.00990719
-0.0105152
-0.0196029
-0.0207494
-0.038561
-0.0412242
-0.084248
-0.0931404
-0.238465
-0.616177
-0.435262
-0.679948
-0.711253
-1.26573
-1.24017
-0.0556863
-0.00751464
-0.00152243
-52.9622
47.9927
3.09291
1.56933
1.34716
0.768349
0.675568
0.431675
0.390246
0.268036
0.244636
0.157791
0.149035
0.15831
0.158515
0.152712
0.150993
0.141232
0.138942
0.128113
0.125681
0.114683
0.112266
0.101587
0.0993145
0.0895783
0.0877419
0.0807472
0.080893
0.0875742
0.136092
0.0758608
0.0510889
0.0470536
0.0376144
0.0358611
0.0298919
0.0287238
0.0242781
0.0233872
0.0198655
0.0191498
0.0162666
0.015672
0.0132325
0.012717
0.0105439
0.010063
0.00793527
0.00742467
0.00493957
0.00465261
0.00457434
0.0044592
0.00355261
0.0032968
0.00190844
0.00153959
-0.00037128
-0.00089186
-0.00362867
-0.0044118
-0.00865297
-0.00994925
-0.0172186
-0.019674
-0.0340373
-0.0398064
-0.0752513
-0.0951059
-0.226818
-0.516777
-0.413945
-0.600594
-0.665046
-1.08288
-1.02937
-0.121606
-0.0208568
-0.00437776
-54.7567
50.6488
2.56611
1.44645
1.17669
0.708548
0.59193
0.393651
0.341497
0.242436
0.21314
0.144365
0.133356
0.139298
0.139438
0.134895
0.132758
0.124989
0.122132
0.113479
0.11044
0.101646
0.098627
0.0900902
0.0872534
0.0794932
0.0772169
0.0718111
0.0721347
0.0792505
0.113309
0.0686006
0.0466601
0.0414471
0.0336787
0.0314658
0.0266541
0.0251902
0.0216228
0.0205081
0.0176853
0.0167902
0.0144799
0.0137361
0.0117811
0.0111363
0.00939385
0.00879208
0.00708489
0.00644927
0.00449626
0.00413698
0.00403174
0.00388448
0.00316207
0.00284249
0.00173073
0.00126923
-0.000264573
-0.000916541
-0.00311704
-0.0040988
-0.00751641
-0.00914427
-0.0150268
-0.0181222
-0.0298571
-0.0372015
-0.0668782
-0.0925972
-0.208842
-0.43309
-0.381049
-0.526128
-0.604703
-0.918895
-0.852743
-0.155246
-0.030828
-0.00671795
-56.5509
53.2843
2.10468
1.28959
1.01415
0.634687
0.511559
0.349783
0.294626
0.214046
0.183223
0.128628
0.116999
0.120519
0.120549
0.116981
0.114748
0.10855
0.105553
0.0986209
0.0954306
0.0883788
0.0852088
0.0783658
0.0753895
0.0691889
0.0668174
0.0626462
0.063105
0.0698496
0.0936786
0.06043
0.0415624
0.0359431
0.029521
0.0271746
0.0232824
0.0217408
0.0188694
0.0176972
0.015428
0.0144871
0.0126304
0.0118486
0.0102773
0.00959941
0.00819816
0.00756539
0.00619165
0.00552659
0.00398923
0.00361123
0.00349089
0.00333286
0.00275552
0.00241999
0.00152714
0.0010419
-0.000193002
-0.000879143
-0.00265402
-0.00368823
-0.00645133
-0.00816899
-0.0129463
-0.0162247
-0.0258526
-0.0337032
-0.0586633
-0.0864674
-0.186546
-0.360454
-0.340268
-0.454322
-0.534936
-0.77012
-0.701368
-0.165962
-0.036787
-0.00831428
-58.345
55.8984
1.69717
1.11114
0.855776
0.550575
0.432736
0.301652
0.248773
0.183666
0.154258
0.111174
0.100037
0.10188
0.101805
0.0990153
0.0968976
0.0919829
0.0891324
0.0836132
0.0805755
0.0749564
0.0719378
0.0664869
0.0636547
0.0587317
0.05649
0.0532963
0.0538242
0.0597655
0.0763312
0.0516845
0.0359351
0.0304713
0.0252004
0.0229453
0.0198169
0.0183447
0.0160481
0.0149303
0.0131176
0.0122207
0.010738
0.00999273
0.00873777
0.00809148
0.00697173
0.00636833
0.00527007
0.00463882
0.00343585
0.00307522
0.0029516
0.00279809
0.00233939
0.00201988
0.00130735
0.000844675
-0.000143259
-0.000798073
-0.00222051
-0.00320838
-0.00542795
-0.00707121
-0.0109258
-0.0140731
-0.0219191
-0.0295205
-0.0503347
-0.0774466
-0.161296
-0.295582
-0.294118
-0.383854
-0.458986
-0.633503
-0.568659
-0.160429
-0.0387179
-0.00904401
-60.1388
58.4924
1.3332
0.919468
0.699397
0.458969
0.354444
0.250393
0.203409
0.151859
0.125841
0.0924423
0.0825564
0.083318
0.0831695
0.0810226
0.079159
0.0753336
0.0728187
0.0685064
0.0658238
0.0614302
0.0587642
0.0545034
0.0520037
0.0481674
0.0462009
0.0437977
0.044327
0.0492568
0.0606327
0.0425834
0.0298965
0.024992
0.0207593
0.018751
0.0162851
0.0149816
0.0131797
0.0121912
0.0107706
0.0099777
0.00881597
0.0081572
0.00717385
0.00660246
0.00572462
0.00519106
0.00432981
0.00377394
0.00284881
0.00252977
0.00241356
0.00227558
0.00191777
0.00163558
0.00107767
0.00066856
-0.000106738
-0.000686194
-0.00180428
-0.00267917
-0.00442753
-0.0058849
-0.0089334
-0.0117335
-0.0179952
-0.0248092
-0.0417541
-0.0661563
-0.134029
-0.23614
-0.24432
-0.31397
-0.379061
-0.506459
-0.449685
-0.143435
-0.0369674
-0.00888231
-61.9322
61.0689
1.00334
0.72005
0.543833
0.361928
0.276134
0.196852
0.158229
0.119032
0.0977199
0.0727704
0.06465
0.0647928
0.0646142
0.0630188
0.0614992
0.0586322
0.056577
0.0533346
0.0511407
0.047835
0.0456546
0.0424497
0.0404063
0.0375285
0.0359294
0.0341819
0.034654
0.0384906
0.0461114
0.0332681
0.0235468
0.019486
0.0162293
0.0145752
0.012707
0.0116385
0.0102787
0.00946942
0.00839847
0.00774943
0.00687385
0.00633463
0.00559343
0.00512569
0.00446374
0.0040269
0.00337735
0.00292383
0.00223754
0.00197623
0.00187644
0.00176192
0.00149318
0.00126238
0.000842116
0.000507174
-7.79637e-05
-0.000552683
-0.0013977
-0.00211494
-0.00343867
-0.00463488
-0.00695091
-0.00925538
-0.0140493
-0.0196927
-0.0328751
-0.0531271
-0.105393
-0.180455
-0.192063
-0.244268
-0.296644
-0.386783
-0.340691
-0.11845
-0.0320815
-0.00788678
-63.7254
63.6311
0.699036
0.51635
0.388498
0.261043
0.197564
0.141686
0.113072
0.0854889
0.0697443
0.0524256
0.0464133
0.0462806
0.0461159
0.0450122
0.0438935
0.0418985
0.0403829
0.038121
0.0365023
0.0341949
0.032586
0.0303496
0.0288425
0.0268386
0.025664
0.0244776
0.0248466
0.0275731
0.032409
0.023828
0.0169707
0.0139479
0.0116353
0.010408
0.00909686
0.00830707
0.00735578
0.0067581
0.00600945
0.00553022
0.00491826
0.00452013
0.00400206
0.00365667
0.00319385
0.00287124
0.00241705
0.00208305
0.00160929
0.00141625
0.00133994
0.00125447
0.00106713
0.000896819
0.000603209
0.000355862
-5.35399e-05
-0.000404294
-0.000996157
-0.00152639
-0.00245486
-0.00334
-0.00496883
-0.00667765
-0.0100693
-0.0142745
-0.0237134
-0.0388174
-0.0758443
-0.127308
-0.138182
-0.17456
-0.212716
-0.272556
-0.238742
-0.0880298
-0.0247087
-0.00618007
-65.5184
66.1829
0.412474
0.310458
0.233147
0.157601
0.11869
0.0854294
0.0678746
0.0514731
0.041832
0.0316287
0.0279416
0.0277699
0.0276553
0.0270063
0.0263229
0.0251457
0.0242188
0.0228818
0.0218914
0.020527
0.0195426
0.0182203
0.0172985
0.0161155
0.0153992
0.0147111
0.014945
0.0165714
0.0192433
0.0143191
0.0102414
0.00838148
0.00699791
0.00624414
0.00546593
0.00498213
0.00441871
0.00405281
0.00360965
0.00331631
0.00295411
0.00271041
0.00240377
0.00219235
0.00191834
0.00172085
0.00145195
0.00124787
0.00096982
0.000851621
0.000803821
0.000751128
0.000640431
0.000536227
0.000362496
0.000211077
-3.14144e-05
-0.000246212
-0.000597034
-0.000921864
-0.00147273
-0.00201534
-0.00298351
-0.00403256
-0.0060568
-0.008647
-0.0143251
-0.0236308
-0.0457185
-0.0757854
-0.0832809
-0.10478
-0.127921
-0.162075
-0.14147
-0.0541141
-0.0155442
-0.003933
-67.3111
68.7284
0.136344
0.103578
0.0777266
0.0526926
0.0395907
0.0285449
0.0226311
0.017187
0.0139423
0.0105713
0.00932946
0.00925705
0.0092161
0.00900188
0.00877216
0.00838291
0.00807119
0.00762871
0.00729555
0.00684394
0.00651278
0.00607514
0.00576509
0.00537384
0.00513325
0.00490776
0.0049878
0.00552797
0.00638165
0.00477638
0.00342348
0.00279605
0.00233539
0.00208132
0.00182324
0.00166039
0.00147375
0.00135062
0.00120386
0.00110515
0.000985209
0.000903212
0.000801662
0.000730522
0.000639771
0.000573316
0.000484255
0.000415648
0.000323964
0.000284186
0.000267918
0.000250123
0.000213495
0.000178439
0.000120916
6.99637e-05
-1.0368e-05
-8.26606e-05
-0.000198923
-0.000308269
-0.000490916
-0.00067363
-0.000994935
-0.00134845
-0.00202162
-0.00289595
-0.00479164
-0.00793293
-0.0152735
-0.0251653
-0.0278198
-0.0349352
-0.0426849
-0.0537849
-0.0468672
-0.018247
-0.0053013
-0.00134911
-69.1037
68.7352
0.150223
0.127931
0.107094
0.0849357
0.0724625
0.0605235
0.0531283
0.0446755
0.0385625
0.0308186
0.0280015
0.0280858
0.027964
0.0271076
0.0261956
0.0246643
0.0234679
0.0218132
0.020613
0.0190494
0.0179492
0.016557
0.015607
0.0144553
0.0137692
0.0131569
0.0134101
0.0149786
0.0174276
0.0131775
0.00962348
0.00798793
0.00680257
0.00614905
0.00548218
0.00505666
0.0045616
0.00423004
0.00382789
0.00355352
0.00321484
0.00298064
0.00268705
0.00247935
0.00221145
0.00201214
0.00174015
0.00152471
0.00123274
0.00112736
0.00113443
0.00112994
0.00109351
0.00105444
0.000988619
0.000936911
0.00086492
0.000811835
0.000741078
0.000688086
0.000615019
0.000552836
0.000453397
0.000340574
0.000113607
-0.000235993
-0.00107222
-0.00265133
-0.00653862
-0.0122413
-0.0155048
-0.022515
-0.0299923
-0.0409987
-0.0365229
-0.0142718
-0.00415092
-0.00105641
-69.8052
66.203
0.454021
0.383736
0.321334
0.25442
0.217366
0.181389
0.159427
0.133933
0.115753
0.0922589
0.0838885
0.0842658
0.0839215
0.0813252
0.0786115
0.0739796
0.0704222
0.0654215
0.0618537
0.0571297
0.0538594
0.0496534
0.0468292
0.0433474
0.0413047
0.0394362
0.0401779
0.0449008
0.0525508
0.0395048
0.0287938
0.0239459
0.0203865
0.0184478
0.016437
0.0151728
0.0136783
0.012693
0.0114786
0.0106632
0.0096404
0.00894435
0.00805776
0.0074405
0.00663165
0.00603937
0.00521824
0.00457724
0.00369078
0.00337761
0.00340378
0.00339112
0.00328067
0.00316444
0.00296533
0.00281158
0.00259404
0.00243624
0.00222255
0.00206509
0.00184465
0.00166003
0.00136075
0.00102631
0.000345752
-0.000688489
-0.00318691
-0.00786163
-0.0195432
-0.0368216
-0.0463646
-0.0675262
-0.0898357
-0.123615
-0.11028
-0.0423301
-0.0121717
-0.00307971
-69.4156
63.6636
0.767959
0.639225
0.535756
0.42271
0.362227
0.301694
0.265868
0.222898
0.193156
0.153094
0.139426
0.140475
0.139969
0.135548
0.131104
0.123252
0.117434
0.108973
0.103141
0.0951522
0.0898073
0.0826948
0.078078
0.0721821
0.0688334
0.0656114
0.0667867
0.0747063
0.0885023
0.0657391
0.04773
0.0398526
0.0339059
0.0307496
0.0273621
0.0252984
0.0227749
0.0211654
0.0191136
0.0177814
0.0160531
0.0149159
0.0134179
0.0124095
0.0110434
0.0100759
0.00868926
0.00763972
0.006126
0.00561438
0.0056748
0.00565633
0.00546818
0.00527786
0.00494033
0.0046889
0.00432086
0.00406299
0.00370188
0.00344471
0.00307294
0.00277189
0.0022696
0.00172598
0.000592124
-0.00108234
-0.00521446
-0.0127915
-0.0323238
-0.061711
-0.0767594
-0.112491
-0.14922
-0.208117
-0.186221
-0.0688768
-0.0193498
-0.00483933
-69.026
61.1121
1.09908
0.893705
0.750561
0.588898
0.50709
0.421011
0.372594
0.311334
0.270972
0.212874
0.194375
0.196746
0.196174
0.189771
0.183734
0.172444
0.164553
0.152419
0.144515
0.133069
0.125826
0.115637
0.109378
0.100915
0.0963576
0.0916111
0.0931263
0.104277
0.125917
0.091784
0.0662614
0.0556825
0.0473142
0.0430611
0.0382347
0.0354429
0.0318354
0.0296558
0.0267202
0.0249157
0.0224425
0.0209022
0.0187588
0.0173931
0.0154394
0.0141295
0.012147
0.010721
0.00852133
0.00782845
0.00794914
0.00792851
0.00765596
0.00739735
0.00691207
0.00657107
0.00604346
0.00569403
0.00517721
0.00482907
0.00429855
0.00389195
0.00318024
0.0024494
0.000860259
-0.00137774
-0.00710406
-0.0172431
-0.0447099
-0.0871737
-0.106327
-0.157416
-0.207717
-0.295849
-0.265979
-0.0927106
-0.0251272
-0.00617592
-68.6361
58.5441
1.45482
1.1457
0.966107
0.751892
0.652125
0.538822
0.479835
0.398935
0.349498
0.271071
0.248489
0.253136
0.252612
0.243981
0.236574
0.2215
0.211841
0.195697
0.186031
0.170819
0.161964
0.148422
0.140768
0.129493
0.12389
0.117361
0.119081
0.13343
0.165564
0.117485
0.0841959
0.0714248
0.0605585
0.0553962
0.0490266
0.0456205
0.0408392
0.0381771
0.034282
0.0320774
0.028795
0.0269131
0.024069
0.0224007
0.0198101
0.0182104
0.0155829
0.0138335
0.0108567
0.0100102
0.0102294
0.010211
0.00984345
0.00952619
0.00887831
0.00846097
0.00775918
0.00733201
0.00664602
0.00622095
0.00551942
0.00502443
0.00409185
0.00320735
0.00115455
-0.0015334
-0.00881693
-0.0210013
-0.0564958
-0.113568
-0.134616
-0.202372
-0.264701
-0.388301
-0.351474
-0.112317
-0.0289592
-0.00695573
-68.2461
55.9559
1.84314
1.39251
1.18304
0.91031
0.797702
0.654462
0.587953
0.485278
0.429185
0.327034
0.301515
0.309733
0.309376
0.298142
0.289722
0.27034
0.25939
0.238717
0.22777
0.208315
0.19829
0.180973
0.172302
0.157845
0.15146
0.142782
0.144532
0.161872
0.208421
0.142597
0.101311
0.0870918
0.0735754
0.0677804
0.0597007
0.0558539
0.0497591
0.0467484
0.041777
0.0392828
0.0350922
0.0329631
0.0293327
0.0274457
0.0241417
0.0223328
0.0189841
0.0169955
0.0131071
0.0121497
0.0125195
0.0125079
0.0120293
0.0116686
0.0108357
0.0103626
0.00946425
0.00898067
0.00810471
0.00762419
0.00673231
0.00617468
0.00500181
0.00401229
0.0014745
-0.00150497
-0.0103335
-0.0238267
-0.0674181
-0.141403
-0.161036
-0.247545
-0.319233
-0.48717
-0.44506
-0.125691
-0.030337
-0.0070826
-67.8559
53.3445
2.2726
1.62968
1.4025
1.06232
0.944505
0.767032
0.697519
0.569758
0.510714
0.379933
0.353192
0.366674
0.366575
0.352192
0.343309
0.318844
0.307329
0.281348
0.26985
0.245435
0.234908
0.213179
0.20407
0.185875
0.179123
0.167787
0.169361
0.189148
0.255774
0.166728
0.117344
0.102732
0.0862846
0.080257
0.0702064
0.0661782
0.0585565
0.0553989
0.0491736
0.0465569
0.0413078
0.0390739
0.0345275
0.0325481
0.0284142
0.0265175
0.0223315
0.0202341
0.0152408
0.0142365
0.0148253
0.0148238
0.0142108
0.0138303
0.0127791
0.0122816
0.0111531
0.0106454
0.00954796
0.00904424
0.00793219
0.00734989
0.00590476
0.00487948
0.00181244
-0.00124227
-0.0116631
-0.0254478
-0.0771241
-0.171412
-0.184781
-0.293309
-0.369915
-0.594439
-0.549737
-0.130104
-0.0288308
-0.00651128
-67.4654
50.7085
2.75229
1.85022
1.62649
1.20544
1.0937
0.875286
0.809415
0.651491
0.595114
0.42867
0.403261
0.424159
0.424346
0.406023
0.397521
0.366831
0.355848
0.323401
0.312448
0.282001
0.271976
0.244881
0.236202
0.213448
0.206971
0.192277
0.193462
0.214552
0.309357
0.189275
0.131988
0.118447
0.0985783
0.0928957
0.0804724
0.0766473
0.0671764
0.0641733
0.056427
0.0539372
0.0474036
0.0452781
0.0396204
0.0377375
0.0325979
0.0307945
0.025596
0.023589
0.0172153
0.01626
0.0171552
0.0171647
0.0163836
0.0160194
0.0147008
0.0142264
0.0128176
0.0123342
0.0109679
0.0104891
0.00911128
0.00856
0.0067913
0.00582872
0.00215025
-0.000684537
-0.0128578
-0.0255527
-0.085125
-0.204656
-0.204718
-0.34035
-0.414679
-0.712477
-0.66941
-0.121782
-0.0241663
-0.00526113
-67.0747
48.0489
3.29167
2.04363
1.85837
1.33619
1.24715
0.977439
0.924995
0.729162
0.683917
0.471767
0.451478
0.482474
0.482859
0.459462
0.452621
0.41403
0.405226
0.364596
0.355827
0.317751
0.309728
0.275848
0.268898
0.240372
0.235149
0.216133
0.216769
0.237009
0.371538
0.209312
0.144884
0.134416
0.110306
0.105805
0.0903958
0.0873435
0.0755388
0.0731385
0.0634712
0.0614804
0.0533242
0.0516246
0.0445633
0.0430581
0.036649
0.0352081
0.0287335
0.0271193
0.0189737
0.0182101
0.019521
0.0195379
0.0185403
0.0182472
0.0165894
0.0162091
0.0144457
0.0140588
0.0123528
0.0119703
0.0102578
0.00981927
0.00764605
0.00688703
0.00245475
0.000247168
-0.0140311
-0.0237821
-0.0907268
-0.242678
-0.219231
-0.389842
-0.450503
-0.844148
-0.809265
-0.0954597
-0.0163534
-0.00342828
-66.6839
45.3701
3.90008
2.19453
2.10373
1.44962
1.40784
1.0709
1.04631
0.800812
0.779398
0.507191
0.497645
0.542014
0.542324
0.51224
0.508992
0.46004
0.455879
0.404518
0.400379
0.3523
0.348515
0.30574
0.302459
0.266365
0.26388
0.239204
0.239293
0.254897
0.445592
0.22544
0.155624
0.150933
0.121251
0.119153
0.0998263
0.0983913
0.0835264
0.0823958
0.0702097
0.0692715
0.0589877
0.0581868
0.0492851
0.048576
0.0405025
0.039824
0.0316775
0.0309116
0.0204375
0.0200777
0.0219393
0.0219523
0.0206695
0.0205303
0.0184275
0.0182477
0.0160193
0.0158368
0.0136854
0.0135054
0.0113539
0.0111485
0.00844472
0.00809276
0.00267075
0.00166219
-0.015385
-0.019723
-0.0929276
-0.287714
-0.225981
-0.443731
-0.473007
-0.992959
-0.976275
-0.0437488
-0.00589319
-0.00119205
-66.2929
45.3699
3.90006
2.19452
2.10373
1.44962
1.40784
1.07091
1.04632
0.800815
0.779402
0.507193
0.497647
0.542016
0.542327
0.512243
0.508995
0.460043
0.455882
0.404521
0.400382
0.352303
0.348518
0.305742
0.302462
0.266368
0.263883
0.239208
0.239296
0.254902
0.445602
0.225445
0.155627
0.150936
0.121254
0.119156
0.0998289
0.0983939
0.0835288
0.0823981
0.0702119
0.0692737
0.0589898
0.0581888
0.049287
0.0485778
0.0405041
0.0398256
0.0316788
0.0309128
0.0204382
0.0200784
0.0219402
0.0219533
0.0206706
0.0205315
0.0184286
0.0182489
0.0160205
0.015838
0.0136865
0.0135065
0.011355
0.0111495
0.00844591
0.00809398
0.00267253
0.0016641
-0.0153807
-0.0197181
-0.0929118
-0.287669
-0.225948
-0.443672
-0.472945
-0.992843
-0.976162
-0.0437437
-0.00589247
-0.00119224
-66.2934
48.0488
3.29165
2.04362
1.85837
1.3362
1.24716
0.977443
0.924999
0.729166
0.683921
0.47177
0.45148
0.482476
0.482862
0.459465
0.452624
0.414033
0.405229
0.364599
0.35583
0.317753
0.30973
0.275851
0.268901
0.240375
0.235152
0.216136
0.216772
0.237014
0.371546
0.209318
0.144888
0.134419
0.110309
0.105808
0.0903984
0.0873461
0.0755412
0.0731408
0.0634734
0.0614826
0.0533263
0.0516266
0.0445652
0.0430599
0.0366507
0.0352097
0.0287348
0.0271205
0.0189745
0.0182108
0.0195219
0.0195389
0.0185414
0.0182483
0.0165905
0.0162102
0.0144468
0.0140599
0.0123539
0.0119714
0.0102589
0.00982034
0.00764719
0.00688823
0.00245642
0.000249127
-0.0140272
-0.0237767
-0.0907116
-0.24264
-0.219199
-0.38979
-0.450444
-0.844049
-0.80917
-0.0954482
-0.0163514
-0.00342801
-66.6843
50.7084
2.75227
1.85021
1.62649
1.20545
1.0937
0.875289
0.809419
0.651494
0.595117
0.428672
0.403262
0.424161
0.424348
0.406025
0.397523
0.366833
0.35585
0.323404
0.31245
0.282003
0.271978
0.244884
0.236204
0.213451
0.206974
0.19228
0.193465
0.214556
0.309364
0.18928
0.131992
0.11845
0.098581
0.0928983
0.0804748
0.0766496
0.0671785
0.0641754
0.056429
0.0539392
0.0474055
0.0452799
0.0396221
0.0377392
0.0325994
0.0307959
0.0255972
0.0235901
0.0172161
0.0162607
0.017156
0.0171656
0.0163846
0.0160204
0.0147018
0.0142274
0.0128187
0.0123352
0.0109689
0.01049
0.00911225
0.00856097
0.00679234
0.00582983
0.00215176
-0.000682664
-0.0128542
-0.0255473
-0.0851109
-0.204624
-0.204688
-0.340305
-0.414625
-0.712393
-0.669332
-0.121767
-0.0241633
-0.00526016
-67.0751
53.3444
2.27258
1.62967
1.4025
1.06233
0.944507
0.767035
0.697522
0.569761
0.510717
0.379934
0.353193
0.366676
0.366577
0.352194
0.343311
0.318846
0.307331
0.28135
0.269852
0.245437
0.23491
0.213181
0.204072
0.185877
0.179126
0.167789
0.169363
0.189151
0.25578
0.166733
0.117347
0.102735
0.086287
0.0802593
0.0702085
0.0661802
0.0585584
0.0554008
0.0491754
0.0465586
0.0413094
0.0390755
0.034529
0.0325496
0.0284155
0.0265188
0.0223326
0.020235
0.0152415
0.0142371
0.014826
0.0148246
0.0142117
0.0138312
0.01278
0.0122825
0.011154
0.0106463
0.00954882
0.0090451
0.00793304
0.00735074
0.00590567
0.00488047
0.00181376
-0.00124055
-0.0116599
-0.0254426
-0.0771115
-0.171385
-0.184754
-0.29327
-0.369868
-0.594369
-0.549672
-0.130088
-0.0288271
-0.0065097
-67.4657
55.9558
1.84312
1.3925
1.18304
0.910311
0.797704
0.654464
0.587956
0.48528
0.429187
0.327036
0.301516
0.309735
0.309377
0.298144
0.289724
0.270342
0.259392
0.238718
0.227772
0.208317
0.198291
0.180975
0.172304
0.157847
0.151462
0.142784
0.144534
0.161875
0.208425
0.142601
0.101314
0.0870942
0.0735775
0.0677823
0.0597024
0.0558556
0.0497607
0.0467499
0.0417785
0.0392842
0.0350936
0.0329644
0.029334
0.0274469
0.0241428
0.0223339
0.0189851
0.0169964
0.0131077
0.0121502
0.0125201
0.0125085
0.01203
0.0116693
0.0108364
0.0103633
0.009465
0.00898141
0.00810545
0.00762491
0.00673303
0.00617541
0.00500258
0.00401314
0.00147562
-0.00150347
-0.0103308
-0.023822
-0.0674072
-0.141382
-0.161013
-0.247512
-0.319193
-0.487112
-0.445008
-0.125676
-0.030333
-0.00708061
-67.8561
58.544
1.4548
1.14569
0.966106
0.751893
0.652127
0.538824
0.479837
0.398937
0.3495
0.271072
0.24849
0.253137
0.252614
0.243983
0.236576
0.221501
0.211843
0.195699
0.186032
0.17082
0.161965
0.148424
0.140769
0.129495
0.123892
0.117363
0.119083
0.133432
0.165567
0.117489
0.0841983
0.0714267
0.0605601
0.0553978
0.049028
0.0456219
0.0408405
0.0381784
0.0342832
0.0320785
0.0287962
0.0269142
0.02407
0.0224017
0.019811
0.0182112
0.0155837
0.0138342
0.0108572
0.0100106
0.0102299
0.0102115
0.00984402
0.00952678
0.00887892
0.00846158
0.00775979
0.00733262
0.00664662
0.00622154
0.00552
0.00502502
0.00409248
0.00320805
0.00115547
-0.00153213
-0.00881466
-0.0209973
-0.0564868
-0.113551
-0.134596
-0.202345
-0.264668
-0.388255
-0.351432
-0.112303
-0.0289554
-0.00695357
-68.2463
61.112
1.09906
0.893701
0.75056
0.588899
0.507091
0.421013
0.372596
0.311336
0.270974
0.212875
0.194376
0.196747
0.196175
0.189773
0.183735
0.172445
0.164554
0.15242
0.144516
0.13307
0.125827
0.115638
0.10938
0.100917
0.0963588
0.0916123
0.0931276
0.104279
0.12592
0.0917866
0.0662633
0.055684
0.0473155
0.0430623
0.0382358
0.0354439
0.0318364
0.0296568
0.0267211
0.0249166
0.0224433
0.020903
0.0187595
0.0173939
0.0154401
0.0141302
0.0121476
0.0107215
0.00852173
0.00782877
0.00794949
0.00792889
0.00765638
0.0073978
0.00691254
0.00657154
0.00604393
0.00569449
0.00517766
0.00482952
0.00429899
0.0038924
0.00318073
0.00244994
0.000860973
-0.00137674
-0.00710228
-0.0172399
-0.0447028
-0.0871604
-0.106311
-0.157395
-0.207691
-0.295814
-0.265948
-0.0926993
-0.0251238
-0.00617383
-68.6363
63.6636
0.767944
0.639222
0.535755
0.42271
0.362228
0.301695
0.265869
0.222899
0.193157
0.153095
0.139426
0.140475
0.13997
0.135548
0.131105
0.123253
0.117435
0.108974
0.103142
0.0951529
0.0898081
0.0826956
0.0780788
0.0721829
0.0688342
0.0656122
0.0667876
0.0747074
0.0885042
0.065741
0.0477313
0.0398536
0.0339068
0.0307504
0.0273629
0.0252992
0.0227756
0.0211661
0.0191142
0.017782
0.0160537
0.0149165
0.0134184
0.01241
0.0110439
0.0100764
0.00868968
0.0076401
0.00612629
0.0056146
0.00567503
0.00565659
0.00546847
0.00527817
0.00494065
0.00468923
0.00432119
0.00406331
0.0037022
0.00344502
0.00307325
0.00277221
0.00226994
0.00172636
0.000592629
-0.00108162
-0.00521318
-0.0127892
-0.0323187
-0.0617016
-0.0767484
-0.112476
-0.149201
-0.208092
-0.186198
-0.0688683
-0.0193472
-0.00483755
-69.0261
66.203
0.454011
0.383733
0.321334
0.25442
0.217367
0.18139
0.159428
0.133933
0.115753
0.0922593
0.0838889
0.0842662
0.0839219
0.0813256
0.0786119
0.07398
0.0704226
0.065422
0.0618542
0.0571302
0.0538599
0.0496539
0.0468297
0.0433478
0.0413051
0.0394367
0.0401784
0.0449014
0.0525519
0.0395059
0.0287946
0.0239465
0.0203871
0.0184482
0.0164374
0.0151733
0.0136787
0.0126934
0.011479
0.0106635
0.00964075
0.00894469
0.00805809
0.00744081
0.00663194
0.00603964
0.00521848
0.00457747
0.00369095
0.00337773
0.00340391
0.00339127
0.00328084
0.00316462
0.00296551
0.00281177
0.00259423
0.00243643
0.00222274
0.00206528
0.00184483
0.00166021
0.00136095
0.00102654
0.00034605
-0.000688061
-0.00318614
-0.00786023
-0.0195402
-0.036816
-0.046358
-0.0675172
-0.0898244
-0.123601
-0.110266
-0.042325
-0.01217
-0.00307847
-69.4157
68.7352
0.15022
0.12793
0.107094
0.0849358
0.0724626
0.0605238
0.0531285
0.0446757
0.0385627
0.0308188
0.0280016
0.028086
0.0279641
0.0271078
0.0261957
0.0246644
0.0234681
0.0218133
0.0206132
0.0190495
0.0179494
0.0165571
0.0156072
0.0144554
0.0137693
0.0131571
0.0134103
0.0149788
0.0174279
0.0131779
0.00962375
0.00798813
0.00680274
0.0061492
0.00548232
0.00505679
0.00456173
0.00423017
0.003828
0.00355363
0.00321495
0.00298075
0.00268715
0.00247944
0.00221154
0.00201223
0.00174023
0.00152478
0.00123279
0.0011274
0.00113447
0.00112998
0.00109356
0.0010545
0.000988678
0.000936971
0.00086498
0.000811895
0.000741137
0.000688145
0.000615077
0.000552896
0.000453461
0.000340647
0.000113704
-0.000235853
-0.00107197
-0.00265086
-0.00653761
-0.0122395
-0.0155026
-0.022512
-0.0299885
-0.0409938
-0.0365185
-0.01427
-0.00415035
-0.00105594
-69.8053
68.7279
0.136182
0.103307
0.0773416
0.052097
0.0387504
0.0272429
0.0208608
0.0148139
0.0124088
0.0117404
0.0113885
0.0108395
0.0104078
0.00980634
0.00937095
0.00880417
0.00839782
0.00787015
0.00749008
0.00699414
0.00663781
0.00617536
0.00585086
0.00544496
0.00519596
0.00496239
0.00503968
0.00558121
0.00644034
0.0048188
0.0034525
0.00281891
0.00235382
0.00209737
0.00183694
0.00167264
0.00148438
0.00136021
0.00121223
0.00111272
0.000991819
0.000909186
0.000806871
0.000735214
0.000643828
0.000576927
0.000487292
0.000418258
0.000326025
0.000286034
0.000269741
0.000251913
0.000215196
0.000180056
0.000122402
7.13496e-05
-9.11699e-06
-8.1507e-05
-0.000197895
-0.00030733
-0.00049009
-0.000672885
-0.000994289
-0.00134788
-0.00202113
-0.00289552
-0.00479127
-0.0079326
-0.0152732
-0.0251649
-0.0278195
-0.0349351
-0.0426848
-0.0537848
-0.0468672
-0.018247
-0.0053013
-0.00134909
-69.1037
66.1817
0.411989
0.309644
0.231996
0.155815
0.116178
0.0815239
0.062569
0.0442961
0.0371568
0.0352086
0.0341734
0.0325138
0.0312301
0.0294124
0.0281181
0.0264061
0.0251983
0.0236046
0.0224749
0.0209769
0.0199177
0.0185206
0.0175559
0.0163286
0.0155873
0.0148747
0.0151005
0.016731
0.0194203
0.0144462
0.0103282
0.00845001
0.00705313
0.00629227
0.00550698
0.00501888
0.00445059
0.00408158
0.00363474
0.00333901
0.00297392
0.00272834
0.00241938
0.00220643
0.0019305
0.00173169
0.00146105
0.0012557
0.000975986
0.000857157
0.000809287
0.0007565
0.000645531
0.000541076
0.000366949
0.000215234
-2.76655e-05
-0.000242753
-0.000593955
-0.00091905
-0.00147026
-0.0020131
-0.00298157
-0.00403083
-0.00605533
-0.00864569
-0.014324
-0.0236298
-0.0457175
-0.0757843
-0.0832802
-0.10478
-0.12792
-0.162075
-0.14147
-0.0541141
-0.0155442
-0.00393295
-67.3111
63.629
0.69823
0.514994
0.386592
0.258072
0.193406
0.135177
0.10425
0.0733331
0.0616974
0.0586405
0.0569835
0.0541733
0.0520739
0.0489976
0.0468821
0.043988
0.0420143
0.0393204
0.0374745
0.0349421
0.0332111
0.0308485
0.0292714
0.0271929
0.0259775
0.0247496
0.0251052
0.0278384
0.0327068
0.0240395
0.0171144
0.0140619
0.011727
0.0104882
0.00916515
0.00836835
0.00740883
0.00680607
0.00605121
0.00556808
0.00495125
0.00455003
0.00402805
0.00368016
0.00321409
0.00288932
0.00243221
0.00209613
0.00161952
0.00142545
0.00134904
0.00126343
0.00107562
0.000904904
0.000610624
0.00036279
-4.73002e-05
-0.000398527
-0.000991032
-0.0015217
-0.00245074
-0.00333627
-0.00496561
-0.00667476
-0.0100669
-0.0142723
-0.0237116
-0.0388158
-0.0758427
-0.127307
-0.138181
-0.174559
-0.212715
-0.272556
-0.238742
-0.0880298
-0.0247087
-0.00618
-65.5184
61.066
1.00221
0.718151
0.541194
0.357775
0.270377
0.187739
0.145931
0.101599
0.0858951
0.0820165
0.0798398
0.0758044
0.072957
0.0685446
0.0656773
0.0615331
0.0588593
0.0550025
0.0525016
0.0488753
0.0465299
0.0431451
0.0410071
0.0380227
0.0363682
0.0345612
0.0350148
0.0388606
0.046535
0.0335631
0.0237457
0.0196452
0.0163572
0.0146875
0.0128023
0.0117243
0.0103528
0.00953666
0.00845681
0.00780249
0.00691993
0.00637654
0.00562975
0.00515861
0.00449203
0.00405225
0.00339852
0.00294218
0.00225176
0.00198905
0.00188919
0.00177447
0.00150507
0.00127371
0.000852482
0.000516882
-6.92437e-05
-0.000544604
-0.00139054
-0.00210837
-0.00343293
-0.00462965
-0.00694641
-0.00925134
-0.0140459
-0.0196896
-0.0328726
-0.0531248
-0.10539
-0.180452
-0.192061
-0.244267
-0.296643
-0.386783
-0.340691
-0.11845
-0.0320815
-0.00788669
-63.7254
58.4888
1.33177
0.917025
0.696055
0.453638
0.347159
0.238667
0.187714
0.12872
0.10962
0.105325
0.102771
0.0973884
0.0939029
0.08803
0.0845239
0.0790196
0.0757517
0.0706305
0.0675739
0.0627574
0.0598904
0.055392
0.0527767
0.0487995
0.0467652
0.0442826
0.044789
0.0497298
0.0611892
0.0429608
0.0301486
0.025196
0.0209226
0.0188955
0.0164072
0.0150921
0.0132746
0.0122778
0.0108454
0.010046
0.00887505
0.00821117
0.00722041
0.00664486
0.00576088
0.00522373
0.00435694
0.0037976
0.0028669
0.00254616
0.00242996
0.00229174
0.00193303
0.00165017
0.00109098
0.000681057
-9.55521e-05
-0.000675791
-0.0017951
-0.00267071
-0.00442016
-0.00587817
-0.00892764
-0.0117283
-0.0179909
-0.0248053
-0.0417508
-0.0661533
-0.134026
-0.236136
-0.244318
-0.313968
-0.37906
-0.506459
-0.449685
-0.143435
-0.0369673
-0.00888222
-61.9322
55.894
1.69544
1.10815
0.851775
0.544065
0.424022
0.287296
0.229819
0.154246
0.132753
0.128564
0.125815
0.118897
0.114945
0.107421
0.103451
0.0964169
0.0927184
0.0861761
0.0827168
0.0765617
0.0733162
0.0675636
0.0646009
0.0594987
0.0571803
0.0538845
0.0543859
0.0603385
0.0770312
0.0521421
0.0362372
0.0307199
0.0253984
0.0231221
0.0199653
0.0184801
0.0161636
0.0150364
0.0132086
0.0123044
0.0108099
0.0100589
0.00879444
0.00814344
0.00701585
0.0064084
0.00530307
0.0046679
0.00345767
0.00309512
0.00297165
0.00281789
0.00235803
0.00203775
0.00132358
0.000859983
-0.00012963
-0.00078533
-0.00220933
-0.00319801
-0.00541898
-0.00706296
-0.0109188
-0.0140667
-0.0219137
-0.0295157
-0.0503307
-0.0774429
-0.161293
-0.295578
-0.294115
-0.383852
-0.458985
-0.633502
-0.568659
-0.160429
-0.0387179
-0.00904394
-60.1387
53.2791
2.10265
1.28604
1.00955
0.626986
0.501554
0.332754
0.272648
0.17761
0.155195
0.151746
0.149027
0.140287
0.13613
0.12667
0.1225
0.113681
0.109799
0.101599
0.0979677
0.0902498