/*--------------------------------*- C++ -*----------------------------------*\
| =========                 |                                                 |
| \\      /  F ield         | OpenFOAM: The Open Source CFD Toolbox           |
|  \\    /   O peration     | Version:  5.x                                   |
|   \\  /    A nd           | Web:      www.OpenFOAM.org                      |
|    \\/     M anipulation  |                                                 |
\*---------------------------------------------------------------------------*/
FoamFile
{
    version     2.0;
    format      ascii;
    class       volScalarField;
    location    "2.8";
    object      T;
}
// * * * * * * * * * * * * * * * * * * * * * * * * * * * * * * * * * * * * * //

dimensions      [0 0 0 1 0 0 0];

internalField   nonuniform List<scalar> 
3200
(
2.0911
2.44089
2.46083
2.6049
2.61402
2.68577
2.69055
2.73194
2.73477
2.7609
2.76264
2.77771
2.77904
2.79548
2.79682
2.81252
2.81378
2.82824
2.82938
2.84248
2.84351
2.85521
2.85613
2.86649
2.8673
2.87642
2.87715
2.88536
2.88609
2.89479
2.90241
2.90296
2.90788
2.90824
2.912
2.91229
2.9153
2.91553
2.91798
2.91816
2.92017
2.92032
2.92197
2.92209
2.92343
2.92353
2.92459
2.92467
2.92546
2.92551
2.92599
2.92603
2.9265
2.92654
2.92689
2.92692
2.9271
2.9271
2.92705
2.92703
2.92662
2.92657
2.92563
2.92552
2.92367
2.92344
2.91982
2.91932
2.91139
2.91
2.88755
2.84839
2.84402
2.78039
2.77289
2.65382
2.64888
2.64825
2.64813
2.6481
2.26582
2.53344
2.57511
2.69038
2.70983
2.76721
2.77739
2.81038
2.81641
2.83718
2.84088
2.85296
2.85578
2.86879
2.87163
2.88406
2.88673
2.89819
2.90062
2.911
2.91319
2.92247
2.92442
2.93263
2.93435
2.94158
2.94312
2.94966
2.95121
2.95842
2.96482
2.966
2.96993
2.97071
2.97369
2.97429
2.97668
2.97717
2.97911
2.9795
2.9811
2.98142
2.98272
2.98299
2.98405
2.98426
2.9851
2.98526
2.98589
2.98601
2.98639
2.98647
2.98685
2.98692
2.9872
2.98725
2.98739
2.9874
2.98735
2.98731
2.98699
2.98687
2.98613
2.98588
2.9844
2.98391
2.981
2.97993
2.97348
2.97042
2.95079
2.91874
2.9094
2.85868
2.84289
2.75039
2.73996
2.73823
2.73787
2.73779
2.42984
2.63504
2.68645
2.77968
2.80412
2.85054
2.86331
2.8899
2.89746
2.91415
2.91878
2.92858
2.93211
2.94251
2.94606
2.956
2.95933
2.9685
2.97155
2.97985
2.98259
2.99001
2.99245
2.99902
3.00118
3.00697
3.0089
3.01415
3.01611
3.02208
3.02744
3.02894
3.03211
3.03308
3.03548
3.03623
3.03814
3.03875
3.0403
3.0408
3.04207
3.04248
3.04352
3.04385
3.0447
3.04496
3.04564
3.04584
3.04635
3.04649
3.0468
3.0469
3.0472
3.04729
3.04752
3.04758
3.04769
3.0477
3.04766
3.04761
3.04735
3.0472
3.0466
3.04629
3.0451
3.04447
3.04211
3.04075
3.03542
3.03149
3.01454
2.98819
2.97643
2.93557
2.91596
2.84368
2.83069
2.82816
2.82761
2.82749
2.58565
2.74278
2.79611
2.87174
2.89753
2.93521
2.94869
2.97019
2.97815
2.99159
2.99647
3.00445
3.00817
3.0165
3.02023
3.0282
3.0317
3.03906
3.04226
3.04892
3.0518
3.05776
3.06032
3.06559
3.06786
3.07251
3.07454
3.07878
3.08085
3.08576
3.09022
3.09181
3.09438
3.0954
3.09733
3.09812
3.09966
3.10029
3.10154
3.10206
3.10309
3.10351
3.10435
3.10469
3.10538
3.10565
3.1062
3.10641
3.10681
3.10696
3.10721
3.10732
3.10756
3.10766
3.10784
3.1079
3.10799
3.108
3.10797
3.10792
3.10771
3.10755
3.10706
3.10673
3.10577
3.10511
3.10318
3.10174
3.09732
3.09309
3.07866
3.05705
3.04463
3.01161
2.99114
2.9346
2.921
2.91801
2.91732
2.91717
2.73517
2.85467
2.90489
2.96579
2.99046
3.02084
3.03374
3.05101
3.05861
3.06938
3.07404
3.08049
3.08404
3.09068
3.09422
3.10058
3.10391
3.10978
3.11283
3.11814
3.12089
3.12564
3.12808
3.13229
3.13444
3.13816
3.14009
3.14349
3.14548
3.14947
3.15311
3.15463
3.1567
3.15768
3.15922
3.15998
3.1612
3.16181
3.16281
3.1633
3.16412
3.16453
3.16519
3.16552
3.16607
3.16633
3.16677
3.16697
3.16729
3.16743
3.16764
3.16774
3.16793
3.16802
3.16817
3.16822
3.1683
3.16831
3.16828
3.16823
3.16806
3.16791
3.16752
3.1672
3.16642
3.16579
3.16423
3.16284
3.1592
3.1551
3.14307
3.12554
3.11366
3.08715
3.06776
3.0238
3.01089
3.00776
3.00702
3.00686
2.87991
2.96934
3.01323
3.06128
3.08317
3.10718
3.11861
3.13222
3.13895
3.1474
3.15154
3.15665
3.15979
3.16498
3.16811
3.17308
3.17603
3.18062
3.18331
3.18747
3.18989
3.19361
3.19577
3.19906
3.20097
3.20388
3.20559
3.20826
3.21002
3.21318
3.21608
3.21744
3.21907
3.21994
3.22115
3.22182
3.22278
3.22331
3.2241
3.22453
3.22517
3.22553
3.22605
3.22635
3.22677
3.22701
3.22734
3.22753
3.22778
3.2279
3.22806
3.22816
3.2283
3.22838
3.2285
3.22855
3.2286
3.22861
3.22859
3.22855
3.22841
3.22828
3.22797
3.22769
3.22708
3.22652
3.22528
3.22403
3.2211
3.21742
3.2077
3.1938
3.18327
3.16241
3.14536
3.11176
3.10039
3.09742
3.09669
3.09653
3.02107
3.08582
3.1214
3.15783
3.17579
3.19402
3.2034
3.2137
3.21922
3.22561
3.229
3.23288
3.23546
3.23936
3.24192
3.24566
3.24807
3.25153
3.25373
3.25686
3.25884
3.26164
3.26341
3.26589
3.26745
3.26964
3.27104
3.27306
3.27451
3.27691
3.27912
3.28024
3.28147
3.28219
3.2831
3.28364
3.28437
3.28481
3.2854
3.28575
3.28624
3.28653
3.28692
3.28716
3.28748
3.28767
3.28793
3.28808
3.28827
3.28837
3.28849
3.28857
3.28868
3.28874
3.28883
3.28887
3.28891
3.28892
3.2889
3.28887
3.28876
3.28865
3.28842
3.28819
3.28773
3.28726
3.28632
3.2853
3.28303
3.27998
3.27249
3.26194
3.25329
3.23751
3.22362
3.19883
3.18955
3.18699
3.18635
3.1862
3.15964
3.20347
3.22955
3.25511
3.2684
3.28121
3.28815
3.29538
3.29946
3.30393
3.30643
3.30917
3.31108
3.3138
3.31569
3.3183
3.32008
3.32249
3.32411
3.3263
3.32777
3.32972
3.33102
3.33276
3.33391
3.33544
3.33647
3.33789
3.33896
3.34064
3.3422
3.34303
3.3439
3.34442
3.34506
3.34546
3.34597
3.34629
3.34671
3.34697
3.34731
3.34752
3.3478
3.34797
3.3482
3.34834
3.34852
3.34863
3.34876
3.34884
3.34892
3.34898
3.34905
3.3491
3.34916
3.34919
3.34922
3.34923
3.34922
3.34919
3.34912
3.34904
3.34887
3.3487
3.34837
3.34803
3.34737
3.34661
3.345
3.34272
3.33741
3.32999
3.32359
3.31254
3.30232
3.28528
3.27845
3.27648
3.27598
3.27586
3.29646
3.32183
3.33771
3.35288
3.36102
3.36864
3.37289
3.37718
3.37968
3.38233
3.38386
3.38549
3.38666
3.38827
3.38942
3.39097
3.39205
3.39348
3.39448
3.39577
3.39667
3.39782
3.39862
3.39965
3.40035
3.40126
3.40189
3.40273
3.40338
3.40438
3.40531
3.40582
3.40633
3.40665
3.40703
3.40728
3.40758
3.40778
3.40802
3.40818
3.40838
3.40851
3.40868
3.40879
3.40892
3.409
3.40911
3.40918
3.40926
3.4093
3.40935
3.40939
3.40943
3.40946
3.4095
3.40952
3.40953
3.40954
3.40953
3.40951
3.40947
3.40942
3.40932
3.40922
3.40902
3.40882
3.40842
3.40795
3.40699
3.40559
3.40241
3.39801
3.39409
3.38753
3.38129
3.37132
3.36715
3.36591
3.36559
3.36552
3.43226
3.44057
3.4459
3.45093
3.45367
3.4562
3.45763
3.45905
3.45989
3.46077
3.46129
3.46183
3.46222
3.46275
3.46314
3.46365
3.46402
3.46449
3.46483
3.46526
3.46556
3.46594
3.46621
3.46655
3.46678
3.46708
3.4673
3.46758
3.4678
3.46813
3.46843
3.46861
3.46878
3.46889
3.46901
3.46909
3.46919
3.46926
3.46934
3.46939
3.46946
3.4695
3.46956
3.4696
3.46964
3.46967
3.4697
3.46973
3.46975
3.46977
3.46978
3.4698
3.46981
3.46982
3.46983
3.46984
3.46984
3.46985
3.46984
3.46984
3.46982
3.46981
3.46977
3.46974
3.46967
3.4696
3.46947
3.46931
3.46899
3.46852
3.46747
3.466
3.46468
3.46251
3.46042
3.45713
3.45573
3.45531
3.4552
3.45517
3.43232
3.44119
3.44735
3.45399
3.45805
3.46248
3.4653
3.46853
3.47061
3.473
3.47447
3.47608
3.47727
3.47889
3.48007
3.4816
3.48269
3.48407
3.48503
3.48625
3.48709
3.48815
3.48889
3.48981
3.49045
3.49126
3.49183
3.49257
3.49317
3.49407
3.49491
3.49539
3.49587
3.49619
3.49655
3.4968
3.4971
3.49731
3.49756
3.49773
3.49794
3.49808
3.49826
3.49838
3.49853
3.49863
3.49875
3.49883
3.49893
3.49898
3.49905
3.4991
3.49916
3.49921
3.49927
3.49932
3.49937
3.49941
3.49946
3.49949
3.49953
3.49956
3.49959
3.49961
3.49964
3.49965
3.49965
3.49962
3.49954
3.49936
3.49889
3.49814
3.49734
3.49588
3.49434
3.49178
3.49069
3.49036
3.49027
3.49025
3.29661
3.32369
3.34202
3.36206
3.37415
3.38751
3.39589
3.40564
3.41183
3.41904
3.4234
3.42826
3.43179
3.43669
3.44019
3.44482
3.44805
3.45222
3.45509
3.45876
3.46127
3.46448
3.46666
3.46944
3.47134
3.47378
3.47547
3.47772
3.47949
3.48221
3.48475
3.48616
3.48763
3.48855
3.48966
3.4904
3.49131
3.49192
3.49268
3.49319
3.49382
3.49425
3.49479
3.49515
3.49559
3.49589
3.49626
3.49649
3.49678
3.49695
3.49715
3.49729
3.49749
3.49763
3.49782
3.49795
3.49811
3.49823
3.49837
3.49847
3.49859
3.49868
3.49878
3.49884
3.49892
3.49895
3.49895
3.49888
3.49863
3.49809
3.49668
3.49441
3.49204
3.48766
3.48306
3.47529
3.47203
3.47106
3.47081
3.47075
3.15982
3.20654
3.23662
3.27046
3.29019
3.31273
3.32642
3.3429
3.353
3.36519
3.37232
3.3805
3.38626
3.39455
3.40026
3.4081
3.41337
3.42043
3.42511
3.43132
3.43543
3.44084
3.44441
3.44911
3.45221
3.45633
3.4591
3.46289
3.46578
3.47036
3.47463
3.47693
3.4794
3.48092
3.48279
3.48399
3.48553
3.48652
3.4878
3.48864
3.48972
3.49042
3.49132
3.49191
3.49266
3.49315
3.49377
3.49416
3.49464
3.49492
3.49525
3.49548
3.49582
3.49605
3.49636
3.49657
3.49686
3.49704
3.49729
3.49745
3.49766
3.49779
3.49797
3.49807
3.49819
3.49824
3.49825
3.49814
3.49773
3.49686
3.4945
3.49069
3.48682
3.47944
3.4719
3.45862
3.45328
3.45174
3.45134
3.45125
3.02116
3.09004
3.13107
3.17942
3.20612
3.23831
3.25683
3.28041
3.29409
3.31154
3.32119
3.33283
3.34063
3.3525
3.36024
3.37148
3.37862
3.38872
3.39507
3.40397
3.40953
3.41727
3.42211
3.42884
3.43305
3.43893
3.44268
3.44809
3.45199
3.45852
3.46459
3.46769
3.47121
3.47326
3.47594
3.47757
3.47977
3.48111
3.48295
3.48408
3.48562
3.48657
3.48787
3.48866
3.48974
3.4904
3.49129
3.49181
3.4925
3.49289
3.49335
3.49367
3.49415
3.49446
3.49491
3.4952
3.4956
3.49586
3.49621
3.49643
3.49673
3.49691
3.49716
3.4973
3.49747
3.49754
3.49756
3.49741
3.49685
3.49568
3.49238
3.48696
3.48175
3.47122
3.46098
3.44164
3.43438
3.43237
3.43186
3.43175
2.87974
2.97467
3.02522
3.08924
3.12183
3.16443
3.18705
3.21831
3.23503
3.2582
3.26998
3.28531
3.29483
3.31062
3.32009
3.33502
3.34375
3.35717
3.36493
3.37674
3.38354
3.39382
3.39973
3.40866
3.41381
3.42161
3.4262
3.43335
3.43811
3.44669
3.45466
3.45844
3.46308
3.46558
3.46914
3.47112
3.47404
3.47569
3.47812
3.4795
3.48155
3.48271
3.48443
3.4854
3.48684
3.48764
3.48882
3.48946
3.49038
3.49085
3.49146
3.49185
3.49249
3.49287
3.49347
3.49382
3.49436
3.49467
3.49513
3.4954
3.4958
3.49602
3.49635
3.49653
3.49676
3.49685
3.49688
3.49669
3.49599
3.49459
3.49034
3.48324
3.47688
3.463
3.45041
3.42417
3.41527
3.41294
3.41237
3.41224
2.73452
2.86106
2.91884
3.00031
3.03714
3.09134
3.11691
3.15679
3.17571
3.20532
3.21863
3.23802
3.24878
3.26899
3.27972
3.29881
3.30869
3.32584
3.33463
3.34971
3.3574
3.37055
3.37723
3.38864
3.39446
3.40443
3.40961
3.41871
3.42406
3.43489
3.44491
3.44915
3.45504
3.45786
3.46239
3.46464
3.46836
3.47023
3.47334
3.4749
3.47752
3.47883
3.48103
3.48213
3.48396
3.48487
3.48637
3.4871
3.48827
3.4888
3.48958
3.49002
3.49084
3.49127
3.49204
3.49244
3.49312
3.49347
3.49407
3.49437
3.49488
3.49513
3.49555
3.49575
3.49605
3.49615
3.4962
3.496
3.49517
3.49362
3.48842
3.47948
3.47232
3.45472
3.4404
3.40601
3.39589
3.39344
3.39286
3.39273
2.58424
2.7502
2.8115
2.91317
2.95175
3.0194
3.04621
3.09611
3.11596
3.15308
3.16703
3.19108
3.20235
3.22774
3.23901
3.26296
3.27334
3.29485
3.30407
3.32298
3.33105
3.34753
3.35454
3.36884
3.37495
3.38743
3.39286
3.40421
3.4098
3.42313
3.43538
3.4398
3.44711
3.45007
3.45574
3.4581
3.46276
3.46471
3.46862
3.47025
3.47353
3.47491
3.47766
3.47882
3.48112
3.48207
3.48396
3.48472
3.48619
3.48675
3.48772
3.48817
3.4892
3.48965
3.49062
3.49104
3.4919
3.49226
3.49301
3.49333
3.49397
3.49423
3.49476
3.49497
3.49535
3.49546
3.49553
3.49533
3.49437
3.49279
3.48665
3.47565
3.46818
3.44632
3.43118
3.38687
3.37621
3.37386
3.37333
3.37321
2.42732
2.64353
2.70255
2.82855
2.8652
2.9491
2.97457
3.03663
3.05551
3.10177
3.11502
3.14464
3.15535
3.18706
3.19778
3.22766
3.23754
3.26434
3.27312
3.29668
3.30437
3.32488
3.33156
3.34937
3.35518
3.37072
3.37588
3.38994
3.39523
3.4114
3.42616
3.43033
3.43936
3.44217
3.44922
3.45146
3.45727
3.45913
3.46398
3.46554
3.46963
3.47094
3.47437
3.47546
3.47833
3.47924
3.48159
3.48232
3.48415
3.48468
3.48587
3.4863
3.48759
3.48802
3.48922
3.48962
3.49069
3.49104
3.49198
3.49228
3.49307
3.49333
3.49398
3.49418
3.49466
3.49476
3.49488
3.4947
3.49359
3.49214
3.48508
3.47167
3.46461
3.43764
3.42314
3.36639
3.3562
3.35421
3.35378
3.35369
2.26175
2.54314
2.59092
2.7475
2.77675
2.88112
2.90147
2.97887
2.99397
3.05178
3.06236
3.09896
3.10751
3.14721
3.15579
3.19315
3.20106
3.23456
3.24158
3.27102
3.27716
3.30279
3.30813
3.33038
3.33502
3.35441
3.35854
3.37603
3.38022
3.39973
3.41737
3.42066
3.43186
3.4341
3.44289
3.44468
3.45193
3.45341
3.45948
3.46073
3.46583
3.46688
3.47116
3.47204
3.47562
3.47634
3.47928
3.47987
3.48216
3.48258
3.48405
3.4844
3.48601
3.48635
3.48786
3.48818
3.48952
3.4898
3.49096
3.4912
3.4922
3.4924
3.49322
3.49338
3.49399
3.49407
3.49423
3.4941
3.49283
3.49172
3.48376
3.46745
3.46183
3.42847
3.41678
3.34405
3.33586
3.33451
3.33422
3.33416
2.08492
2.45209
2.47492
2.67154
2.6853
2.81651
2.82608
2.9236
2.93071
3.00368
3.00865
3.0544
3.05842
3.1086
3.11265
3.15982
3.16355
3.20583
3.20914
3.24628
3.24917
3.28151
3.28403
3.31208
3.31427
3.33872
3.34066
3.36264
3.36459
3.38813
3.40915
3.41067
3.42471
3.42576
3.43684
3.43768
3.44682
3.44752
3.45517
3.45576
3.46219
3.46269
3.46809
3.4685
3.47302
3.47336
3.47707
3.47734
3.48024
3.48044
3.48228
3.48244
3.48448
3.48464
3.48654
3.48669
3.48838
3.48852
3.48999
3.4901
3.49136
3.49145
3.49249
3.49257
3.49334
3.49338
3.4936
3.49354
3.49206
3.49157
3.48277
3.4628
3.46017
3.41842
3.41287
3.31913
3.31524
3.31475
3.31466
3.31463
2.08491
2.45208
2.47492
2.67154
2.68529
2.8165
2.82607
2.92359
2.93071
3.00367
3.00865
3.05439
3.05841
3.10859
3.11264
3.15982
3.16354
3.20582
3.20913
3.24627
3.24917
3.2815
3.28402
3.31208
3.31427
3.33871
3.34066
3.36263
3.36459
3.38812
3.40915
3.41067
3.42471
3.42576
3.43683
3.43768
3.44682
3.44752
3.45517
3.45576
3.46219
3.46268
3.46809
3.4685
3.47302
3.47336
3.47707
3.47734
3.48024
3.48043
3.48228
3.48244
3.48447
3.48464
3.48654
3.48669
3.48838
3.48852
3.48999
3.4901
3.49136
3.49145
3.49249
3.49257
3.49334
3.49337
3.4936
3.49354
3.49206
3.49157
3.48277
3.4628
3.46018
3.41844
3.41288
3.31915
3.31527
3.31478
3.31468
3.31466
2.26174
2.54313
2.59091
2.7475
2.77675
2.88112
2.90146
2.97886
2.99396
3.05178
3.06235
3.09895
3.1075
3.1472
3.15579
3.19315
3.20105
3.23455
3.24157
3.27101
3.27716
3.30279
3.30813
3.33037
3.33502
3.35441
3.35853
3.37602
3.38021
3.39972
3.41737
3.42065
3.43185
3.4341
3.44289
3.44468
3.45193
3.45341
3.45948
3.46073
3.46583
3.46687
3.47116
3.47204
3.47562
3.47634
3.47928
3.47986
3.48215
3.48258
3.48405
3.4844
3.486
3.48635
3.48786
3.48818
3.48952
3.4898
3.49096
3.4912
3.4922
3.4924
3.49322
3.49338
3.49399
3.49407
3.49423
3.4941
3.49283
3.49172
3.48376
3.46745
3.46184
3.42848
3.4168
3.34407
3.33588
3.33453
3.33424
3.33418
2.42732
2.64352
2.70255
2.82855
2.86519
2.94909
2.97456
3.03662
3.05551
3.10177
3.11502
3.14464
3.15534
3.18705
3.19778
3.22765
3.23753
3.26434
3.27312
3.29668
3.30436
3.32488
3.33156
3.34937
3.35518
3.37071
3.37588
3.38994
3.39522
3.4114
3.42616
3.43032
3.43936
3.44217
3.44922
3.45146
3.45726
3.45912
3.46398
3.46554
3.46962
3.47093
3.47437
3.47546
3.47833
3.47924
3.48159
3.48232
3.48415
3.48468
3.48587
3.4863
3.48758
3.48802
3.48922
3.48962
3.49069
3.49104
3.49197
3.49228
3.49307
3.49333
3.49398
3.49418
3.49466
3.49476
3.49488
3.4947
3.49359
3.49214
3.48508
3.47168
3.46461
3.43765
3.42315
3.36641
3.35622
3.35423
3.3538
3.35371
2.58424
2.7502
2.8115
2.91317
2.95175
3.0194
3.0462
3.0961
3.11595
3.15308
3.16702
3.19107
3.20234
3.22774
3.239
3.26296
3.27333
3.29484
3.30406
3.32298
3.33105
3.34752
3.35454
3.36884
3.37495
3.38743
3.39286
3.40421
3.4098
3.42312
3.43538
3.4398
3.44711
3.45007
3.45574
3.4581
3.46276
3.46471
3.46862
3.47025
3.47353
3.47491
3.47766
3.47882
3.48112
3.48207
3.48396
3.48472
3.48619
3.48675
3.48772
3.48817
3.4892
3.48965
3.49062
3.49104
3.4919
3.49226
3.49301
3.49333
3.49397
3.49423
3.49476
3.49497
3.49535
3.49546
3.49553
3.49533
3.49437
3.49279
3.48666
3.47565
3.46818
3.44632
3.43119
3.38689
3.37623
3.37388
3.37334
3.37323
2.73452
2.86106
2.91883
3.00031
3.03714
3.09134
3.11691
3.15679
3.1757
3.20531
3.21862
3.23802
3.24877
3.26899
3.27971
3.29881
3.30868
3.32584
3.33462
3.34971
3.3574
3.37054
3.37723
3.38864
3.39446
3.40443
3.40961
3.4187
3.42406
3.43489
3.4449
3.44915
3.45503
3.45786
3.46239
3.46464
3.46836
3.47022
3.47334
3.4749
3.47752
3.47883
3.48103
3.48212
3.48396
3.48487
3.48637
3.4871
3.48827
3.4888
3.48958
3.49002
3.49083
3.49127
3.49204
3.49243
3.49312
3.49347
3.49407
3.49437
3.49488
3.49513
3.49555
3.49575
3.49605
3.49615
3.4962
3.496
3.49517
3.49362
3.48843
3.47948
3.47232
3.45473
3.44041
3.40602
3.3959
3.39345
3.39287
3.39274
2.87974
2.97466
3.02522
3.08923
3.12183
3.16442
3.18704
3.2183
3.23503
3.2582
3.26998
3.28531
3.29483
3.31062
3.32009
3.33502
3.34375
3.35717
3.36493
3.37674
3.38353
3.39382
3.39973
3.40866
3.41381
3.42161
3.4262
3.43335
3.4381
3.44669
3.45466
3.45844
3.46308
3.46558
3.46914
3.47112
3.47404
3.47568
3.47812
3.4795
3.48155
3.48271
3.48443
3.4854
3.48684
3.48764
3.48882
3.48946
3.49038
3.49085
3.49146
3.49185
3.49249
3.49287
3.49347
3.49382
3.49436
3.49467
3.49513
3.4954
3.4958
3.49602
3.49635
3.49653
3.49676
3.49685
3.49688
3.49669
3.49599
3.49459
3.49035
3.48324
3.47689
3.463
3.45042
3.42418
3.41528
3.41295
3.41238
3.41225
3.02116
3.09004
3.13107
3.17941
3.20612
3.2383
3.25683
3.2804
3.29409
3.31154
3.32119
3.33282
3.34063
3.3525
3.36024
3.37148
3.37862
3.38872
3.39507
3.40396
3.40952
3.41727
3.42211
3.42883
3.43304
3.43893
3.44268
3.44809
3.45199
3.45851
3.46458
3.46769
3.47121
3.47326
3.47594
3.47757
3.47977
3.48111
3.48295
3.48408
3.48562
3.48657
3.48787
3.48866
3.48974
3.4904
3.49129
3.49181
3.4925
3.49288
3.49335
3.49367
3.49415
3.49446
3.49491
3.4952
3.4956
3.49586
3.49621
3.49643
3.49673
3.49691
3.49716
3.4973
3.49747
3.49754
3.49756
3.49741
3.49685
3.49568
3.49238
3.48697
3.48175
3.47123
3.46098
3.44165
3.43439
3.43238
3.43187
3.43176
3.15982
3.20653
3.23662
3.27046
3.29019
3.31273
3.32641
3.3429
3.353
3.36519
3.37232
3.3805
3.38626
3.39454
3.40026
3.4081
3.41337
3.42042
3.42511
3.43132
3.43542
3.44084
3.44441
3.44911
3.45221
3.45632
3.4591
3.46289
3.46578
3.47036
3.47463
3.47693
3.4794
3.48092
3.48279
3.48399
3.48553
3.48652
3.4878
3.48864
3.48972
3.49042
3.49132
3.49191
3.49266
3.49315
3.49377
3.49416
3.49464
3.49492
3.49525
3.49548
3.49582
3.49605
3.49636
3.49657
3.49686
3.49704
3.49729
3.49745
3.49766
3.49779
3.49797
3.49807
3.49819
3.49824
3.49825
3.49814
3.49773
3.49686
3.4945
3.49069
3.48682
3.47944
3.4719
3.45863
3.45328
3.45174
3.45135
3.45126
3.29661
3.32369
3.34202
3.36206
3.37415
3.3875
3.39589
3.40564
3.41183
3.41904
3.4234
3.42826
3.43179
3.43669
3.44018
3.44482
3.44805
3.45222
3.45509
3.45876
3.46127
3.46447
3.46666
3.46944
3.47134
3.47378
3.47547
3.47772
3.47949
3.48221
3.48475
3.48616
3.48763
3.48855
3.48966
3.4904
3.49131
3.49192
3.49268
3.49319
3.49382
3.49425
3.49479
3.49515
3.49559
3.49589
3.49626
3.49649
3.49678
3.49695
3.49715
3.49729
3.49749
3.49763
3.49782
3.49795
3.49811
3.49823
3.49837
3.49847
3.49859
3.49868
3.49878
3.49884
3.49891
3.49895
3.49895
3.49888
3.49863
3.49809
3.49668
3.49441
3.49204
3.48766
3.48306
3.4753
3.47203
3.47106
3.47082
3.47076
3.43232
3.44119
3.44735
3.45399
3.45805
3.46248
3.4653
3.46853
3.47061
3.473
3.47447
3.47608
3.47727
3.47889
3.48007
3.4816
3.48269
3.48407
3.48503
3.48625
3.48709
3.48815
3.48889
3.48981
3.49045
3.49126
3.49183
3.49257
3.49317
3.49407
3.49491
3.49539
3.49587
3.49619
3.49655
3.4968
3.4971
3.49731
3.49756
3.49773
3.49794
3.49808
3.49826
3.49838
3.49853
3.49863
3.49875
3.49883
3.49893
3.49898
3.49905
3.4991
3.49916
3.49921
3.49927
3.49932
3.49937
3.49941
3.49946
3.49949
3.49953
3.49956
3.49959
3.49961
3.49964
3.49965
3.49965
3.49962
3.49954
3.49936
3.49889
3.49814
3.49734
3.49588
3.49434
3.49179
3.49069
3.49036
3.49027
3.49025
3.43225
3.44055
3.44587
3.45088
3.4536
3.45609
3.45747
3.45881
3.45956
3.46029
3.4608
3.46147
3.46194
3.46255
3.46298
3.46353
3.46392
3.46441
3.46476
3.4652
3.46551
3.4659
3.46617
3.46652
3.46676
3.46706
3.46728
3.46756
3.46778
3.46811
3.46842
3.4686
3.46877
3.46888
3.469
3.46909
3.46919
3.46925
3.46934
3.46939
3.46946
3.4695
3.46956
3.46959
3.46964
3.46967
3.4697
3.46972
3.46975
3.46977
3.46978
3.46979
3.46981
3.46982
3.46983
3.46984
3.46984
3.46984
3.46984
3.46984
3.46982
3.46981
3.46977
3.46974
3.46967
3.4696
3.46947
3.46931
3.46899
3.46852
3.46747
3.466
3.46468
3.46251
3.46042
3.45713
3.45573
3.45531
3.4552
3.45517
3.29641
3.32176
3.33761
3.35272
3.36081
3.3683
3.37242
3.37646
3.37868
3.38089
3.3824
3.38441
3.38581
3.38766
3.38894
3.3906
3.39175
3.39324
3.39427
3.3956
3.39652
3.3977
3.39851
3.39955
3.40026
3.40118
3.40182
3.40267
3.40333
3.40434
3.40528
3.40579
3.40631
3.40663
3.40701
3.40726
3.40756
3.40776
3.40801
3.40817
3.40837
3.40851
3.40867
3.40878
3.40891
3.409
3.4091
3.40917
3.40925
3.4093
3.40935
3.40938
3.40943
3.40946
3.40949
3.40951
3.40953
3.40953
3.40953
3.40951
3.40947
3.40942
3.40932
3.40922
3.40902
3.40881
3.40842
3.40795
3.40699
3.40559
3.40241
3.39801
3.39409
3.38753
3.38129
3.37132
3.36715
3.36591
3.36559
3.36552
3.15956
3.20335
3.22938
3.25485
3.26804
3.28065
3.28738
3.29417
3.2978
3.30151
3.30397
3.30737
3.30967
3.31279
3.31488
3.31769
3.31957
3.32209
3.32377
3.32602
3.32752
3.32951
3.33084
3.3326
3.33376
3.33532
3.33636
3.33779
3.33887
3.34057
3.34214
3.34298
3.34386
3.34438
3.34503
3.34543
3.34594
3.34627
3.34669
3.34695
3.34729
3.34751
3.34779
3.34796
3.34819
3.34833
3.34851
3.34862
3.34875
3.34883
3.34891
3.34897
3.34905
3.3491
3.34916
3.34919
3.34922
3.34923
3.34921
3.34919
3.34911
3.34903
3.34887
3.3487
3.34837
3.34803
3.34737
3.3466
3.345
3.34272
3.33741
3.32999
3.32359
3.31254
3.30232
3.28528
3.27845
3.27648
3.27598
3.27586
3.02095
3.08565
3.12117
3.15746
3.17529
3.19324
3.20233
3.21202
3.21692
3.22218
3.22551
3.23038
3.2335
3.23796
3.24079
3.24481
3.24736
3.25097
3.25325
3.25647
3.2585
3.26135
3.26315
3.26567
3.26725
3.26947
3.27089
3.27293
3.27439
3.27681
3.27904
3.28017
3.28142
3.28213
3.28305
3.2836
3.28433
3.28477
3.28537
3.28573
3.28621
3.28651
3.28691
3.28715
3.28747
3.28766
3.28792
3.28807
3.28826
3.28836
3.28848
3.28856
3.28867
3.28874
3.28882
3.28886
3.28891
3.28892
3.2889
3.28886
3.28876
3.28865
3.28842
3.28819
3.28772
3.28726
3.28632
3.28529
3.28303
3.27998
3.27249
3.26194
3.25329
3.23751
3.22362
3.19883
3.18955
3.18699
3.18634
3.1862
2.87976
2.96912
3.01294
3.06082
3.08254
3.10618
3.11726
3.13005
3.13603
3.14292
3.14699
3.15345
3.15727
3.16319
3.16666
3.172
3.17511
3.1799
3.18269
3.18696
3.18944
3.19324
3.19543
3.19878
3.20071
3.20366
3.20539
3.20808
3.20986
3.21306
3.21598
3.21735
3.219
3.21987
3.22109
3.22176
3.22273
3.22327
3.22406
3.2245
3.22514
3.2255
3.22603
3.22632
3.22675
3.22699
3.22733
3.22751
3.22776
3.22789
3.22805
3.22815
3.22829
3.22838
3.22849
3.22854
3.2286
3.22861
3.22859
3.22854
3.22841
3.22827
3.22797
3.22769
3.22707
3.22651
3.22527
3.22403
3.2211
3.21742
3.2077
3.1938
3.18326
3.16241
3.14536
3.11176
3.10039
3.09742
3.09669
3.09653
2.73499
2.8544
2.90453
2.96522
2.98971
3.01963
3.03211
3.04836
3.0551
3.06378
3.06837
3.07664
3.08095
3.08853
3.09245
3.09927
3.10279
3.10891
3.11206
3.11753
3.12034
3.12518
3.12767
3.13194
3.13413
3.13789
3.13985
3.14328
3.14528
3.14931
3.15299
3.15453
3.15661
3.1576
3.15915
3.15991
3.16115
3.16176
3.16276
3.16326
3.16409
3.16449
3.16517
3.1655
3.16605
3.16631
3.16675
3.16695
3.16728
3.16742
3.16762
3.16773
3.16792
3.16801
3.16816
3.16822
3.16829
3.1683
3.16828
3.16822
3.16805
3.1679
3.16751
3.1672
3.16642
3.16579
3.16423
3.16284
3.1592
3.15509
3.14307
3.12554
3.11366
3.08715
3.06776
3.0238
3.01089
3.00776
3.00702
3.00685
2.58545
2.74246
2.79571
2.87107
2.89667
2.93377
2.94682
2.96704
2.97409
2.9848
2.98961
2.99998
3.00451
3.01401
3.01812
3.02667
3.03037
3.03804
3.04135
3.0482
3.05115
3.05723
3.05983
3.06519
3.06748
3.0722
3.07425
3.07853
3.08062
3.08558
3.09008
3.09168
3.09427
3.0953
3.09724
3.09804
3.09959
3.10023
3.10149
3.10201
3.10304
3.10347
3.10431
3.10466
3.10535
3.10563
3.10617
3.10639
3.1068
3.10695
3.1072
3.10731
3.10755
3.10765
3.10783
3.10789
3.10798
3.108
3.10797
3.10791
3.1077
3.10754
3.10706
3.10673
3.10576
3.1051
3.10318
3.10174
3.09731
3.09309
3.07866
3.05704
3.04463
3.01161
2.99114
2.9346
2.921
2.918
2.91732
2.91717
2.42962
2.63467
2.686
2.7789
2.80316
2.84887
2.86124
2.88625
2.89293
2.90606
2.91062
2.92355
2.92787
2.9397
2.94362
2.95427
2.95779
2.96734
2.9705
2.97903
2.98184
2.98941
2.99189
2.99856
3.00074
3.00661
3.00856
3.01387
3.01585
3.02187
3.02728
3.02879
3.03199
3.03297
3.03538
3.03614
3.03807
3.03868
3.04025
3.04074
3.04203
3.04243
3.04348
3.04382
3.04467
3.04494
3.04561
3.04582
3.04633
3.04647
3.04678
3.04689
3.04719
3.04728
3.0475
3.04756
3.04768
3.04769
3.04766
3.0476
3.04735
3.04719
3.04659
3.04628
3.04509
3.04447
3.04211
3.04075
3.03542
3.03149
3.01454
2.98818
2.97643
2.93557
2.91596
2.84368
2.83069
2.82816
2.82761
2.82748
2.26559
2.53303
2.57463
2.68949
2.70879
2.7653
2.77516
2.8062
2.81151
2.82766
2.83129
2.84747
2.85092
2.86571
2.86884
2.88215
2.88497
2.89691
2.89943
2.91009
2.91233
2.92179
2.92377
2.93211
2.93385
2.94118
2.94274
2.94934
2.95091
2.95818
2.96464
2.96583
2.9698
2.97058
2.97359
2.97419
2.9766
2.97708
2.97904
2.97944
2.98104
2.98137
2.98268
2.98295
2.98401
2.98423
2.98507
2.98524
2.98587
2.98599
2.98637
2.98645
2.98683
2.9869
2.98719
2.98724
2.98738
2.98739
2.98735
2.9873
2.98698
2.98687
2.98612
2.98587
2.9844
2.98391
2.981
2.97993
2.97347
2.97042
2.95079
2.91874
2.9094
2.85868
2.84289
2.75039
2.73996
2.73823
2.73787
2.73779
2.09086
2.44041
2.46033
2.60389
2.61294
2.6836
2.68822
2.72717
2.72966
2.74976
2.75147
2.77189
2.77352
2.79219
2.79366
2.81045
2.81178
2.82684
2.82803
2.84148
2.84254
2.85447
2.85541
2.86592
2.86674
2.87598
2.87671
2.88501
2.88574
2.89452
2.90222
2.90277
2.90773
2.9081
2.91189
2.91217
2.9152
2.91543
2.9179
2.91809
2.92011
2.92026
2.92192
2.92204
2.92339
2.92349
2.92456
2.92464
2.92544
2.92549
2.92597
2.92601
2.92649
2.92652
2.92688
2.9269
2.92709
2.92709
2.92704
2.92702
2.92662
2.92656
2.92563
2.92551
2.92367
2.92344
2.91981
2.91931
2.91139
2.91
2.88754
2.84838
2.84402
2.78039
2.77289
2.65382
2.64887
2.64825
2.64812
2.6481
)
;

boundaryField
{
    F1_1
    {
        type            fixedValue;
        value           nonuniform List<scalar> 
80
(
1.99673
2.4012
2.4012
2.56486
2.56486
2.64639
2.64639
2.69348
2.69348
2.72325
2.72325
2.74036
2.74036
2.75912
2.75912
2.77703
2.77703
2.79352
2.79352
2.80845
2.80845
2.8218
2.8218
2.83361
2.83361
2.84401
2.84401
2.85336
2.85336
2.86299
2.87135
2.87135
2.87694
2.87694
2.88123
2.88123
2.88466
2.88466
2.88745
2.88745
2.88974
2.88974
2.89162
2.89162
2.89314
2.89314
2.89435
2.89435
2.89526
2.89526
2.8958
2.8958
2.89634
2.89634
2.89675
2.89675
2.89696
2.89696
2.89689
2.89689
2.89643
2.89643
2.89537
2.89537
2.89328
2.89328
2.88916
2.88916
2.88022
2.88022
2.85626
2.81251
2.81251
2.74013
2.74013
2.60325
2.60325
2.60325
2.60325
2.60325
)
;
    }
    F1_2
    {
        type            fixedValue;
        value           nonuniform List<scalar> 
80
(
1.98912
2.41342
2.41342
2.63719
2.63719
2.7866
2.7866
2.89774
2.89774
2.98096
2.98096
3.03292
3.03292
3.09019
3.09019
3.144
3.144
3.19222
3.19222
3.23457
3.23457
3.27144
3.27144
3.30343
3.30343
3.3313
3.3313
3.35633
3.35633
3.38236
3.40541
3.40541
3.42139
3.42139
3.434
3.434
3.44442
3.44442
3.45315
3.45315
3.46049
3.46049
3.46665
3.46665
3.4718
3.4718
3.47603
3.47603
3.47933
3.47933
3.48143
3.48143
3.48374
3.48374
3.48592
3.48592
3.48785
3.48785
3.48952
3.48952
3.49096
3.49096
3.49214
3.49214
3.49302
3.49302
3.49329
3.49329
3.49166
3.49166
3.4825
3.46013
3.46013
3.41268
3.41268
3.30487
3.30487
3.30487
3.30487
3.30487
)
;
    }
    F1_3
    {
        type            fixedValue;
        value           nonuniform List<scalar> 
80
(
1.98912
2.41341
2.41341
2.63718
2.63718
2.78659
2.78659
2.89773
2.89773
2.98095
2.98095
3.03292
3.03292
3.09018
3.09018
3.14399
3.14399
3.19221
3.19221
3.23457
3.23457
3.27144
3.27144
3.30343
3.30343
3.3313
3.3313
3.35632
3.35632
3.38236
3.40541
3.40541
3.42138
3.42138
3.434
3.434
3.44442
3.44442
3.45315
3.45315
3.46048
3.46048
3.46665
3.46665
3.4718
3.4718
3.47603
3.47603
3.47933
3.47933
3.48142
3.48142
3.48374
3.48374
3.48592
3.48592
3.48785
3.48785
3.48952
3.48952
3.49096
3.49096
3.49214
3.49214
3.49302
3.49302
3.49329
3.49329
3.49166
3.49166
3.4825
3.46013
3.46013
3.41269
3.41269
3.3049
3.3049
3.3049
3.3049
3.3049
)
;
    }
    F1_4
    {
        type            fixedValue;
        value           nonuniform List<scalar> 
80
(
1.99649
2.40069
2.40069
2.56377
2.56377
2.64406
2.64406
2.68838
2.68838
2.71117
2.71117
2.73448
2.73448
2.75576
2.75576
2.77491
2.77491
2.79208
2.79208
2.80742
2.80742
2.82103
2.82103
2.83302
2.83302
2.84354
2.84354
2.853
2.853
2.86272
2.87114
2.87114
2.87679
2.87679
2.88111
2.88111
2.88456
2.88456
2.88738
2.88738
2.88968
2.88968
2.89157
2.89157
2.8931
2.8931
2.89432
2.89432
2.89523
2.89523
2.89578
2.89578
2.89632
2.89632
2.89673
2.89673
2.89694
2.89694
2.89688
2.89688
2.89642
2.89642
2.89536
2.89536
2.89327
2.89327
2.88916
2.88916
2.88022
2.88022
2.85625
2.81251
2.81251
2.74012
2.74012
2.60325
2.60325
2.60325
2.60325
2.60325
)
;
    }
    F2_1
    {
        type            fixedValue;
        value           uniform 3.5;
    }
    F2_2
    {
        type            fixedValue;
        value           uniform 3.5;
    }
    F2_3
    {
        type            fixedValue;
        value           uniform 3.5;
    }
    F2_4
    {
        type            fixedValue;
        value           uniform 3.5;
    }
    defaultFaces
    {
        type            empty;
    }
}


// ************************************************************************* //
