/*--------------------------------*- C++ -*----------------------------------*\
| =========                 |                                                 |
| \\      /  F ield         | OpenFOAM: The Open Source CFD Toolbox           |
|  \\    /   O peration     | Version:  5.x                                   |
|   \\  /    A nd           | Web:      www.OpenFOAM.org                      |
|    \\/     M anipulation  |                                                 |
\*---------------------------------------------------------------------------*/
FoamFile
{
    version     2.0;
    format      ascii;
    class       volScalarField;
    location    "15.9";
    object      gradTx;
}
// * * * * * * * * * * * * * * * * * * * * * * * * * * * * * * * * * * * * * //

dimensions      [0 -1 0 1 0 0 0];

internalField   nonuniform List<scalar> 
2048
(
0.00630497
0.0187342
0.0306383
0.0417195
0.0517489
0.0605773
0.068134
0.0744171
0.0794761
0.083394
0.0862705
0.0882099
0.0893142
0.0896803
0.0894005
0.0885642
0.0872579
0.0855654
0.0835644
0.0813234
0.0788981
0.0763293
0.0736418
0.0708458
0.067939
0.0649094
0.0617373
0.0583972
0.0548582
0.0510844
0.0470355
0.0426678
0.0379361
0.0327959
0.0272052
0.0211265
0.0145276
0.00738221
-0.00032912
-0.00861807
-0.0174862
-0.0269211
-0.0368914
-0.0473398
-0.0581746
-0.0692612
-0.0804123
-0.0913808
-0.101856
-0.111464
-0.119782
-0.12636
-0.130753
-0.13257
-0.131512
-0.127416
-0.120277
-0.110248
-0.0976155
-0.0827651
-0.0661297
-0.0481503
-0.029247
-0.00980742
0.0187885
0.0558176
0.0912555
0.124204
0.153977
0.180134
0.202476
0.221009
0.235896
0.247396
0.255814
0.261463
0.264647
0.265653
0.264752
0.262208
0.258277
0.253209
0.247237
0.240566
0.233363
0.225748
0.217795
0.209531
0.200947
0.192007
0.182651
0.172802
0.16237
0.151247
0.139313
0.126438
0.112487
0.097326
0.0808296
0.062886
0.0433994
0.022292
-0.000495133
-0.0249982
-0.0512248
-0.079143
-0.108665
-0.139629
-0.171771
-0.204701
-0.237871
-0.270554
-0.301829
-0.330583
-0.355547
-0.375359
-0.388673
-0.394289
-0.391296
-0.379193
-0.357962
-0.328074
-0.290412
-0.246152
-0.196609
-0.143109
-0.0869053
-0.0291383
0.0311401
0.0924824
0.151105
0.205483
0.254469
0.297348
0.333823
0.363948
0.388038
0.406557
0.420035
0.429003
0.43396
0.435372
0.433678
0.429306
0.422677
0.414205
0.40428
0.393246
0.381383
0.368888
0.355878
0.342392
0.328409
0.313861
0.298649
0.282645
0.265701
0.247642
0.228267
0.20736
0.184693
0.160044
0.133203
0.103986
0.0722348
0.0378203
0.000644195
-0.0393582
-0.0822084
-0.127867
-0.17621
-0.226991
-0.279805
-0.334035
-0.388811
-0.442957
-0.494964
-0.542987
-0.584897
-0.618383
-0.641135
-0.651075
-0.64661
-0.626862
-0.591801
-0.542253
-0.479769
-0.406389
-0.324373
-0.235962
-0.143224
-0.0480093
0.0435997
0.129425
0.211272
0.286936
0.354791
0.413866
0.463816
0.504811
0.537378
0.562244
0.580195
0.591989
0.598319
0.599816
0.597068
0.590656
0.581161
0.569165
0.555222
0.539823
0.523365
0.506124
0.488251
0.469787
0.450686
0.430846
0.41012
0.388336
0.365286
0.34073
0.314391
0.285959
0.255113
0.221535
0.184931
0.145042
0.101651
0.0545798
0.00368882
-0.0511202
-0.109894
-0.172604
-0.239114
-0.309127
-0.382132
-0.457336
-0.533587
-0.6093
-0.682406
-0.75033
-0.810043
-0.858203
-0.891418
-0.906593
-0.901329
-0.874291
-0.825432
-0.756012
-0.66838
-0.565592
-0.450973
-0.327745
-0.198793
-0.0666109
0.056383
0.167267
0.272718
0.369766
0.456279
0.53106
0.593788
0.644842
0.685059
0.715496
0.737244
0.751302
0.758548
0.759752
0.755631
0.746899
0.734297
0.718579
0.700482
0.68066
0.659634
0.637758
0.615208
0.592012
0.568085
0.543274
0.517387
0.490203
0.461468
0.430877
0.398071
0.362648
0.324181
0.282251
0.236474
0.186518
0.132109
0.0730224
0.00907875
-0.0598599
-0.133879
-0.212982
-0.29705
-0.385777
-0.478594
-0.574583
-0.672369
-0.770016
-0.864928
-0.9538
-1.03265
-1.09699
-1.14217
-1.16386
-1.15868
-1.1247
-1.06185
-0.971943
-0.858329
-0.725315
-0.577482
-0.419134
-0.253975
-0.0850564
0.0696948
0.206597
0.336337
0.455067
0.560113
0.650098
0.724829
0.785018
0.831936
0.867072
0.891871
0.907589
0.915264
0.915773
0.909925
0.898548
0.882535
0.862835
0.840387
0.816033
0.790435
0.764023
0.736987
0.709314
0.68086
0.651407
0.620712
0.588514
0.554517
0.518361
0.479606
0.437744
0.392231
0.342536
0.28818
0.228757
0.16394
0.0934681
0.0171223
-0.0652788
-0.153873
-0.248722
-0.349758
-0.456708
-0.569003
-0.685662
-0.805163
-0.925285
-1.04296
-1.15417
-1.25391
-1.33641
-1.39553
-1.42543
-1.42143
-1.38085
-1.30358
-1.19214
-1.05119
-0.886623
-0.704541
-0.510466
-0.308918
-0.103386
0.0837394
0.247994
0.402998
0.543874
0.667372
0.771999
0.857829
0.926081
0.978621
1.01749
1.04454
1.06129
1.06892
1.06833
1.0604
1.04602
1.02624
1.00224
0.97518
0.946142
0.915946
0.885097
0.853776
0.8219
0.789231
0.755468
0.720312
0.683476
0.644639
0.603394
0.559219
0.511487
0.459518
0.402652
0.340304
0.272
0.197372
0.116127
0.028017
-0.0671849
-0.169684
-0.279626
-0.397033
-0.521711
-0.653149
-0.79038
-0.93182
-1.07506
-1.21663
-1.35183
-1.47461
-1.57773
-1.65327
-1.69348
-1.69204
-1.64521
-1.55281
-1.41831
-1.24811
-1.05014
-0.832385
-0.601756
-0.363565
-0.121568
0.0987283
0.292055
0.473575
0.637201
0.779066
0.89766
0.993513
1.06857
1.1255
1.16703
1.19551
1.21269
1.21982
1.21778
1.2074
1.18964
1.16571
1.13701
1.10504
1.07112
1.03628
1.0011
0.965724
0.929945
0.893391
0.855651
0.81637
0.775253
0.731983
0.686126
0.637071
0.584053
0.52623
0.462789
0.39303
0.316413
0.232541
0.141114
0.0418659
-0.065478
-0.181204
-0.305569
-0.438722
-0.580601
-0.730812
-0.888483
-1.05207
-1.21908
-1.38579
-1.54686
-1.69517
-1.82184
-1.91681
-1.96996
-1.97276
-1.92005
-1.81151
-1.65186
-1.44985
-1.21607
-0.960865
-0.692711
-0.417662
-0.139506
0.114887
0.339411
0.548981
0.736072
0.896166
1.02788
1.13246
1.21285
1.27278
1.31582
1.34487
1.36192
1.36817
1.36437
1.35124
1.32972
1.30118
1.26735
1.23007
1.19104
1.15151
1.11213
1.07295
1.03361
0.99352
0.952134
0.909039
0.863968
0.816652
0.766654
0.713272
0.655571
0.59251
0.523091
0.446484
0.362091
0.269514
0.168469
0.05869
-0.0601383
-0.188398
-0.326489
-0.474728
-0.633231
-0.80178
-0.979679
-1.16554
-1.35695
-1.55004
-1.73901
-1.91565
-2.06929
-2.18733
-2.25662
-2.26574
-2.20757
-2.08148
-1.89394
-1.65681
-1.38423
-1.08945
-0.782738
-0.470766
-0.157037
0.132462
0.390742
0.630179
0.841536
1.01962
1.16339
1.27511
1.3591
1.42043
1.46375
1.49255
1.50898
1.51409
1.50834
1.49218
1.46651
1.43287
1.39338
1.35035
1.30592
1.26163
1.21821
1.17556
1.13304
1.0898
1.04509
0.998455
0.949711
0.898703
0.84503
0.787886
0.726129
0.658464
0.583662
0.500749
0.409082
0.308295
0.19816
0.0784386
-0.0512175
-0.191302
-0.34239
-0.505009
-0.679495
-0.865861
-1.06367
-1.2718
-1.4881
-1.70878
-1.92774
-2.13579
-2.32032
-2.46572
-2.55508
-2.57313
-2.50998
-2.36451
-2.14548
-1.86905
-1.55402
-1.21724
-0.870954
-0.522259
-0.173941
0.151726
0.446796
0.718211
0.954692
1.15037
1.30482
1.42177
1.50734
1.56829
1.61058
1.63835
1.65381
1.65765
1.64985
1.63048
1.60026
1.56096
1.5152
1.46589
1.41572
1.36662
1.31937
1.27363
1.22839
1.1824
1.13469
1.08474
1.03254
0.978151
0.92126
0.860945
0.795787
0.724172
0.644585
0.555879
0.45739
0.348838
0.230098
0.100998
-0.0388298
-0.190008
-0.35333
-0.529577
-0.719342
-0.922908
-1.14016
-1.3704
-1.61189
-1.86121
-2.11224
-2.35501
-2.57485
-2.75267
-2.86686
-2.89711
-2.8296
-2.66236
-2.40724
-2.08629
-1.72442
-1.34295
-0.956204
-0.571359
-0.189945
0.17298
0.508398
0.814208
1.0767
1.28935
1.45274
1.57263
1.65742
1.716
1.75589
1.78194
1.79623
1.79886
1.7891
1.76639
1.73122
1.68564
1.63289
1.57666
1.52036
1.4664
1.41559
1.36725
1.31981
1.27154
1.22112
1.16802
1.11249
1.05497
0.995316
0.932445
0.864583
0.789703
0.705928
0.611906
0.50699
0.391054
0.264142
0.126199
-0.0231448
-0.184664
-0.359419
-0.548499
-0.752778
-0.972831
-1.20892
-1.46088
-1.72762
-2.0064
-2.29147
-2.57239
-2.83245
-3.04858
-3.1934
-3.23997
-3.16898
-2.97691
-2.67983
-2.30785
-1.89401
-1.46494
-1.03708
-0.617152
-0.204734
0.196565
0.576461
0.919403
1.20878
1.43748
1.60765
1.72775
1.80904
1.86303
1.89912
1.92289
1.93603
1.93772
1.92626
1.90021
1.85968
1.80709
1.74651
1.6826
1.6197
1.56083
1.50683
1.4565
1.4075
1.35745
1.30461
1.2484
1.18955
1.12909
1.06713
1.00236
0.93254
0.855118
0.767758
0.668851
0.557829
0.434818
0.30011
0.153825
-0.00438037
-0.17546
-0.360812
-0.561892
-0.779874
-1.01561
-1.26977
-1.54282
-1.83457
-2.14329
-2.46414
-2.78671
-3.09238
-3.3536
-3.53603
-3.6042
-3.53095
-3.31018
-2.96365
-2.53268
-2.06089
-1.58123
-1.11197
-0.658617
-0.217962
0.22286
0.651998
1.03514
1.35225
1.59568
1.76994
1.88705
1.96174
2.0087
2.03958
2.06067
2.07295
2.07424
2.06155
2.03227
1.98593
1.92548
1.85611
1.78362
1.71356
1.64976
1.59305
1.54146
1.49164
1.4404
1.3854
1.32601
1.2637
1.2004
1.13659
1.07065
0.999675
0.920484
0.830149
0.726733
0.609834
0.479976
0.337779
0.183614
0.0172045
-0.162622
-0.357697
-0.569919
-0.800764
-1.05131
-1.32261
-1.6159
-1.93205
-2.27075
-2.62879
-2.99643
-3.35351
-3.66756
-3.896
-3.99248
-3.91882
-3.66444
-3.25894
-2.75922
-2.22269
-1.6895
-1.17909
-0.694677
-0.229274
0.252291
0.736125
1.1629
1.50849
1.76485
1.93992
2.05036
2.11494
2.15215
2.17642
2.19471
2.20672
2.20839
2.19521
2.16297
2.11032
2.041
1.96171
1.8796
1.8017
1.73295
1.67418
1.62225
1.57247
1.52069
1.46378
1.40099
1.33486
1.26872
1.20356
1.13726
1.066
0.985872
0.893195
0.78557
0.662917
0.526349
0.376896
0.215266
0.0413154
-0.146401
-0.350282
-0.572778
-0.815645
-1.08007
-1.36746
-1.67986
-2.01943
-2.38765
-2.78374
-3.19971
-3.61434
-3.98992
-4.27435
-4.40778
-4.33645
-4.0423
-3.56567
-2.98537
-2.37655
-1.78713
-1.23656
-0.724241
-0.238318
0.285342
0.830064
1.30427
1.67901
1.94584
2.11775
2.21737
2.26791
2.29238
2.30869
2.32437
2.33708
2.3402
2.32752
2.29279
2.2332
2.15382
2.06337
1.97039
1.88382
1.81016
1.75014
1.699
1.65024
1.59868
1.54013
1.47348
1.40291
1.33382
1.26788
1.20213
1.13152
1.05137
0.957019
0.845388
0.71697
0.573742
0.417182
0.248448
0.0676275
-0.127067
-0.33879
-0.570695
-0.824777
-1.10215
-1.40443
-1.73461
-2.09621
-2.49284
-2.92722
-3.39442
-3.87301
-4.31974
-4.67186
-4.85335
-4.7885
-4.44677
-3.88352
-3.20837
-2.51909
-1.87131
-1.28246
-0.746272
-0.244771
0.322561
0.935142
1.46097
1.8654
2.13943
2.30343
2.3877
2.41983
2.42825
2.43532
2.44901
2.46382
2.46965
2.45882
2.4223
2.35498
2.2641
2.16112
2.05582
1.95955
1.88104
1.82085
1.77188
1.72521
1.67476
1.61489
1.54364
1.46767
1.39539
1.32934
1.2652
1.19624
1.11707
1.02179
0.90622
0.77186
0.621945
0.458338
0.282793
0.0957894
-0.104896
-0.323437
-0.563906
-0.828471
-1.11788
-1.43375
-1.78016
-2.16206
-2.58527
-3.05732
-3.57815
-4.12725
-4.6556
-5.08889
-5.33269
-5.28067
-4.88146
-4.21165
-3.42467
-2.64643
-1.93906
-1.31496
-0.759839
-0.248354
0.364586
1.05278
1.63482
2.06943
2.34632
2.49676
2.56088
2.56979
2.55844
2.55509
2.56797
2.58678
2.59674
2.58946
2.55223
2.4761
2.37196
2.25506
2.13572
2.02846
1.94519
1.88625
1.84112
1.79766
1.74939
1.68863
1.61168
1.52885
1.45304
1.38774
1.32648
1.26014
1.18309
1.08774
0.968108
0.827426
0.670748
0.500056
0.317901
0.125426
-0.0801632
-0.304418
-0.552649
-0.827091
-1.12769
-1.45574
-1.81671
-2.21685
-2.664
-3.17208
-3.74825
-4.37448
-4.99557
-5.52515
-5.84956
-5.81996
-5.35065
-4.54861
-3.62979
-2.75418
-1.98739
-1.33241
-0.764183
-0.248859
0.412183
1.18447
1.82772
2.29305
2.56703
2.69725
2.73646
2.71686
2.6815
2.66669
2.68067
2.70597
2.72138
2.7198
2.68352
2.59698
2.4774
2.34533
2.20995
2.09001
2.00214
1.9463
1.90703
1.8678
1.82301
1.76207
1.6778
1.5861
1.50625
1.44286
1.38599
1.32319
1.24954
1.15519
1.0311
0.883455
0.71995
0.542021
0.35334
0.156137
-0.0531365
-0.281895
-0.537145
-0.821041
-1.1321
-1.47082
-1.84457
-2.26075
-2.72826
-3.26952
-3.90187
-4.61182
-5.33721
-5.97943
-6.40784
-6.41518
-5.85948
-4.89194
-3.81813
-2.83755
-2.01338
-1.3334
-0.758771
-0.246157
0.46631
1.33173
2.0416
2.53854
2.80186
2.90401
2.91409
2.86011
2.79577
2.76865
2.78655
2.82159
2.84338
2.85019
2.81737
2.71805
2.5803
2.43219
2.27838
2.14357
2.0513
2.00098
1.97005
1.93579
1.89608
1.83615
1.74225
1.63888
1.55442
1.49448
1.44388
1.38528
1.3165
1.22462
1.09522
0.939657
0.769385
0.583929
0.388639
0.187502
-0.0240692
-0.255977
-0.517582
-0.810763
-1.13175
-1.47945
-1.8642
-2.29424
-2.77753
-3.34763
-4.03593
-4.83622
-5.67767
-6.44919
-7.01134
-7.07746
-6.41416
-5.23783
-3.98281
-2.89141
-2.0144
-1.31693
-0.74334
-0.240215
0.528231
1.49608
2.27833
2.80861
3.05079
3.11565
3.09364
2.99865
2.89942
2.85934
2.88522
2.93415
2.96231
2.98086
2.95542
2.83963
2.68026
2.51612
2.34094
2.18836
2.09196
2.05033
2.03081
2.00164
1.969
1.91214
1.80532
1.6865
1.59678
1.54244
1.50045
1.44619
1.38402
1.29668
1.16051
0.995625
0.818953
0.625491
0.423277
0.219073
0.0068025
-0.226701
-0.4941
-0.79673
-1.12738
-1.48211
-1.87612
-2.31822
-2.8115
-3.40445
-4.14719
-5.04459
-6.0138
-6.93008
-7.66344
-7.82108
-7.02215
-5.5805
-4.11554
-2.91049
-1.98822
-1.28244
-0.717931
-0.231102
0.599696
1.67889
2.53955
3.10671
3.31334
3.33005
3.27543
3.13172
2.99035
2.93694
2.97638
3.04466
3.07736
3.1119
3.09993
2.96191
2.77651
2.59791
2.39764
2.22343
2.12328
2.09447
2.09025
2.06508
2.04209
1.99172
1.86729
1.72801
1.63239
1.58658
1.55624
1.50553
1.45207
1.37235
1.2269
1.05078
0.868675
0.666445
0.456676
0.250379
0.0392608
-0.194018
-0.466772
-0.779436
-1.11986
-1.47921
-1.88086
-2.33407
-2.83021
-3.43808
-4.2322
-5.23392
-6.34256
-7.41522
-8.36663
-8.66444
-7.69241
-5.9114
-4.20654
-2.88963
-1.93325
-1.22993
-0.68289
-0.218982
0.683232
1.88135
2.82645
3.43736
3.58843
3.54409
3.46054
3.25868
3.06619
2.99942
3.05991
3.15484
3.18715
3.24308
3.25406
3.08484
2.86769
2.67886
2.44856
2.24759
2.1442
2.13357
2.14974
2.12547
2.11545
2.07718
1.92843
1.76218
1.66014
1.62683
1.61217
1.56262
1.52046
1.45302
1.29428
1.10427
0.918767
0.70656
0.488174
0.280925
0.0731028
-0.157772
-0.435593
-0.759388
-1.11028
-1.47109
-1.87888
-2.3438
-2.83398
-3.44668
-4.28725
-5.40145
-6.66149
-7.89447
-9.1217
-9.63148
-8.43566
-6.21821
-4.2445
-2.82411
-1.84869
-1.15996
-0.63887
-0.204111
0.782579
2.10421
3.13944
3.80671
3.87408
3.75331
3.65123
3.37899
3.12418
3.04444
3.1358
3.26744
3.2894
3.37373
3.42228
3.20794
2.9516
2.76107
2.49386
2.25941
2.15348
2.16785
2.2113
2.18158
2.18886
2.17168
1.98893
1.78745
1.67873
1.66316
1.66968
1.61636
1.58879
1.54072
1.36232
1.15491
0.969755
0.745633
0.517006
0.310202
0.108132
-0.117683
-0.400461
-0.737084
-1.09998
-1.45789
-1.87039
-2.35018
-2.82341
-3.42856
-4.30825
-5.54479
-6.9696
-8.35343
-9.92671
-10.7534
-9.26452
-6.48341
-4.21682
-2.71
-1.73468
-1.07366
-0.586794
-0.186822
0.903331
2.3476
3.47765
4.22334
4.16713
3.95139
3.85157
3.49221
3.16112
3.0694
3.20412
3.3867
3.38059
3.50244
3.61095
3.3301
3.0249
2.8478
2.53372
2.25713
2.14964
2.19755
2.27789
2.23131
2.26166
2.27956
2.04876
1.8018
1.68665
1.69556
1.73099
1.66502
1.65629
1.63837
1.43047
1.20097
1.02263
0.783473
0.542269
0.337698
0.144141
-0.0733225
-0.361172
-0.712977
-1.09065
-1.43951
-1.85515
-2.35697
-2.79935
-3.38221
-4.2906
-5.66195
-7.26857
-8.77229
-10.7755
-12.0711
-10.1938
-6.68262
-4.11002
-2.54468
-1.59242
-0.97273
-0.527806
-0.167505
1.05384
2.61072
3.83823
4.69928
4.46279
4.12961
4.06824
3.59774
3.1733
3.07138
3.26481
3.519
3.45542
3.62682
3.829
3.44927
3.0826
2.94397
2.56822
2.2386
2.13094
2.22281
2.35385
2.27143
2.33247
2.40678
2.10756
1.80279
1.68224
1.72397
1.79942
1.70602
1.72172
1.75012
1.49772
1.24008
1.07908
0.819853
0.562883
0.362926
0.180889
-0.0240955
-0.317416
-0.687422
-1.08452
-1.41547
-1.83224
-2.36921
-2.76276
-3.30641
-4.22896
-5.75125
-7.56441
-9.12454
-11.6555
-13.638
-11.2403
-6.78237
-3.91051
-2.32733
-1.42422
-0.859313
-0.463217
-0.146587
1.24646
2.89146
4.21544
5.25144
4.75407
4.276
4.31161
3.69458
3.15643
3.04715
3.31749
3.6736
3.50621
3.74303
4.08898
3.56208
3.11762
3.05691
2.59712
2.20126
2.09541
2.2435
2.44534
2.29711
2.39901
2.56147
2.16428
1.78746
1.66367
1.74814
1.87978
1.73557
1.78316
1.88181
1.5625
1.26894
1.14174
0.85444
0.577553
0.385465
0.218061
0.0307903
-0.268793
-0.660589
-1.0845
-1.38489
-1.79971
-2.3936
-2.7145
-3.20042
-4.117
-5.81092
-7.86969
-9.37555
-12.5455
-15.5237
-12.4233
-6.73752
-3.60578
-2.05934
-1.23348
-0.735931
-0.394426
-0.124509
1.49922
3.18588
4.59944
5.90343
5.03106
4.37446
4.5971
3.78081
3.10562
2.9933
3.36092
3.86376
3.52209
3.84534
4.40815
3.66329
3.1201
3.19718
2.6196
2.1421
2.04091
2.25893
2.56113
2.30144
2.45774
2.75465
2.21688
1.75236
1.62909
1.76743
1.97893
1.74832
1.83777
2.04153
1.62236
1.28308
1.2146
0.886672
0.584723
0.405022
0.255216
0.0923575
-0.21484
-0.632331
-1.09448
-1.3464
-1.75413
-2.43899
-2.65501
-3.06424
-3.94708
-5.83848
-8.20632
-9.48104
-13.4121
-17.8183
-13.7635
-6.48815
-3.18621
-1.74482
-1.02454
-0.605328
-0.322856
-0.101708
1.8379
3.48761
4.97474
6.68781
5.27997
4.40361
4.94692
3.85283
3.01543
2.90631
3.39245
4.10804
3.48811
3.92546
4.81005
3.74517
3.0766
3.37972
2.63369
2.05771
1.96518
2.26745
2.7134
2.27483
2.50351
3.0011
2.26177
1.69357
1.57668
1.78046
2.10641
1.73684
1.88153
2.24032
1.67371
1.27659
1.30346
0.915573
0.582541
0.42151
0.291713
0.161904
-0.155092
-0.602006
-1.11956
-1.29807
-1.69005
-2.51706
-2.58384
-2.899
-3.71002
-5.82962
-8.60904
-9.38553
-14.2057
-20.638
-15.2832
-5.95593
-2.64743
-1.39074
-0.802484
-0.470328
-0.249882
-0.0785924
2.29875
3.78714
5.31835
7.64888
5.48207
4.33551
5.39214
3.90435
2.87994
2.78289
3.40709
4.43193
3.38415
3.97184
5.32617
3.79667
2.96932
3.62521
2.63567
1.94431
1.86608
2.26588
2.91882
2.20428
2.52909
3.32039
2.29312
1.60684
1.50491
1.78465
2.27534
1.6911
1.9089
2.49297
1.71134
1.24171
1.41647
0.939503
0.568826
0.435162
0.326615
0.241063
-0.0891753
-0.56823
-1.16646
-1.23743
-1.59936
-2.64311
-2.49898
-2.70747
-3.39486
-5.77653
-9.12956
-9.02082
-14.8556
-24.1314
-17.005
-5.04007
-1.99351
-1.00696
-0.57282
-0.333679
-0.176776
-0.0555345
2.93165
4.07092
5.59752
8.84596
5.61225
4.13418
5.9752
3.92497
2.69304
2.62028
3.39632
4.86979
3.18362
3.96879
5.99799
3.80251
2.77503
3.9617
2.61912
1.79797
1.74177
2.24874
3.19981
2.07258
2.5247
3.73813
2.30198
1.48777
1.41269
1.77562
2.50336
1.5978
1.91242
2.81899
1.72804
1.16852
1.56484
0.955821
0.541062
0.446662
0.358569
0.331883
-0.0169459
-0.528563
-1.2439
-1.16144
-1.47049
-2.83709
-2.39604
-2.49471
-2.98874
-5.66572
-9.84134
-8.30461
-15.2643
-28.486
-18.9507
-3.6129
-1.24082
-0.60581
-0.341145
-0.197923
-0.104663
-0.0328558
3.80395
4.32039
5.76714
10.3571
5.63748
3.75401
6.75273
3.89842
2.44878
2.4168
3.34659
5.46714
2.85216
3.89554
6.87927
3.74204
2.46405
4.42644
2.5738
1.61476
1.59106
2.20725
3.58604
1.85739
2.47746
4.28735
2.27523
1.33207
1.29975
1.74639
2.81377
1.43965
1.88233
3.24368
1.71395
1.04449
1.76357
0.960456
0.496412
0.457299
0.38565
0.436935
0.061318
-0.479112
-1.36305
-1.06664
-1.28747
-3.12479
-2.2671
-2.26891
-2.47697
-5.47502
-10.8449
-7.13939
-15.3011
-33.9367
-21.1393
-1.51515
-0.422851
-0.201266
-0.112737
-0.0652794
-0.0344905
-0.0108238
)
;

boundaryField
{
    left
    {
        type            calculated;
        value           uniform 0;
    }
    right
    {
        type            calculated;
        value           uniform 0;
    }
    interface
    {
        type            calculated;
        value           nonuniform List<scalar> 
64
(
3.80395
4.32039
5.76714
10.3571
5.63748
3.75401
6.75273
3.89842
2.44878
2.4168
3.34659
5.46714
2.85216
3.89554
6.87927
3.74204
2.46405
4.42644
2.5738
1.61476
1.59106
2.20725
3.58604
1.85739
2.47746
4.28735
2.27523
1.33207
1.29975
1.74639
2.81377
1.43965
1.88233
3.24368
1.71395
1.04449
1.76357
0.960456
0.496412
0.457299
0.38565
0.436935
0.061318
-0.479112
-1.36305
-1.06664
-1.28747
-3.12479
-2.2671
-2.26891
-2.47697
-5.47502
-10.8449
-7.13939
-15.3011
-33.9367
-21.1393
-1.51515
-0.422851
-0.201266
-0.112737
-0.0652794
-0.0344905
-0.0108238
)
;
    }
    bottom
    {
        type            calculated;
        value           nonuniform List<scalar> 
64
(
0.00630497
0.0187342
0.0306383
0.0417195
0.0517489
0.0605773
0.068134
0.0744171
0.0794761
0.083394
0.0862705
0.0882099
0.0893142
0.0896803
0.0894005
0.0885642
0.0872579
0.0855654
0.0835644
0.0813234
0.0788981
0.0763293
0.0736418
0.0708458
0.067939
0.0649094
0.0617373
0.0583972
0.0548582
0.0510844
0.0470355
0.0426678
0.0379361
0.0327959
0.0272052
0.0211265
0.0145276
0.00738221
-0.00032912
-0.00861807
-0.0174862
-0.0269211
-0.0368914
-0.0473398
-0.0581746
-0.0692612
-0.0804123
-0.0913808
-0.101856
-0.111464
-0.119782
-0.12636
-0.130753
-0.13257
-0.131512
-0.127416
-0.120277
-0.110248
-0.0976155
-0.0827651
-0.0661297
-0.0481503
-0.029247
-0.00980742
)
;
    }
    defaultFaces
    {
        type            empty;
    }
}


// ************************************************************************* //
