/*--------------------------------*- C++ -*----------------------------------*\
| =========                 |                                                 |
| \\      /  F ield         | OpenFOAM: The Open Source CFD Toolbox           |
|  \\    /   O peration     | Version:  5.x                                   |
|   \\  /    A nd           | Web:      www.OpenFOAM.org                      |
|    \\/     M anipulation  |                                                 |
\*---------------------------------------------------------------------------*/
FoamFile
{
    version     2.0;
    format      ascii;
    class       volScalarField;
    location    "2.3001";
    object      gradTy;
}
// * * * * * * * * * * * * * * * * * * * * * * * * * * * * * * * * * * * * * //

dimensions      [0 -1 0 1 0 0 0];

internalField   nonuniform List<scalar> 
6300
(
32285.2
32255.6
32225.9
32196.1
32165.9
32135.5
32104.8
32073.6
32041.9
32009.8
31977.1
31943.8
31909.9
31875.5
31840.5
0.0516244
0.154395
0.255703
0.354474
0.449482
0.53931
0.622336
0.696747
0.760608
0.811969
0.849056
0.870496
0.875597
0.864603
0.83888
0.0865576
0.258916
0.428949
0.59492
0.754829
0.906332
1.04671
1.17286
1.28144
1.369
1.43231
1.46879
1.477
1.45715
1.41149
0.12225
0.36577
0.606266
0.841443
1.0686
1.2845
1.48532
1.66658
1.82333
1.9503
2.04243
2.0954
2.10651
2.07554
2.00553
0.158923
0.47565
0.788906
1.09599
1.39362
1.67777
1.94349
2.18483
2.39498
2.56647
2.6917
2.76388
2.77812
2.73298
2.63191
0.196713
0.589001
0.97772
1.35998
1.73214
2.08948
2.42602
2.73429
3.00532
3.22888
3.39405
3.49029
3.50911
3.44635
3.3048
0.235643
0.705923
1.17299
1.63409
2.08546
2.522
2.93684
3.32098
3.66312
3.94969
4.16533
4.29413
4.32171
4.2385
4.04421
0.275579
0.826053
1.37425
1.91791
2.45361
2.97623
3.47835
3.94969
4.37652
4.74142
5.02345
5.19919
5.24511
5.14176
4.88049
0.316201
0.948461
1.58005
2.20971
2.83486
3.45096
4.05066
4.6229
5.15185
5.61605
5.98788
6.2341
6.31781
6.20296
5.86256
0.356968
1.07154
1.78779
2.50601
3.22516
3.94209
4.65045
5.33941
5.99196
6.58304
7.07795
7.43151
7.58907
7.48969
7.07218
0.397099
1.19295
1.99355
2.80138
3.6177
4.44178
5.26965
6.09235
6.89354
7.64624
8.30938
8.82493
9.1172
9.09442
8.64572
0.435581
1.3096
2.19209
3.08825
4.0025
4.9377
5.89401
6.86684
7.84362
8.799
9.6884
10.4416
10.9602
11.1247
10.7921
0.471204
1.4178
2.37696
3.35706
4.36634
5.41252
6.50187
7.63738
8.81514
10.0178
11.2036
12.2925
13.157
13.6515
13.7232
0.502642
1.51343
2.54088
3.59669
4.69331
5.84418
7.06359
8.36571
9.76181
11.2533
12.8157
14.3676
15.7234
16.6002
17.102
0.52858
1.59239
2.67647
3.79551
4.96602
6.20732
7.54261
9.00007
10.6132
12.4178
14.4382
16.6384
18.768
19.9239
17.5928
31807.9
31777.8
31747.5
31716.7
31685.7
31654.4
31622.8
31590.9
31558.8
31526.5
31494
31461.3
31428.5
31395.5
31362.4
31329.2
31295.9
31262.6
31229.2
31195.8
31162.4
31129
31095.6
31062.1
31028.7
30995.2
30961.7
30928.2
30894.7
30861.2
30827.7
30794.3
30760.8
30727.4
30694
30660.7
30627.4
30594.1
30560.8
30527.6
30494.3
30461.1
30427.9
30394.7
30361.5
30328.3
30295.2
30262.1
30229
30196
30163
30130.1
30097.2
30064.3
30031.5
29998.6
29965.8
29933
29900.3
29867.5
29834.8
29802.1
29769.5
29736.9
29704.4
29671.9
29639.5
29607.1
29574.8
29542.5
29510.2
29478
29445.7
29413.6
29381.4
29349.3
29317.3
29285.3
29253.3
29221.4
29189.5
29157.6
29125.7
29093.8
29061.8
29029.8
28997.7
28965.5
28933.2
28900.8
0.804083
0.766105
0.723951
0.679734
0.635221
0.591602
0.549364
0.508311
0.46773
0.426659
0.384219
0.339912
0.293849
0.246841
0.200339
0.156228
0.116514
0.0829663
0.0567949
0.0384143
0.0273498
0.0222922
0.021293
0.0220622
0.0223229
0.0201636
0.0143329
0.00442748
-0.00906063
-0.0248492
-0.04111
-0.0558104
-0.0670907
-0.0736056
-0.0747677
-0.0708524
-0.0629524
-0.0527925
-0.0424404
-0.0339615
-0.0290742
-0.0288604
-0.0335816
-0.0426314
-0.0546387
-0.0677082
-0.0797558
-0.08888
-0.0936972
-0.0935809
-0.0887645
-0.0802942
-0.0698455
-0.0594363
-0.0510853
-0.04647
-0.0466409
-0.051838
-0.0614442
-0.0740867
-0.087873
-0.100723
-0.110732
-0.116505
-0.117387
-0.113564
-0.106012
-0.0963131
-0.0863661
-0.0780433
-0.0728464
-0.0716169
-0.0743481
-0.0801328
-0.0872609
-0.0934552
-0.0962101
-0.0931768
-0.0825317
-0.063272
-0.0354004
1.56026e-05
0.0409083
0.0843847
0.126993
0.165061
0.195078
0.214093
0.22007
0.212153
1.35003
1.28326
1.20963
1.13311
1.05701
0.983516
0.913406
0.846094
0.779957
0.71288
0.64291
0.568867
0.490787
0.410119
0.329608
0.252891
0.183877
0.126032
0.0817429
0.051851
0.0354773
0.0301318
0.0320922
0.0369797
0.0404392
0.0388172
0.0297298
0.0124296
-0.012096
-0.0413224
-0.0716596
-0.0991217
-0.120067
-0.131867
-0.133375
-0.125123
-0.109225
-0.0890159
-0.0684892
-0.0516357
-0.0417779
-0.0410124
-0.0498489
-0.0671127
-0.0901379
-0.115232
-0.138333
-0.155739
-0.164764
-0.164201
-0.154513
-0.137735
-0.117115
-0.0965589
-0.0799743
-0.0706113
-0.0705113
-0.0801487
-0.0983338
-0.122403
-0.148677
-0.173108
-0.192
-0.202653
-0.203821
-0.19589
-0.180783
-0.161593
-0.142032
-0.125767
-0.11576
-0.113712
-0.119694
-0.13204
-0.147525
-0.161816
-0.170124
-0.167949
-0.151782
-0.119657
-0.0714846
-0.0091457
0.0636349
0.14161
0.21849
0.287541
0.342285
0.377234
0.388574
0.374701
1.91173
1.81035
1.69953
1.58594
1.47512
1.37063
1.2735
1.18227
1.09362
1.00335
0.90756
0.803728
0.691549
0.57327
0.453515
0.338568
0.23526
0.14969
0.086071
0.0459372
0.0278425
0.027572
0.0388003
0.0540799
0.066002
0.0683525
0.0570873
0.0309729
-0.00822358
-0.0560549
-0.106206
-0.151672
-0.186067
-0.204801
-0.205886
-0.190251
-0.161553
-0.125541
-0.089092
-0.059078
-0.0412295
-0.0391771
-0.0538196
-0.0831353
-0.122495
-0.165462
-0.204947
-0.234502
-0.249473
-0.247796
-0.230306
-0.200544
-0.164128
-0.1278
-0.0983015
-0.0812522
-0.0801988
-0.0959905
-0.126591
-0.167387
-0.211978
-0.253315
-0.284977
-0.30231
-0.303206
-0.288401
-0.261286
-0.227265
-0.192811
-0.164338
-0.147075
-0.144108
-0.155744
-0.179299
-0.209384
-0.238668
-0.259011
-0.262751
-0.243897
-0.199039
-0.12786
-0.033238
0.0789823
0.200512
0.321353
0.430712
0.518085
0.574451
0.593464
0.572412
2.49663
2.35103
2.19345
2.03476
1.88411
1.74716
1.62508
1.51473
1.40962
1.30179
1.18379
1.05061
0.901097
0.73855
0.570501
0.407487
0.261103
0.141739
0.0565814
0.0082875
-0.00545835
0.00845433
0.0396747
0.0760151
0.105348
0.117494
0.105827
0.0683534
0.00808196
-0.0674479
-0.147502
-0.220166
-0.27462
-0.303153
-0.302477
-0.274194
-0.224418
-0.162699
-0.100433
-0.0490068
-0.0179398
-0.0133062
-0.0366666
-0.0847001
-0.149665
-0.220713
-0.285868
-0.334273
-0.358163
-0.354172
-0.32378
-0.272944
-0.211023
-0.149214
-0.0987113
-0.0688683
-0.0656386
-0.0905169
-0.140175
-0.206917
-0.279974
-0.347462
-0.398597
-0.425646
-0.425207
-0.39865
-0.351741
-0.293568
-0.234987
-0.186776
-0.15781
-0.153484
-0.174637
-0.21716
-0.272399
-0.328399
-0.371813
-0.39009
-0.373458
-0.316329
-0.217993
-0.0826739
0.0809219
0.260406
0.440748
0.605543
0.738533
0.825456
0.856047
0.825801
3.1141
2.90896
2.68895
2.47202
2.27339
2.10224
1.95979
1.83962
1.72954
1.61486
1.48187
1.32104
1.12941
0.911749
0.680232
0.452456
0.248031
0.0845264
-0.0259991
-0.0791186
-0.0785952
-0.0355945
0.0331678
0.108033
0.169433
0.200918
0.191719
0.138552
0.0463484
-0.0723376
-0.199454
-0.314893
-0.400516
-0.44358
-0.438837
-0.389101
-0.304498
-0.20066
-0.0961819
-0.00963602
0.0433959
0.0528575
0.0159966
-0.0619023
-0.168096
-0.284471
-0.390932
-0.469365
-0.507023
-0.498585
-0.446718
-0.361328
-0.25778
-0.154372
-0.0693947
-0.0181853
-0.0106265
-0.0493841
-0.129183
-0.237377
-0.356014
-0.465181
-0.546925
-0.588587
-0.584839
-0.538231
-0.458435
-0.360483
-0.262248
-0.181523
-0.133084
-0.126186
-0.162777
-0.236728
-0.334334
-0.436269
-0.520824
-0.56771
-0.561348
-0.492966
-0.361391
-0.172838
0.0599743
0.319053
0.582524
0.826163
1.02531
1.15757
1.20623
1.1636
3.77733
3.48834
3.18004
2.88291
2.62313
2.41597
2.26244
2.14995
2.05609
1.95431
1.82003
1.6358
1.3952
1.1049
0.784574
0.463794
0.176026
-0.0489845
-0.191253
-0.24378
-0.21291
-0.116751
0.0178624
0.159427
0.276585
0.342914
0.340913
0.264949
0.122735
-0.065103
-0.268236
-0.452573
-0.587715
-0.652869
-0.640006
-0.554237
-0.412295
-0.239566
-0.0661296
0.0779726
0.16745
0.185702
0.127731
0.00161609
-0.171892
-0.362532
-0.536379
-0.663203
-0.72229
-0.705566
-0.617957
-0.475891
-0.304364
-0.133021
0.00851818
0.0953243
0.111051
0.0508179
-0.0773304
-0.25283
-0.445718
-0.622417
-0.752999
-0.816946
-0.806221
-0.725627
-0.591305
-0.42783
-0.264322
-0.129803
-0.0485657
-0.0362896
-0.0971397
-0.222256
-0.390055
-0.569186
-0.724093
-0.822023
-0.838563
-0.760612
-0.586849
-0.326749
0.00119184
0.371366
0.752848
1.11084
1.40839
1.61006
1.68785
1.62793
4.50735
4.09557
3.65511
3.24005
2.89714
2.65251
2.50598
2.43344
2.39402
2.34055
2.2301
2.03173
1.73255
1.34128
0.889562
0.427589
0.0136405
-0.301653
-0.485747
-0.528547
-0.441251
-0.253295
-0.00746666
0.245953
0.456918
0.583289
0.596597
0.486732
0.264805
-0.0358623
-0.364104
-0.661114
-0.875719
-0.974525
-0.946181
-0.80029
-0.56445
-0.279517
0.00613795
0.244214
0.394043
0.428281
0.337562
0.133352
-0.15105
-0.464803
-0.749574
-0.954613
-1.04676
-1.01465
-0.867651
-0.632913
-0.350718
-0.0687887
0.16521
0.311152
0.342073
0.248782
0.0426724
-0.243281
-0.558771
-0.846098
-1.05506
-1.15287
-1.12825
-0.990425
-0.766187
-0.49526
-0.224684
-0.00138892
0.135226
0.15888
0.0610125
-0.146346
-0.429483
-0.737007
-1.00943
-1.19355
-1.25186
-1.16624
-0.936646
-0.578362
-0.11842
0.407379
0.956986
1.48254
1.92953
2.24092
2.36777
2.2833
5.34192
4.74411
4.09365
3.49337
3.0297
2.74785
2.643
2.66928
2.75218
2.80885
2.76675
2.57282
2.20252
1.66471
1.00931
0.322218
-0.290818
-0.743262
-0.98372
-1.00066
-0.814561
-0.473189
-0.0437445
0.3936
0.759046
0.98646
1.02963
0.869865
0.520239
0.0330651
-0.504969
-0.988342
-1.3305
-1.4793
-1.42165
-1.1759
-0.787329
-0.320539
0.146889
0.537498
0.787056
0.850765
0.710787
0.380531
-0.0879794
-0.608844
-1.07762
-1.40863
-1.5502
-1.48923
-1.24372
-0.858315
-0.396734
0.0644211
0.448662
0.692566
0.751919
0.609159
0.277608
-0.19124
-0.712421
-1.18266
-1.51725
-1.66511
-1.61333
-1.3797
-1.00834
-0.562222
-0.117002
0.251807
0.481646
0.529002
0.3768
0.0386506
-0.433819
-0.955401
-1.42194
-1.74628
-1.87244
-1.77921
-1.47177
-0.976379
-0.332882
0.409094
1.19575
1.96734
2.6459
3.13751
3.35194
3.23308
6.35569
5.46843
4.45992
3.54999
2.90054
2.58841
2.59129
2.82364
3.14812
3.41936
3.52206
3.36786
2.9137
2.15745
1.17467
0.1102
-0.826543
-1.49015
-1.80357
-1.76519
-1.41147
-0.819927
-0.0914168
0.644764
1.25992
1.65492
1.75489
1.52637
0.973722
0.175207
-0.724571
-1.51895
-2.06374
-2.2814
-2.16804
-1.75718
-1.12288
-0.362514
0.398226
1.03386
1.44765
1.56652
1.35798
0.826757
0.0504421
-0.827934
-1.6041
-2.13548
-2.34532
-2.2296
-1.8213
-1.19345
-0.442185
0.308338
0.934149
1.33968
1.45276
1.24135
0.710203
-0.0638889
-0.939478
-1.7146
-2.24835
-2.46489
-2.36033
-1.96735
-1.35819
-0.627936
0.100669
0.705074
1.0908
1.18645
0.960309
0.417033
-0.367468
-1.25308
-2.03925
-2.5844
-2.80894
-2.70068
-2.27755
-1.58769
-0.689169
0.346454
1.45617
2.5861
3.63146
4.43318
4.81605
4.65265
7.70883
6.36696
4.68388
3.23128
2.28557
1.97546
2.20921
2.84539
3.62079
4.27256
4.64732
4.59483
4.05992
2.97638
1.45767
-0.285754
-1.7556
-2.74131
-3.13003
-2.98381
-2.35089
-1.36391
-0.15015
1.07018
2.07782
2.7482
2.95317
2.6496
1.78123
0.46315
-1.09597
-2.40898
-3.26808
-3.56021
-3.34284
-2.66026
-1.64001
-0.405055
0.82968
1.84964
2.53292
2.75371
2.46979
1.62588
0.335795
-1.19425
-2.4831
-3.3254
-3.60929
-3.39133
-2.71507
-1.70636
-0.48661
0.731794
1.73678
2.40789
2.62082
2.3339
1.4926
0.209571
-1.31125
-2.59418
-3.43628
-3.7271
-3.52271
-2.86632
-1.88247
-0.691317
0.497142
1.4732
2.1176
2.30723
2.00046
1.14274
-0.155547
-1.69399
-3.00367
-3.8842
-4.2247
-4.07556
-3.46745
-2.49947
-1.2429
0.177108
1.68747
3.32661
4.96784
6.33196
7.06676
6.86322
9.76697
7.75584
4.57489
2.18174
0.754907
0.579227
1.24767
2.6667
4.27149
5.5247
6.38785
6.51649
5.99616
4.42198
2.06426
-1.07566
-3.38182
-4.85214
-5.22681
-4.90328
-3.80015
-2.23446
-0.218357
1.80187
3.38138
4.51166
4.88373
4.58615
3.23633
1.09818
-1.82179
-3.95266
-5.2889
-5.57271
-5.18756
-4.04962
-2.46632
-0.447303
1.57039
3.15024
4.28413
4.66768
4.38795
3.06749
0.96666
-1.90791
-4.00516
-5.31948
-5.59594
-5.21306
-4.08761
-2.5232
-0.529132
1.46253
3.02017
4.13586
4.5086
4.22472
2.91104
0.825419
-2.02562
-4.10857
-5.41809
-5.70243
-5.336
-4.23685
-2.70532
-0.750847
1.19944
2.71887
3.79925
4.14281
3.83392
2.50286
0.402173
-2.46435
-4.58604
-5.96168
-6.34551
-6.11138
-5.17556
-3.8268
-2.03199
-0.122338
1.73332
4.06413
6.70327
9.137
10.6687
10.5206
13.3783
10.8285
3.3303
-0.260977
-2.57835
-2.03284
-0.794788
2.2205
5.42848
7.33851
9.18605
9.3727
9.44994
6.99586
3.79725
-3.06622
-6.21166
-8.54076
-8.32902
-7.94543
-5.91554
-3.75363
-0.292529
3.16817
5.33182
7.36694
7.77855
8.0379
5.82661
2.859
-3.68394
-6.64064
-8.82524
-8.54857
-8.11636
-6.08032
-3.92013
-0.487681
2.94153
5.09297
7.11578
7.53673
7.80474
5.63276
2.71167
-3.74099
-6.65468
-8.80814
-8.53212
-8.10416
-6.0923
-3.95883
-0.56825
2.81819
4.93991
6.93359
7.34187
7.59838
5.44099
2.5434
-3.84609
-6.73677
-8.87623
-8.61491
-8.20445
-6.23009
-4.13726
-0.804408
2.52209
4.59672
6.54186
6.91783
7.13923
4.97117
2.06264
-4.30728
-7.24276
-9.46738
-9.35619
-9.15764
-7.47829
-5.79647
-2.98646
-0.344027
1.09498
4.35774
8.73457
13.2411
16.6896
17.1896
20.2116
21.0316
-3.53543
-4.5382
-10.0349
-5.64232
-5.39647
1.4968
8.45452
9.2423
14.3759
12.3864
16.5489
10.6419
10.8076
-10.4107
-10.2171
-15.8882
-11.6787
-13.3583
-8.22107
-7.14367
-0.366148
6.40222
7.46735
12.56
10.8927
15.0473
9.506
9.76827
-10.7103
-10.4405
-15.9058
-11.7485
-13.3547
-8.28987
-7.20602
-0.523445
6.15263
7.22091
12.2541
10.626
14.7351
9.27671
9.54209
-10.6702
-10.399
-15.7953
-11.6871
-13.2761
-8.27216
-7.20477
-0.601456
5.99496
7.04395
12.0143
10.3936
14.448
9.03678
9.28967
-10.7049
-10.4468
-15.7915
-11.7422
-13.325
-8.39398
-7.35488
-0.848886
5.64739
6.66095
11.544
9.91536
13.8853
8.5057
8.70746
-11.0959
-10.9231
-16.3367
-12.4927
-14.3362
-9.78462
-9.39071
-3.69963
1.16725
-2.16947
3.0473
10.5793
18.869
26.9565
31.4806
29.9319
67.7827
-44.3277
-2.33811
-31.7309
-3.27975
-19.5689
0.681885
20.3669
4.88972
29.8249
6.54316
38.1495
5.54512
48.613
-48.5863
-5.77492
-37.4613
-6.54588
-28.5846
-4.67797
-18.7392
-0.423929
17.8516
3.80594
27.4905
5.62583
36.0219
4.83119
46.5473
-47.611
-5.97856
-36.8398
-6.64544
-28.1959
-4.76333
-18.5505
-0.546297
17.4425
3.64301
26.9882
5.45736
35.4462
4.68222
45.8641
-47.0918
-5.97817
-36.465
-6.63436
-27.938
-4.7794
-18.4185
-0.620764
17.164
3.50524
26.5898
5.27742
34.9319
4.48021
45.1962
-46.7238
-6.08491
-36.2306
-6.75555
-27.8216
-4.94988
-18.4413
-0.875801
16.6714
3.15659
25.9265
4.8543
34.0981
4.00628
44.1628
-46.6471
-6.55644
-36.5342
-7.4364
-28.7214
-6.10138
-20.6104
-3.22354
14.4942
-17.7495
-1.59566
11.3344
24.7893
42.3559
70.617
28865.1
28826
28786.8
28747.5
28708.2
28668.9
28629.6
28590.5
28551.4
28512.5
28473.7
28435
28396.3
28357.8
28319.3
0.188663
0.14637
0.092371
0.0327524
-0.0262867
-0.0792818
-0.12205
-0.15191
-0.167646
-0.169299
-0.157888
-0.135139
-0.103239
-0.0646545
-0.0220067
0.332634
0.256688
0.159983
0.0537794
-0.0506519
-0.143597
-0.217836
-0.268944
-0.295116
-0.296725
-0.275782
-0.235425
-0.179502
-0.112268
-0.0381863
0.506722
0.387824
0.237149
0.0730848
-0.0864567
-0.226577
-0.336717
-0.41088
-0.44712
-0.446681
-0.413072
-0.351263
-0.267067
-0.166724
-0.0566567
0.728047
0.550737
0.327707
0.0878682
-0.141681
-0.339537
-0.491574
-0.590736
-0.635801
-0.629805
-0.578561
-0.489487
-0.370778
-0.230906
-0.0783726
1.02004
0.759365
0.435068
0.0923591
-0.228602
-0.498316
-0.699307
-0.824691
-0.875544
-0.858175
-0.781881
-0.657347
-0.495651
-0.30775
-0.1043
1.41608
1.03161
0.560837
0.0750982
-0.366772
-0.725819
-0.982647
-1.13318
-1.18351
-1.14547
-1.03344
-0.862367
-0.646729
-0.400142
-0.135377
1.96547
1.39016
0.701561
0.0139648
-0.587769
-1.05554
-1.37228
-1.54187
-1.57985
-1.50676
-1.34404
-1.11195
-0.828756
-0.51071
-0.172444
2.74343
1.86198
0.841271
-0.133038
-0.942728
-1.53631
-1.90908
-2.08216
-2.08725
-1.95767
-1.72402
-1.41264
-1.04563
-0.641497
-0.216133
3.86865
2.47304
0.934559
-0.444671
-1.51381
-2.23788
-2.64556
-2.79043
-2.72932
-2.51265
-2.18171
-1.76897
-1.29963
-0.793511
-0.266723
5.53417
3.22695
0.868569
-1.06642
-2.42997
-3.25584
-3.64484
-3.7047
-3.52693
-3.1819
-2.72121
-2.18188
-1.59042
-0.966189
-0.323972
8.05703
4.03201
0.379175
-2.25963
-3.88381
-4.71068
-4.97325
-4.85661
-4.49179
-3.96681
-3.33935
-2.64691
-1.91397
-1.15685
-0.386948
11.9175
4.46493
-1.12425
-4.46744
-6.13497
-6.72981
-6.68088
-6.25668
-5.61682
-4.8542
-4.02246
-3.15243
-2.26171
-1.3603
-0.453913
17.4791
3.03453
-4.87362
-8.35092
-9.4588
-9.39271
-8.76377
-7.8724
-6.86459
-5.8107
-4.74386
-3.67862
-2.62013
-1.56873
-0.522317
22.2112
-4.93219
-13.0538
-14.6038
-13.9566
-12.6184
-11.1091
-9.60457
-8.15844
-6.78013
-5.46365
-4.19807
-2.97147
-1.77215
-0.588944
0.546809
1.64785
2.77161
3.93488
5.15711
6.46215
7.88056
9.45327
11.2368
13.3107
15.7843
18.7869
22.3471
25.6677
23.0628
0.55773
1.68096
2.82804
4.01671
5.26788
6.60769
8.07079
9.70581
11.5851
13.8236
16.619
20.3501
25.8618
35.4637
57.0885
0.563256
1.69752
2.85558
4.05514
5.3171
6.66763
8.14166
9.78875
11.684
13.9498
16.8039
20.6765
26.5359
36.9129
59.5407
0.563398
1.69756
2.8543
4.05027
5.30482
6.64181
8.09235
9.69938
11.5256
13.6676
16.2816
19.6234
24.0723
29.8508
34.5265
0.558422
1.68194
2.82579
4.00471
5.23529
6.53714
7.93439
9.45783
11.1479
13.0578
15.2544
17.8021
20.6859
23.5505
25.2179
0.548816
1.65218
2.77294
3.92328
5.11628
6.36624
7.68879
9.10058
10.6175
12.2491
13.9835
15.7481
17.3141
18.0825
16.5974
0.535227
1.61036
2.69955
3.81223
4.95773
6.14493
7.38124
8.67033
10.0074
11.3689
12.6917
13.8325
14.4972
14.1804
12.5029
0.518391
1.55878
2.60987
3.67839
4.77023
5.88954
7.03703
8.20679
9.38029
10.5154
11.5265
12.2475
12.362
11.2235
7.1137
0.499054
1.49976
2.50808
3.52836
4.56367
5.61459
6.67738
7.74065
8.77984
9.74815
10.5625
11.0837
11.097
10.3299
8.75063
0.477912
1.43547
2.39798
3.36792
4.34627
5.33141
6.31741
7.29124
8.2286
9.08779
9.802
10.2726
10.3739
10.0003
9.21787
0.455569
1.36773
2.28273
3.20164
4.12416
5.04766
5.96591
6.86719
7.73167
8.52813
9.21071
9.71793
9.98052
9.95457
9.71779
0.432517
1.29803
2.16477
3.03287
3.90137
4.76756
5.62622
6.46873
7.28198
8.04756
8.74123
9.33318
9.78755
10.0553
10.0388
0.409135
1.22747
2.04586
2.86384
3.6802
4.49269
5.29777
6.09059
6.86544
7.61694
8.3424
9.04398
9.72422
10.3534
10.7797
0.385708
1.15688
1.92724
2.69594
3.46173
4.22298
4.97783
5.72495
6.46512
7.20444
7.96019
8.76962
9.69636
10.7925
11.7651
0.362449
1.08686
1.80978
2.53005
3.24643
3.95772
4.66328
5.36416
6.0654
6.78055
7.54071
8.41383
9.55084
11.3175
14.7428
0.339527
1.01789
1.69415
2.36687
3.03467
3.69645
4.35199
5.00314
5.65604
6.3254
7.04282
7.8748
8.96806
10.6907
14.177
0.317089
0.950376
1.58098
2.20713
2.8271
3.43951
4.04376
4.64092
5.23528
5.83689
6.4654
7.15436
7.94819
8.83931
9.32421
0.29527
0.884726
1.47092
2.05167
2.62479
3.18826
3.74046
4.28064
4.80948
5.32973
5.846
6.3611
6.86078
7.26998
7.39914
0.274203
0.821343
1.36466
1.90151
2.42918
2.94483
3.44553
3.92826
4.38967
4.82534
5.22745
5.57858
5.83623
5.89516
5.48099
0.254017
0.760619
1.26288
1.75774
2.24193
2.71179
3.1631
3.5907
3.98774
4.34427
4.64431
4.86099
4.94971
4.84891
4.5471
0.234828
0.702915
1.16623
1.62139
2.06464
2.49164
2.89714
3.27436
3.61398
3.90243
4.1191
4.23226
4.19482
3.94226
3.37839
0.216728
0.648524
1.07526
1.49332
1.89863
2.28643
2.65084
2.98414
3.27575
3.51046
3.66577
3.70815
3.58933
3.25181
2.71372
0.199783
0.597647
0.990326
1.3741
1.74478
2.09749
2.42614
2.72289
2.97706
3.17364
3.29087
3.29601
3.13571
2.70067
1.64781
0.184022
0.550374
0.911581
1.26397
1.60344
1.92525
2.22362
2.49121
2.71836
2.89195
2.99381
2.99878
2.8729
2.57859
2.13939
0.169435
0.506676
0.838966
1.16281
1.47436
1.7693
2.04247
2.28763
2.49689
2.66007
2.76406
2.79242
2.72708
2.55714
2.30375
0.155982
0.466417
0.772224
1.07018
1.35685
1.62846
1.88079
2.109
2.30741
2.46932
2.58685
2.65115
2.65391
2.59366
2.49821
0.143592
0.429376
0.710937
0.985397
1.24979
1.50102
1.73588
1.95107
2.14329
2.30939
2.44662
2.55263
2.62453
2.65463
2.61578
0.132175
0.395268
0.654585
0.907615
1.15187
1.38495
1.60463
1.80911
1.99732
2.16953
2.32809
2.47781
2.62418
2.7635
2.85906
0.121633
0.363784
0.602603
0.835929
1.06173
1.27819
1.48396
1.67845
1.86246
2.03917
2.2157
2.40534
2.62875
2.90276
3.14743
0.111867
0.334617
0.554437
0.769477
0.978068
1.17887
1.37113
1.55509
1.7327
1.90894
2.09423
2.30944
2.59821
3.06244
3.98491
0.102786
0.307485
0.509596
0.70751
0.899823
1.08549
1.26407
1.43613
1.6039
1.77246
1.95198
2.16247
2.44584
2.90391
3.84483
0.0943123
0.282153
0.467672
0.649436
0.826199
0.997041
1.16156
1.32017
1.47455
1.62837
1.78825
1.9649
2.17217
2.4101
2.54541
0.0863837
0.258435
0.428361
0.594838
0.756692
0.912989
1.06316
1.20715
1.34562
1.4801
1.6129
1.74608
1.87722
1.9876
2.0277
0.0789535
0.236193
0.391448
0.543457
0.691051
0.8332
0.969056
1.09797
1.21946
1.33299
1.4373
1.52869
1.59672
1.61391
1.50654
0.0719874
0.215332
0.356794
0.495146
0.629196
0.757789
0.879782
0.993961
1.09885
1.1923
1.2707
1.32754
1.35154
1.32674
1.2508
0.0654598
0.19578
0.324302
0.449826
0.571136
0.686969
0.795944
0.896412
0.986189
1.06208
1.11907
1.1492
1.14027
1.07511
0.927123
0.059349
0.177479
0.293896
0.407437
0.516885
0.62092
0.718021
0.806295
0.883185
0.944989
0.986113
0.99801
0.968065
0.881007
0.742002
0.0536336
0.160368
0.265491
0.367895
0.466398
0.559691
0.646236
0.724094
0.790667
0.84227
0.873464
0.875886
0.835533
0.722992
0.444562
0.0482893
0.144377
0.238978
0.331065
0.419534
0.503157
0.58049
0.649738
0.708555
0.753736
0.780808
0.783477
0.753143
0.680187
0.57122
0.0432869
0.129419
0.214215
0.296751
0.376041
0.450997
0.520365
0.582636
0.635921
0.677789
0.705108
0.713999
0.700363
0.662401
0.607929
0.038592
0.11539
0.191025
0.264695
0.335563
0.402724
0.465177
0.521784
0.571224
0.611955
0.642218
0.660177
0.664487
0.656094
0.643517
0.0341655
0.102172
0.169201
0.23459
0.297665
0.357726
0.414055
0.465917
0.512584
0.553402
0.587883
0.615846
0.637445
0.652704
0.659364
0.0299652
0.0896336
0.148517
0.206097
0.261863
0.315326
0.366044
0.413664
0.458017
0.499259
0.538087
0.575947
0.614819
0.655301
0.69084
0.0259472
0.0776421
0.128742
0.178867
0.227665
0.274839
0.320189
0.363689
0.40562
0.446802
0.488976
0.535358
0.591089
0.661346
0.733694
0.0220685
0.0660651
0.109647
0.152562
0.1946
0.235625
0.275627
0.314812
0.353752
0.393667
0.436953
0.488289
0.557288
0.665955
0.873006
0.0182877
0.0547775
0.0910176
0.12687
0.162243
0.197127
0.23164
0.266112
0.301215
0.338202
0.379353
0.428969
0.495955
0.602262
0.816759
0.014567
0.0436646
0.0726601
0.101513
0.13023
0.158891
0.187687
0.216981
0.24738
0.279855
0.315887
0.357598
0.407333
0.463457
0.492004
0.0108723
0.0326239
0.0544037
0.0762552
0.0982615
0.120566
0.143396
0.167089
0.192111
0.219046
0.24849
0.280666
0.314291
0.343822
0.357373
0.00717313
0.0215651
0.0360999
0.0508927
0.0660897
0.0818811
0.0985117
0.116282
0.135523
0.156506
0.179206
0.202741
0.224105
0.235298
0.215461
0.00344271
0.0104084
0.0176189
0.0252525
0.0335091
0.0426184
0.0528416
0.06446
0.0777319
0.0927808
0.109352
0.126335
0.140993
0.148336
0.144759
-0.000342962
-0.000917168
-0.00115361
-0.000817469
0.000340217
0.00258683
0.00620804
0.0114963
0.0187144
0.0280071
0.0392195
0.0515548
0.0629705
0.0689695
0.0583597
-0.00420577
-0.0124761
-0.0203218
-0.0274552
-0.0335813
-0.038395
-0.041578
-0.0428015
-0.0417371
-0.0380922
-0.0316844
-0.0225786
-0.0112811
0.00114553
0.0138043
-0.00816619
-0.0243288
-0.0399828
-0.0547897
-0.068411
-0.080505
-0.0907201
-0.0986824
-0.103974
-0.106103
-0.104454
-0.0982263
-0.086309
-0.0668321
-0.0346322
-0.0122441
-0.0365337
-0.0602302
-0.082945
-0.104298
-0.123916
-0.141422
-0.156413
-0.168403
-0.176731
-0.180397
-0.177818
-0.166579
-0.143638
-0.108805
-0.0164595
-0.0491496
-0.0811577
-0.112044
-0.141387
-0.16879
-0.193867
-0.216221
-0.235368
-0.250592
-0.260671
-0.263416
-0.25497
-0.228698
-0.171025
-0.0208335
-0.0622381
-0.102863
-0.142212
-0.179821
-0.215274
-0.248199
-0.278252
-0.305052
-0.328019
-0.346032
-0.356778
-0.355735
-0.335557
-0.29185
-0.0253893
-0.0758672
-0.125453
-0.173585
-0.21975
-0.263512
-0.304522
-0.342539
-0.377394
-0.408882
-0.436435
-0.458321
-0.469781
-0.45875
-0.394274
-0.0301535
-0.0901149
-0.149052
-0.206321
-0.261347
-0.313656
-0.362921
-0.409016
-0.452069
-0.492471
-0.530767
-0.567099
-0.599438
-0.619052
-0.606131
-0.0351574
-0.105073
-0.173807
-0.240614
-0.304829
-0.365911
-0.423517
-0.477604
-0.528579
-0.577519
-0.626458
-0.678644
-0.737925
-0.801939
-0.816321
-0.0404379
-0.120853
-0.199898
-0.276705
-0.350484
-0.420577
-0.486554
-0.548348
-0.606499
-0.662564
-0.71989
-0.785256
-0.873119
-1.01929
-1.33574
-0.0460381
-0.137583
-0.227543
-0.314898
-0.398695
-0.4781
-0.552493
-0.621619
-0.685864
-0.746729
-0.807732
-0.876241
-0.967817
-1.11837
-1.42392
-0.0520071
-0.155412
-0.256995
-0.355561
-0.449955
-0.539103
-0.622086
-0.698277
-0.767571
-0.830795
-0.890358
-0.951201
-1.02155
-1.10982
-1.19579
-0.058399
-0.174507
-0.288542
-0.39912
-0.504856
-0.604384
-0.696395
-0.779721
-0.853492
-0.9174
-0.972091
-1.01955
-1.06283
-1.10286
-1.12858
-0.0652701
-0.19504
-0.322489
-0.44604
-0.564067
-0.674883
-0.776733
-0.867799
-0.946259
-1.0104
-1.05884
-1.09081
-1.10636
-1.10584
-1.08709
-0.072676
-0.217184
-0.359143
-0.496794
-0.628284
-0.751609
-0.864557
-0.964628
-1.04897
-1.11431
-1.15702
-1.17347
-1.16106
-1.12147
-1.06904
-0.080668
-0.241098
-0.398788
-0.551827
-0.698169
-0.83554
-0.961321
-1.07238
-1.16487
-1.23392
-1.27345
-1.27616
-1.23462
-1.14601
-1.02599
-0.0892887
-0.266915
-0.441661
-0.611511
-0.774283
-0.927517
-1.06831
-1.19304
-1.29703
-1.37403
-1.41545
-1.40958
-1.34086
-1.19237
-0.975147
-0.0985699
-0.294732
-0.487934
-0.676108
-0.857019
-1.02814
-1.18644
-1.32809
-1.44796
-1.53883
-1.59028
-1.58664
-1.50251
-1.28645
-0.778386
-0.10853
-0.324604
-0.537698
-0.745749
-0.946556
-1.13766
-1.31613
-1.47827
-1.61901
-1.73102
-1.80338
-1.81959
-1.75578
-1.58332
-1.30989
-0.119175
-0.356545
-0.590963
-0.820421
-1.04283
-1.25594
-1.45717
-1.64332
-1.81001
-1.95076
-2.05545
-2.10813
-2.08449
-1.9503
-1.65226
-0.130502
-0.390537
-0.647672
-0.899987
-1.14557
-1.38248
-1.60869
-1.82188
-2.01902
-2.19552
-2.34365
-2.44966
-2.48998
-2.43106
-2.26392
-0.1425
-0.426542
-0.707729
-0.984228
-1.25432
-1.51644
-1.76925
-2.01159
-2.24235
-2.46
-2.6611
-2.8368
-2.96438
-2.98699
-2.75741
-0.155164
-0.464529
-0.77104
-1.07292
-1.3686
-1.65688
-1.93708
-2.20932
-2.4748
-2.73597
-2.99618
-3.25738
-3.51167
-3.71804
-3.77476
-0.168496
-0.504497
-0.837568
-1.16591
-1.48803
-1.80293
-2.11043
-2.41176
-2.71025
-3.01261
-3.33058
-3.68274
-4.09225
-4.55302
-4.79556
-0.182517
-0.5465
-0.907375
-1.26323
-1.61248
-1.9541
-2.28808
-2.61616
-2.94301
-3.27841
-3.64123
-4.06829
-4.63722
-5.53957
-7.36661
-0.197268
-0.590662
-0.980665
-1.36514
-1.74223
-2.11057
-2.46983
-2.8214
-3.16985
-3.52517
-3.90728
-4.35533
-4.95065
-5.88398
-7.68559
-0.21281
-0.637177
-1.05779
-1.47219
-1.87804
-2.27336
-2.6569
-3.02883
-3.3919
-3.75332
-4.12754
-4.54009
-5.02937
-5.62543
-6.17785
-0.229224
-0.6863
-1.13923
-1.58516
-2.02117
-2.44434
-2.85204
-3.2424
-3.61511
-3.97258
-4.32119
-4.67158
-5.03392
-5.3972
-5.6782
-0.246589
-0.738301
-1.22553
-1.70503
-2.17321
-2.62605
-3.05921
-3.46822
-3.8489
-4.19798
-4.5136
-4.79476
-5.03783
-5.2261
-5.30416
-0.264973
-0.793414
-1.3172
-1.83277
-2.33589
-2.82143
-3.28317
-3.71371
-4.10463
-4.44663
-4.72995
-4.94438
-5.07981
-5.13155
-5.13055
-0.284403
-0.851758
-1.41457
-1.96914
-2.51079
-3.03334
-3.52877
-3.98673
-4.39431
-4.73604
-4.99412
-5.14887
-5.1799
-5.07361
-4.86135
-0.304839
-0.913259
-1.51765
-2.1145
-2.69893
-3.26409
-3.80039
-4.29472
-4.72973
-5.08355
-5.33004
-5.43928
-5.37536
-5.08926
-4.58189
-0.326149
-0.977552
-1.62598
-2.26847
-2.90046
-3.51488
-4.10117
-4.64389
-5.12151
-5.50558
-5.76128
-5.84992
-5.7251
-5.25859
-3.69912
-0.34808
-1.04391
-1.73844
-2.42975
-3.11416
-3.78521
-4.43219
-5.03826
-5.57827
-6.01674
-6.30854
-6.40879
-6.31214
-6.18691
-6.87107
-0.370241
-1.11116
-1.85312
-2.5958
-3.33715
-4.07226
-4.7916
-5.47851
-6.10553
-6.62976
-6.9888
-7.10439
-6.91903
-6.55316
-6.90577
-0.392095
-1.1777
-1.9673
-2.76277
-3.56447
-4.37025
-5.17353
-5.96033
-6.70416
-7.35748
-7.83811
-8.00898
-7.65129
-6.42049
-3.62116
-0.412969
-1.24145
-2.07742
-2.92539
-3.78897
-4.66996
-5.56689
-6.472
-7.36564
-8.20512
-8.9025
-9.28062
-8.98988
-7.3771
-3.42196
-0.432077
-1.29999
-2.17919
-3.07719
-4.00135
-4.95861
-5.95455
-6.99161
-8.06472
-9.15142
-10.1886
-11.0167
-11.2465
-9.96035
-5.22886
-0.448574
-1.3507
-2.26791
-3.2108
-4.19076
-5.22037
-6.31365
-7.48619
-8.75435
-10.1321
-11.6198
-13.1684
-14.5559
-14.9361
-11.0123
-0.461613
-1.39093
-2.3388
-3.31866
-4.34569
-5.43791
-6.61771
-7.91434
-9.36789
-11.0364
-13.0088
-15.4317
-18.5649
-22.9008
-29.3657
-12.1014
-27.5338
-26.0147
-22.2186
-18.6949
-15.7416
-13.2684
-11.1515
-9.29246
-7.62
-6.0827
-4.64278
-3.2714
-1.94554
-0.645688
-118.503
-61.7961
-39.8893
-29.0711
-22.6229
-18.2391
-14.9714
-12.3672
-10.1846
-8.28253
-6.57251
-4.99559
-3.50986
-2.08358
-0.690899
-131.723
-71.8914
-46.0635
-32.8888
-25.1171
-19.9614
-16.2136
-13.2902
-10.882
-8.81164
-6.96988
-5.28506
-3.70704
-2.19827
-0.728552
-72.2904
-58.3732
-43.4506
-32.9545
-25.7947
-20.706
-16.8832
-13.8553
-11.3448
-9.18199
-7.25825
-5.50037
-3.8561
-2.28586
-0.75744
-50.9935
-45.5531
-37.7636
-30.7031
-25.034
-20.5716
-17.0008
-14.0612
-11.5661
-9.38628
-7.43144
-5.63676
-3.95376
-2.34439
-0.776927
-32.3665
-34.3642
-31.5703
-27.4856
-23.4351
-19.8178
-16.6802
-13.9583
-11.5684
-9.43431
-7.49341
-5.69558
-4.00028
-2.37382
-0.786961
-23.8739
-26.5028
-26.2734
-24.2443
-21.5353
-18.7311
-16.0707
-13.6249
-11.3931
-9.34814
-7.456
-5.68319
-3.999
-2.37573
-0.788013
-13.2823
-20.6262
-22.2263
-21.4751
-19.7017
-17.5443
-15.3121
-13.143
-11.088
-9.15582
-7.33571
-5.60924
-3.95542
-2.35294
-0.780946
-16.0382
-18.7385
-19.8119
-19.4158
-18.1348
-16.4096
-14.5095
-12.5818
-10.6977
-8.88564