/*--------------------------------*- C++ -*----------------------------------*\
| =========                 |                                                 |
| \\      /  F ield         | OpenFOAM: The Open Source CFD Toolbox           |
|  \\    /   O peration     | Version:  5.x                                   |
|   \\  /    A nd           | Web:      www.OpenFOAM.org                      |
|    \\/     M anipulation  |                                                 |
\*---------------------------------------------------------------------------*/
FoamFile
{
    version     2.0;
    format      ascii;
    class       volScalarField;
    location    "3.9";
    object      gradTx;
}
// * * * * * * * * * * * * * * * * * * * * * * * * * * * * * * * * * * * * * //

dimensions      [0 -1 0 1 0 0 0];

internalField   nonuniform List<scalar> 
3200
(
45.2151
3.71166
1.64845
1.5399
0.814636
0.771045
0.466379
0.446922
0.293492
0.28239
0.170588
0.166447
0.180401
0.180549
0.172859
0.172019
0.159261
0.158147
0.144056
0.142876
0.128628
0.127461
0.113696
0.112604
0.100103
0.0992192
0.0900847
0.0900823
0.0950627
0.16478
0.0825414
0.0553388
0.0535132
0.0417903
0.0409648
0.0333822
0.0328242
0.0271134
0.026684
0.022124
0.021777
0.0180304
0.017742
0.0145823
0.0143341
0.0115515
0.0113231
0.00864343
0.008403
0.00525578
0.00512427
0.00513076
0.00508342
0.00401826
0.0039051
0.00225216
0.00208645
-0.000224047
-0.000461867
-0.00382543
-0.00418835
-0.00946232
-0.010068
-0.0191474
-0.0202955
-0.0381503
-0.0408208
-0.0839722
-0.0928849
-0.238535
-0.616747
-0.435818
-0.680978
-0.712316
-1.26715
-1.24155
-0.0557485
-0.00752307
-0.00152416
-52.953
47.8992
3.10503
1.57705
1.35425
0.773781
0.680719
0.436009
0.394406
0.271487
0.247903
0.160105
0.151263
0.160725
0.160929
0.154952
0.15318
0.143117
0.140758
0.129607
0.127106
0.115823
0.11335
0.102452
0.10014
0.0902656
0.0884091
0.0813696
0.0815285
0.0883544
0.13739
0.0766384
0.0516874
0.0476219
0.0381098
0.0363395
0.0302945
0.0291078
0.0245722
0.0236605
0.0200424
0.0193061
0.016334
0.015722
0.0132154
0.0126885
0.01048
0.00999505
0.00786657
0.00735911
0.00490298
0.00462357
0.00458361
0.00448015
0.00363939
0.00339956
0.00208876
0.0017369
-9.90696e-05
-0.000604593
-0.00328103
-0.00405335
-0.00825751
-0.00954902
-0.016812
-0.0192707
-0.0336687
-0.0394536
-0.0750016
-0.0949006
-0.226892
-0.517256
-0.414469
-0.601489
-0.66601
-1.08411
-1.03052
-0.121742
-0.0208801
-0.00438274
-54.7484
50.5665
2.57627
1.45344
1.18291
0.71343
0.596459
0.397515
0.345144
0.245509
0.215984
0.146464
0.135348
0.14142
0.141557
0.136876
0.134674
0.126665
0.123721
0.114811
0.111688
0.102665
0.0995761
0.0908644
0.087978
0.0801075
0.0778064
0.0723666
0.072708
0.0799577
0.114391
0.0693033
0.0472007
0.0419485
0.0341196
0.0318852
0.0270125
0.0255254
0.021886
0.0207452
0.0178455
0.0169246
0.0145433
0.0137778
0.0117693
0.0111102
0.00933949
0.00873272
0.00702487
0.00639317
0.00446311
0.00411328
0.00403899
0.00390636
0.00323647
0.00293685
0.00188699
0.0014467
-2.73159e-05
-0.000660489
-0.00281281
-0.00378107
-0.00716921
-0.00879114
-0.0146687
-0.0177683
-0.0295316
-0.0368958
-0.0666569
-0.0924326
-0.208915
-0.433492
-0.381528
-0.526901
-0.60556
-0.919951
-0.853698
-0.15542
-0.0308626
-0.00672558
-56.5437
53.2131
2.11307
1.29574
1.01953
0.638979
0.515479
0.353159
0.297771
0.216727
0.185665
0.130487
0.118745
0.122352
0.122378
0.118702
0.1164
0.11001
0.106922
0.0997845
0.0965054
0.0892708
0.0860272
0.0790439
0.0760155
0.0697268
0.0673293
0.0631324
0.0636111
0.0704737
0.0945738
0.0610488
0.04204
0.036378
0.0299056
0.0275364
0.0235951
0.022029
0.0190998
0.0179003
0.0155694
0.0146014
0.0126879
0.0118834
0.0102692
0.00957636
0.00815246
0.00751443
0.00614013
0.00547917
0.00396003
0.00359197
0.00349671
0.00335406
0.00281874
0.00250416
0.00166084
0.00119785
1.07981e-05
-0.000655625
-0.00239196
-0.00341201
-0.00615157
-0.00786303
-0.0126366
-0.0159194
-0.0255705
-0.0334422
-0.0584717
-0.0863364
-0.186615
-0.360789
-0.340694
-0.454981
-0.535682
-0.771012
-0.702156
-0.166148
-0.0368283
-0.00832372
-58.3387
55.8384
1.70399
1.1164
0.860323
0.554246
0.436051
0.304525
0.251426
0.185946
0.156311
0.112773
0.101528
0.103428
0.103347
0.100472
0.0982895
0.093223
0.0902862
0.0846034
0.0814812
0.0757166
0.0726279
0.0670653
0.0641835
0.0591904
0.0569242
0.0537112
0.054259
0.0603002
0.0770611
0.0522136
0.0363453
0.03084
0.0255275
0.0232505
0.0200827
0.0185871
0.0162445
0.0151007
0.0132389
0.0123161
0.0107882
0.0100213
0.00873226
0.00807176
0.00693399
0.00632559
0.00522686
0.00459949
0.0034109
0.00305975
0.00295632
0.00281747
0.00239218
0.00209261
0.00141946
0.000977962
2.80816e-05
-0.00060797
-0.00199976
-0.00297417
-0.00517505
-0.00681243
-0.0106641
-0.0138157
-0.0216805
-0.0293022
-0.0501731
-0.0773436
-0.161358
-0.295857
-0.294484
-0.384404
-0.459618
-0.634241
-0.569299
-0.160609
-0.0387614
-0.00905428
-60.1334
58.4434
1.33859
0.923794
0.703115
0.461997
0.357156
0.252755
0.205575
0.153731
0.127513
0.0937665
0.0837849
0.0845822
0.0844278
0.0822155
0.0802945
0.076351
0.0737598
0.06932
0.0665628
0.0620555
0.0593276
0.0549795
0.052436
0.048545
0.0465569
0.0441396
0.0446872
0.0496979
0.0612128
0.0430193
0.0302362
0.0252943
0.021028
0.0190003
0.0165033
0.0151791
0.0133411
0.0123297
0.0108707
0.010055
0.00885804
0.00818015
0.00717018
0.00658625
0.00569434
0.00515637
0.00429473
0.00374226
0.00282828
0.00251762
0.00241735
0.00229233
0.00196058
0.001696
0.00116882
0.000778402
3.28074e-05
-0.000530089
-0.00162426
-0.00248728
-0.00422107
-0.00567327
-0.00871962
-0.0115236
-0.0178003
-0.0246323
-0.0416225
-0.0660771
-0.134082
-0.23636
-0.244623
-0.314415
-0.379578
-0.507053
-0.450193
-0.143596
-0.0370089
-0.00889239
-61.9279
61.0309
1.00741
0.723425
0.546724
0.364298
0.278244
0.198695
0.159911
0.120491
0.0990156
0.0738098
0.0656111
0.065775
0.065591
0.0639468
0.0623804
0.0594249
0.0573075
0.0539692
0.0517144
0.0483232
0.0460921
0.0428216
0.0407425
0.0378235
0.0362069
0.0344494
0.0349368
0.0388355
0.0465528
0.0336085
0.0238134
0.0197216
0.0164389
0.0147688
0.0128771
0.0117916
0.0104048
0.00957664
0.00847684
0.00780919
0.0069071
0.00635226
0.00559106
0.00511306
0.00444054
0.00400009
0.00335024
0.0028995
0.00222153
0.00196708
0.00187936
0.00177546
0.0015263
0.00130989
0.000912708
0.000593045
3.02217e-05
-0.000430962
-0.00125801
-0.00196555
-0.00327836
-0.00447035
-0.00678482
-0.00909248
-0.0138978
-0.0195561
-0.0327733
-0.0530685
-0.105435
-0.180623
-0.1923
-0.244612
-0.297045
-0.387238
-0.341076
-0.118583
-0.0321175
-0.00789573
-63.722
63.604
0.701883
0.518765
0.390563
0.262744
0.199072
0.143006
0.114273
0.0865329
0.0706679
0.0531729
0.0471027
0.0469817
0.0468125
0.0456751
0.0445219
0.0424654
0.040904
0.0385752
0.0369115
0.0345446
0.0328983
0.030616
0.0290825
0.02705
0.0258626
0.0246694
0.02505
0.0278204
0.0327193
0.0240718
0.0171624
0.0141164
0.0117853
0.0105461
0.00921854
0.00841624
0.00744602
0.00683444
0.00606568
0.00557272
0.00494228
0.00453262
0.0040006
0.00364766
0.00317746
0.00285219
0.00239778
0.00206583
0.00159784
0.00140987
0.00134203
0.0012644
0.0010907
0.000931005
0.00065349
0.000417412
2.35676e-05
-0.000317203
-0.00089654
-0.00141962
-0.00234048
-0.00322252
-0.00485029
-0.00656148
-0.00996122
-0.0141775
-0.023641
-0.0387771
-0.0758752
-0.127427
-0.138352
-0.174804
-0.213002
-0.272878
-0.239013
-0.0881289
-0.0247365
-0.00618709
-65.516
66.1667
0.414158
0.311908
0.234387
0.158624
0.119595
0.0862223
0.0685945
0.0521001
0.0423854
0.0320789
0.0283564
0.0281904
0.0280728
0.0274041
0.0266996
0.0254861
0.0245312
0.0231546
0.0221368
0.0207372
0.0197299
0.0183805
0.0174426
0.0162426
0.0155184
0.0148265
0.0150676
0.0167201
0.0194276
0.0144656
0.0103569
0.00848271
0.00708807
0.00632698
0.00553901
0.00504755
0.00447293
0.00409853
0.00364348
0.00334174
0.00296862
0.00271787
0.00240299
0.00218694
0.00190858
0.00170946
0.00144042
0.00123759
0.000962948
0.000847849
0.00080508
0.000757186
0.00065455
0.000556835
0.000392613
0.000248088
1.47884e-05
-0.000193903
-0.000537324
-0.00085778
-0.00140416
-0.00194487
-0.00291243
-0.00396294
-0.00599198
-0.00858897
-0.0142817
-0.0236072
-0.0457373
-0.0758561
-0.0833835
-0.104927
-0.128092
-0.162267
-0.14163
-0.0541751
-0.0155616
-0.00393747
-67.3097
68.7229
0.136901
0.104061
0.0781397
0.053034
0.0398925
0.0288094
0.022871
0.0173961
0.0141267
0.0107217
0.00946792
0.00939719
0.00935523
0.00913448
0.00889768
0.00849642
0.00817526
0.00771972
0.00737731
0.00691404
0.00657519
0.00612859
0.00581311
0.00541626
0.00517303
0.00494629
0.00502875
0.00557757
0.00644278
0.00482526
0.00346205
0.00282981
0.00236546
0.00210893
0.00184762
0.00168219
0.00149184
0.00136585
0.00121515
0.00111362
0.000990061
0.000905692
0.000801416
0.000728721
0.000636528
0.000569525
0.00048042
0.000412233
0.000321674
0.000282938
0.000268339
0.000252158
0.000218198
0.000185325
0.000130948
8.23142e-05
5.02364e-06
-6.52151e-05
-0.000179029
-0.000286904
-0.000468066
-0.000650144
-0.000971249
-0.00132526
-0.00200002
-0.00287664
-0.00477721
-0.00792516
-0.0152798
-0.0251888
-0.027854
-0.0349839
-0.0427421
-0.0538485
-0.0469204
-0.0182676
-0.00530726
-0.00135064
-69.1032
68.7187
0.150794
0.128372
0.107435
0.0851934
0.0726825
0.0607219
0.0533169
0.0448561
0.0387341
0.0309755
0.028161
0.0282672
0.0281607
0.0273213
0.0264197
0.0248998
0.0237105
0.0220637
0.0208686
0.0193106
0.0182141
0.0168264
0.0158802
0.0147344
0.0140564
0.0134629
0.0137531
0.015412
0.017973
0.0136215
0.0099849
0.00831442
0.00710865
0.00644508
0.00576906
0.00533763
0.0048354
0.00449856
0.00408926
0.00380934
0.00346284
0.00322233
0.00291951
0.00270399
0.00242407
0.0022138
0.00192401
0.00169191
0.00137499
0.00126355
0.00127934
0.00127993
0.00124643
0.00120769
0.00114013
0.00108632
0.00101062
0.000954474
0.000879302
0.000823014
0.000745569
0.000680424
0.00057753
0.000463172
0.000236006
-0.000109829
-0.000933317
-0.00248389
-0.00629893
-0.0119042
-0.0151841
-0.0221758
-0.0296187
-0.0405723
-0.036162
-0.014132
-0.00411042
-0.00104639
-69.8072
66.1536
0.45575
0.385057
0.322359
0.255191
0.218026
0.181984
0.159993
0.134475
0.116268
0.0927286
0.084366
0.0848102
0.0845114
0.0819664
0.0792837
0.0746861
0.0711499
0.0661731
0.0626202
0.0579133
0.054654
0.0504617
0.0476485
0.0441845
0.0421657
0.0403535
0.0412047
0.0461999
0.0541955
0.0408359
0.0298761
0.0249247
0.0213043
0.0193357
0.0172974
0.0160157
0.0144996
0.0134986
0.0122626
0.0114307
0.0103843
0.0096695
0.00875506
0.00811455
0.00726943
0.00664458
0.00576973
0.00507913
0.00411677
0.00378557
0.00383862
0.00384115
0.00373952
0.00362424
0.00341984
0.00325985
0.00303107
0.00286419
0.00263716
0.0024699
0.00223622
0.00204279
0.00173305
0.00139403
0.000712772
-0.000310373
-0.00277086
-0.0073611
-0.0188252
-0.0358056
-0.0454039
-0.0665094
-0.0887157
-0.122331
-0.109191
-0.0419155
-0.012053
-0.00305055
-69.4215
63.5812
0.77089
0.641421
0.537461
0.423988
0.363324
0.302683
0.26681
0.223801
0.194015
0.153875
0.140219
0.141383
0.140952
0.136617
0.132224
0.12443
0.118647
0.110226
0.104418
0.0964581
0.0911313
0.0840418
0.0794429
0.0735768
0.0702668
0.0671376
0.0684905
0.0768679
0.0912723
0.0679543
0.049527
0.0414818
0.0354338
0.0322292
0.0287955
0.0267032
0.0241432
0.022508
0.0204198
0.0190607
0.0172925
0.0161247
0.0145797
0.0135333
0.012106
0.0110854
0.0096081
0.00847723
0.00683331
0.00629224
0.00639995
0.00640657
0.00623317
0.00604436
0.00569779
0.00543614
0.00504907
0.00477633
0.00439264
0.00411945
0.00372528
0.00340982
0.00288977
0.0023386
0.00120323
-0.000453405
-0.00452319
-0.0119633
-0.0311307
-0.0600022
-0.0751633
-0.110799
-0.147356
-0.20596
-0.184385
-0.0682025
-0.0191611
-0.00479363
-69.0357
60.9967
1.10329
0.896766
0.752943
0.590673
0.508621
0.422392
0.373913
0.312598
0.272176
0.213961
0.195479
0.198019
0.197549
0.19127
0.185301
0.174094
0.166249
0.154173
0.146302
0.134898
0.127679
0.117522
0.111288
0.102867
0.0983608
0.0937424
0.0954955
0.107295
0.129858
0.0948772
0.0687626
0.057959
0.0494497
0.0451319
0.04024
0.0374095
0.0337499
0.0315357
0.0285479
0.0267071
0.0241767
0.022595
0.0203844
0.0189674
0.0169263
0.0155445
0.0134327
0.0118959
0.00950578
0.00877299
0.00896535
0.00897921
0.00872747
0.00847084
0.00797238
0.00761749
0.00706253
0.00669294
0.00614374
0.00577388
0.00521123
0.00478507
0.00404776
0.00330657
0.00171457
-0.000499875
-0.00614067
-0.0160964
-0.043048
-0.0847471
-0.104104
-0.155051
-0.205115
-0.292797
-0.263363
-0.0918038
-0.0248822
-0.00611778
-68.6498
58.3958
1.46041
1.1496
0.969164
0.75415
0.654085
0.540591
0.481529
0.400559
0.351049
0.272459
0.249898
0.254776
0.254378
0.24591
0.238588
0.223623
0.214021
0.197953
0.188327
0.17317
0.164345
0.150846
0.143221
0.132
0.126459
0.120092
0.122099
0.137291
0.170746
0.121446
0.0873859
0.0743446
0.0632981
0.0580577
0.0516022
0.048149
0.0432988
0.0405943
0.0366303
0.0343811
0.0310231
0.0290905
0.0261574
0.0244265
0.0217204
0.0200329
0.0172343
0.0153488
0.012112
0.0112168
0.0115379
0.0115625
0.011222
0.010907
0.0102413
0.00980689
0.00906862
0.00861679
0.00788771
0.00743607
0.00669176
0.00617282
0.00520595
0.00430862
0.00225086
-0.000409242
-0.00758549
-0.0195496
-0.0543753
-0.110386
-0.13178
-0.199339
-0.261368
-0.384317
-0.348026
-0.111219
-0.028677
-0.00689048
-68.2637
55.7745
1.85027
1.39722
1.18677
0.913028
0.800087
0.656613
0.590021
0.487263
0.431085
0.328715
0.30322
0.311745
0.31153
0.300505
0.29218
0.272937
0.262052
0.241476
0.230574
0.211189
0.201197
0.183935
0.175297
0.160907
0.154591
0.146108
0.148174
0.166558
0.214944
0.147405
0.105169
0.0906504
0.0769142
0.0710321
0.0628443
0.0589445
0.052762
0.0497034
0.0446441
0.0420996
0.0378126
0.0356262
0.0318825
0.0299246
0.0264738
0.0245658
0.0209994
0.0188557
0.0146246
0.013612
0.0141224
0.0141605
0.0137156
0.0133573
0.012501
0.0120085
0.0110633
0.0105518
0.00962064
0.00911002
0.00816334
0.00757854
0.00636141
0.00535715
0.0028113
-0.000137898
-0.00883873
-0.0220882
-0.0648551
-0.137409
-0.15761
-0.243847
-0.315185
-0.482207
-0.44071
-0.124464
-0.0300416
-0.00701645
-67.8773
53.13
2.28144
1.63514
1.4069
1.06547
0.94731
0.769559
0.699961
0.572103
0.51297
0.381897
0.355181
0.369062
0.369114
0.354992
0.346209
0.321917
0.31047
0.284611
0.27316
0.248832
0.23834
0.216679
0.207604
0.189491
0.182809
0.171701
0.173598
0.194624
0.263779
0.172351
0.121843
0.106925
0.0902164
0.084099
0.0739151
0.0698315
0.0621004
0.0588927
0.0525574
0.0498879
0.0445181
0.0422243
0.0375362
0.0354826
0.0311655
0.0291651
0.0247077
0.0224463
0.0170085
0.0159463
0.0167259
0.0167779
0.0162058
0.0158276
0.0147462
0.0142283
0.0130407
0.0125036
0.0113368
0.0108015
0.00962052
0.00900962
0.00750844
0.00646741
0.00338796
0.00036359
-0.00990993
-0.0234459
-0.0741433
-0.166525
-0.180798
-0.288952
-0.365174
-0.588437
-0.544383
-0.128836
-0.0285502
-0.0064508
-67.4907
50.4609
2.76307
1.85634
1.63157
1.20899
1.09692
0.87818
0.81223
0.654194
0.597731
0.430904
0.405518
0.426934
0.427266
0.409266
0.400858
0.370384
0.359465
0.32717
0.316262
0.285922
0.275931
0.24892
0.240272
0.217617
0.211205
0.196774
0.198256
0.220765
0.319038
0.195662
0.137094
0.123272
0.103095
0.0973286
0.084742
0.0808644
0.071258
0.0682072
0.0603242
0.0577843
0.0511007
0.0489182
0.0430847
0.0411313
0.0357648
0.0338628
0.0283284
0.026164
0.0192175
0.018207
0.0193586
0.0194203
0.0186883
0.0183261
0.016969
0.016475
0.0149923
0.0144808
0.0130278
0.0125189
0.011055
0.0104764
0.00863714
0.00765929
0.00396249
0.00115514
-0.0108505
-0.0233171
-0.0817638
-0.198766
-0.20023
-0.335333
-0.409281
-0.70536
-0.662915
-0.120598
-0.0239313
-0.00521262
-67.1039
47.7681
3.30467
2.05026
1.86414
1.34009
1.25079
0.980689
0.928184
0.732222
0.686908
0.474254
0.453983
0.485648
0.486151
0.463156
0.45639
0.418069
0.409316
0.368874
0.36014
0.322198
0.314202
0.280426
0.273501
0.245094
0.239922
0.221211
0.222074
0.243876
0.383163
0.21638
0.150555
0.139873
0.115397
0.110831
0.0952207
0.0921267
0.0801535
0.0777152
0.0678775
0.0658467
0.0575035
0.0557584
0.0484781
0.0469166
0.0402255
0.038706
0.0318143
0.030073
0.0211892
0.0203813
0.0220349
0.0220946
0.0211562
0.0208646
0.0191574
0.0187613
0.016905
0.0164957
0.0146812
0.0142746
0.0124541
0.0119937
0.00973149
0.00896003
0.00450155
0.00231472
-0.0117726
-0.021349
-0.0870419
-0.235628
-0.214317
-0.38416
-0.444502
-0.835823
-0.801441
-0.0945329
-0.0161944
-0.00339698
-66.717
45.0561
3.91562
2.20145
2.11023
1.45379
1.41189
1.07449
1.04988
0.804224
0.782778
0.509908
0.50037
0.545609
0.545976
0.516397
0.513185
0.464571
0.460434
0.409309
0.405188
0.357277
0.353505
0.310859
0.30759
0.271642
0.26918
0.244866
0.245054
0.262288
0.459532
0.233061
0.16181
0.157025
0.126904
0.124776
0.105199
0.103744
0.0886678
0.0875193
0.0751187
0.0741617
0.0636425
0.0628201
0.0536429
0.0529073
0.0444796
0.0437642
0.0350943
0.0342679
0.0228379
0.0224573
0.0247752
0.0248089
0.0235983
0.0234597
0.0212934
0.0211062
0.01876
0.0185669
0.0162784
0.0160869
0.013799
0.0135832
0.0107663
0.0104084
0.00494986
0.00395044
-0.0128749
-0.017136
-0.089004
-0.279285
-0.220756
-0.437366
-0.466483
-0.983313
-0.966868
-0.043325
-0.00583594
-0.00118136
-66.3299
45.0561
3.91561
2.20145
2.11023
1.45379
1.41189
1.0745
1.04988
0.804225
0.782779
0.509909
0.500371
0.54561
0.545977
0.516398
0.513186
0.464572
0.460434
0.40931
0.405188
0.357278
0.353505
0.310859
0.30759
0.271643
0.269181
0.244866
0.245054
0.262289
0.459533
0.233062
0.161811
0.157026
0.126904
0.124776
0.105199
0.103745
0.0886682
0.0875197
0.075119
0.074162
0.0636428
0.0628204
0.0536432
0.0529076
0.0444798
0.0437644
0.0350945
0.0342681
0.022838
0.0224574
0.0247753
0.0248091
0.0235984
0.0234599
0.0212936
0.0211064
0.0187602
0.0185671
0.0162786
0.0160871
0.0137992
0.0135834
0.0107666
0.0104086
0.00495025
0.00395087
-0.012874
-0.017135
-0.0890015
-0.279279
-0.220753
-0.437363
-0.46648
-0.983314
-0.96687
-0.043325
-0.00583594
-0.00118142
-66.3299
47.7681
3.30466
2.05026
1.86414
1.34009
1.25079
0.98069
0.928184
0.732223
0.686909
0.474254
0.453983
0.485649
0.486152
0.463157
0.456391
0.418069
0.409316
0.368874
0.360141
0.322199
0.314203
0.280427
0.273502
0.245095
0.239922
0.221212
0.222074
0.243877
0.383165
0.216381
0.150555
0.139873
0.115398
0.110832
0.0952211
0.0921271
0.0801539
0.0777155
0.0678778
0.065847
0.0575038
0.0557587
0.0484783
0.0469169
0.0402258
0.0387062
0.0318145
0.0300732
0.0211893
0.0203814
0.0220351
0.0220947
0.0211563
0.0208647
0.0191575
0.0187615
0.0169052
0.0164959
0.0146814
0.0142748
0.0124543
0.0119939
0.00973173
0.00896029
0.00450192
0.00231515
-0.0117718
-0.021348
-0.0870396
-0.235623
-0.214313
-0.384157
-0.444499
-0.835823
-0.801442
-0.0945328
-0.0161944
-0.00339701
-66.717
50.4609
2.76306
1.85634
1.63156
1.20899
1.09692
0.878181
0.812231
0.654194
0.597732
0.430905
0.405518
0.426934
0.427267
0.409267
0.400859
0.370385
0.359466
0.327171
0.316262
0.285923
0.275931
0.24892
0.240273
0.217618
0.211206
0.196775
0.198257
0.220766
0.319039
0.195663
0.137094
0.123272
0.103095
0.097329
0.0847423
0.0808648
0.0712583
0.0682075
0.0603245
0.0577846
0.051101
0.0489185
0.0430849
0.0411315
0.035765
0.0338631
0.0283285
0.0261641
0.0192177
0.0182071
0.0193587
0.0194204
0.0186885
0.0183263
0.0169692
0.0164752
0.0149924
0.014481
0.013028
0.0125191
0.0110552
0.0104766
0.00863736
0.00765953
0.00396282
0.00115554
-0.0108498
-0.0233162
-0.0817617
-0.198762
-0.200227
-0.33533
-0.409278
-0.70536
-0.662915
-0.120598
-0.0239312
-0.00521257
-67.1039
53.13
2.28143
1.63514
1.4069
1.06548
0.94731
0.76956
0.699961
0.572103
0.51297
0.381897
0.355181
0.369063
0.369115
0.354993
0.346209
0.321918
0.310471
0.284611
0.273161
0.248833
0.238341
0.216679
0.207604
0.189491
0.18281
0.171701
0.173598
0.194624
0.26378
0.172352
0.121843
0.106926
0.0902167
0.0840993
0.0739154
0.0698317
0.0621007
0.058893
0.0525577
0.0498881
0.0445184
0.0422245
0.0375364
0.0354828
0.0311657
0.0291653
0.0247079
0.0224464
0.0170086
0.0159464
0.016726
0.016778
0.0162059
0.0158278
0.0147464
0.0142285
0.0130409
0.0125038
0.011337
0.0108017
0.00962068
0.00900979
0.00750863
0.00646762
0.00338824
0.000363949
-0.00990932
-0.0234451
-0.0741414
-0.166522
-0.180795
-0.288949
-0.365172
-0.588437
-0.544383
-0.128836
-0.0285501
-0.00645068
-67.4907
55.7745
1.85026
1.39722
1.18677
0.913028
0.800087
0.656613
0.590022
0.487263
0.431086
0.328716
0.30322
0.311745
0.31153
0.300506
0.29218
0.272938
0.262052
0.241476
0.230574
0.211189
0.201197
0.183935
0.175298
0.160907
0.154591
0.146108
0.148175
0.166558
0.214945
0.147405
0.105169
0.0906508
0.0769145
0.0710324
0.0628446
0.0589448
0.0527623
0.0497037
0.0446443
0.0420998
0.0378128
0.0356264
0.0318827
0.0299248
0.0264739
0.0245659
0.0209996
0.0188558
0.0146247
0.013612
0.0141225
0.0141606
0.0137157
0.0133574
0.0125011
0.0120086
0.0110634
0.0105519
0.00962077
0.00911016
0.00816348
0.00757868
0.00636157
0.00535733
0.00281155
-0.000137587
-0.00883821
-0.0220874
-0.0648536
-0.137406
-0.157607
-0.243845
-0.315183
-0.482207
-0.44071
-0.124464
-0.0300415
-0.00701627
-67.8773
58.3958
1.46041
1.1496
0.969163
0.75415
0.654085
0.540591
0.481529
0.40056
0.35105
0.272459
0.249898
0.254777
0.254378
0.245911
0.238588
0.223623
0.214022
0.197954
0.188328
0.17317
0.164345
0.150846
0.143221
0.132001
0.12646
0.120093
0.122099
0.137292
0.170746
0.121446
0.0873863
0.0743448
0.0632983
0.0580579
0.0516024
0.0481492
0.043299
0.0405945
0.0366304
0.0343813
0.0310233
0.0290907
0.0261576
0.0244266
0.0217205
0.020033
0.0172344
0.0153489
0.0121121
0.0112168
0.011538
0.0115626
0.0112221
0.0109071
0.0102414
0.00980699
0.00906873
0.0086169
0.00788782
0.00743618
0.00669188
0.00617293
0.00520608
0.00430877
0.00225106
-0.000408985
-0.00758507
-0.0195489
-0.0543741
-0.110383
-0.131778
-0.199337
-0.261367
-0.384317
-0.348026
-0.111219
-0.0286769
-0.00689026
-68.2637
60.9967
1.10328
0.896765
0.752943
0.590673
0.508621
0.422392
0.373913
0.312598
0.272177
0.213962
0.195479
0.19802
0.197549
0.19127
0.185301
0.174094
0.16625
0.154174
0.146302
0.134898
0.127679
0.117523
0.111288
0.102867
0.098361
0.0937426
0.0954957
0.107295
0.129859
0.0948776
0.0687629
0.0579592
0.0494499
0.0451321
0.0402402
0.0374097
0.03375
0.0315358
0.0285481
0.0267072
0.0241769
0.0225951
0.0203845
0.0189675
0.0169264
0.0155446
0.0134327
0.011896
0.00950583
0.00877303
0.0089654
0.00897927
0.00872753
0.00847091
0.00797245
0.00761757
0.00706261
0.00669303
0.00614382
0.00577396
0.00521132
0.00478516
0.00404786
0.00330669
0.00171473
-0.000499675
-0.00614034
-0.0160959
-0.0430471
-0.0847455
-0.104102
-0.15505
-0.205114
-0.292797
-0.263363
-0.0918036
-0.0248821
-0.00611755
-68.6498
63.5812
0.770888
0.64142
0.53746
0.423988
0.363324
0.302683
0.26681
0.223801
0.194015
0.153875
0.140219
0.141383
0.140952
0.136617
0.132225
0.12443
0.118647
0.110226
0.104418
0.0964582
0.0911315
0.084042
0.079443
0.0735769
0.070267
0.0671377
0.0684907
0.0768681
0.0912726
0.0679546
0.0495272
0.0414819
0.035434
0.0322293
0.0287956
0.0267033
0.0241433
0.0225081
0.0204199
0.0190608
0.0172926
0.0161248
0.0145798
0.0135334
0.0121061
0.0110855
0.00960816
0.00847729
0.00683335
0.00629227
0.00639998
0.0064066
0.00623321
0.00604441
0.00569784
0.00543619
0.00504912
0.00477639
0.0043927
0.00411951
0.00372534
0.00340989
0.00288984
0.00233868
0.00120334
-0.000453263
-0.00452296
-0.011963
-0.0311301
-0.0600011
-0.0751622
-0.110798
-0.147356
-0.20596
-0.184385
-0.0682024
-0.019161
-0.00479342
-69.0357
66.1536
0.455748
0.385056
0.322358
0.255191
0.218026
0.181984
0.159993
0.134475
0.116268
0.0927287
0.0843661
0.0848103
0.0845115
0.0819665
0.0792838
0.0746862
0.07115
0.0661732
0.0626203
0.0579134
0.0546541
0.0504618
0.0476486
0.0441846
0.0421658
0.0403536
0.0412048
0.0462
0.0541957
0.040836
0.0298762
0.0249248
0.0213043
0.0193358
0.0172975
0.0160158
0.0144997
0.0134986
0.0122627
0.0114308
0.0103843
0.00966955
0.00875511
0.00811459
0.00726947
0.00664462
0.00576976
0.00507916
0.00411679
0.00378559
0.00383864
0.00384118
0.00373954
0.00362426
0.00341987
0.00325988
0.0030311
0.00286422
0.00263719
0.00246993
0.00223626
0.00204283
0.00173309
0.00139408
0.000712834
-0.00031029
-0.00277073
-0.00736089
-0.0188248
-0.0358049
-0.0454033
-0.0665088
-0.0887154
-0.122331
-0.109191
-0.0419154
-0.0120529
-0.0030504
-69.4215
68.7187
0.150794
0.128372
0.107435
0.0851933
0.0726825
0.060722
0.053317
0.0448561
0.0387342
0.0309755
0.028161
0.0282673
0.0281607
0.0273213
0.0264197
0.0248998
0.0237106
0.0220637
0.0208686
0.0193106
0.0182142
0.0168265
0.0158802
0.0147344
0.0140564
0.013463
0.0137532
0.015412
0.0179731
0.0136215
0.00998494
0.00831445
0.00710867
0.0064451
0.00576908
0.00533765
0.00483542
0.00449858
0.00408928
0.00380936
0.00346286
0.00322235
0.00291953
0.002704
0.00242408
0.00221381
0.00192402
0.00169192
0.001375
0.00126356
0.00127934
0.00127993
0.00124644
0.0012077
0.00114014
0.00108633
0.00101063
0.000954484
0.000879313
0.000823025
0.00074558
0.000680436
0.000577543
0.000463187
0.000236026
-0.000109802
-0.000933274
-0.00248383
-0.0062988
-0.011904
-0.0151839
-0.0221756
-0.0296186
-0.0405722
-0.036162
-0.0141319
-0.0041104
-0.00104633
-69.8072
68.7225
0.136734
0.103784
0.0777474
0.052428
0.0390383
0.027487
0.0210738
0.0149881
0.0125706
0.011907
0.0115562
0.0110025
0.0105644
0.00995104
0.00950563
0.00892425
0.00850704
0.007965
0.00757494
0.00706661
0.00670216
0.00623031
0.00590013
0.00548836
0.00523656
0.00500159
0.00508122
0.00563139
0.00650211
0.00486816
0.00349142
0.00285297
0.00238418
0.00212526
0.00186161
0.00169475
0.00150282
0.0013758
0.00122391
0.00112159
0.000997095
0.000912097
0.000807058
0.00073384
0.000640997
0.000573529
0.000483815
0.000415165
0.000324001
0.000285035
0.000270416
0.000254204
0.000220147
0.000187182
0.000132659
8.39145e-05
6.47404e-06
-6.38717e-05
-0.000177823
-0.000285793
-0.000467075
-0.000649235
-0.000970441
-0.00132452
-0.00199936
-0.00287604
-0.00477665
-0.00792461
-0.0152792
-0.0251881
-0.0278535
-0.0349834
-0.0427416
-0.053848
-0.04692
-0.0182674
-0.00530721
-0.0013506
-69.1032
66.1654
0.413658
0.311076
0.233213
0.156807
0.117041
0.0822556
0.0632084
0.0448177
0.0376416
0.0357086
0.0346767
0.033003
0.0317003
0.0298464
0.0285223
0.0267662
0.0255261
0.0238889
0.0227295
0.0211941
0.0201108
0.0186853
0.0177037
0.0164587
0.015709
0.0149922
0.0152249
0.0168813
0.0196065
0.0145942
0.0104447
0.00855213
0.00714413
0.00637596
0.00558097
0.00508526
0.00450585
0.00412841
0.00366975
0.00336567
0.00298971
0.00273709
0.0024199
0.00220231
0.00192198
0.00172148
0.0014506
0.0012464
0.000969916
0.000854132
0.000811312
0.000763326
0.000660398
0.000562409
0.000397746
0.000252891
1.9138e-05
-0.000189871
-0.000533708
-0.000854448
-0.00140119
-0.00194214
-0.00291001
-0.00396072
-0.00599001
-0.00858715
-0.0142801
-0.0236056
-0.0457355
-0.0758539
-0.0833818
-0.104925
-0.128091
-0.162265
-0.141629
-0.0541746
-0.0155615
-0.00393736
-67.3097
63.6019
0.701052
0.517379
0.388621
0.25972
0.194845
0.136395
0.105317
0.0741987
0.0625028
0.0594742
0.0578229
0.0549887
0.0528583
0.0497206
0.0475564
0.0445875
0.0425611
0.0397937
0.0378992
0.0353035
0.0335331
0.0311225
0.0295177
0.0274092
0.0261801
0.0249448
0.0253115
0.0280886
0.0330204
0.0242857
0.0173078
0.0142319
0.0118785
0.0106277
0.00928835
0.00847912
0.00750081
0.00688425
0.0061094
0.00561261
0.00497738
0.00456467
0.00402876
0.00367328
0.00319976
0.00287224
0.00241472
0.00208052
0.0016094
0.00142031
0.00135241
0.00127465
0.00110045
0.000940302
0.00066204
0.000425423
3.08111e-05
-0.000310479
-0.000890518
-0.00141406
-0.00233554
-0.00321797
-0.00484626
-0.00655778
-0.00995794
-0.0141744
-0.0236382
-0.0387743
-0.0758722
-0.127423
-0.13835
-0.174802
-0.213
-0.272875
-0.239011
-0.0881281
-0.0247362
-0.00618693
-65.5159
61.0279
1.00625
0.721485
0.544035
0.360073
0.272392
0.189439
0.147427
0.102803
0.0870174
0.0831847
0.0810164
0.0769462
0.0740566
0.0695559
0.0666226
0.0623711
0.0596258
0.0556637
0.053097
0.0493799
0.046981
0.0435275
0.041352
0.0383246
0.0366515
0.0348334
0.0353018
0.0392096
0.046981
0.033907
0.0240147
0.0198828
0.0165687
0.0148831
0.0129745
0.0118797
0.0104813
0.00964643
0.00853793
0.00786509
0.00695616
0.00639717
0.0056304
0.00514898
0.00447171
0.0040282
0.00337391
0.00292012
0.00223761
0.00198164
0.00189391
0.00178982
0.00153994
0.00132292
0.000924666
0.000604272
4.03496e-05
-0.000421539
-0.00124959
-0.00195776
-0.00327145
-0.00446397
-0.00677919
-0.00908729
-0.0138932
-0.0195518
-0.0327694
-0.0530646
-0.105431
-0.180618
-0.192296
-0.244609
-0.297042
-0.387235
-0.341073
-0.118582
-0.0321172
-0.00789554
-63.722
58.4397
1.33711
0.921299
0.699709
0.456574
0.34975
0.240845
0.189641
0.130253
0.111054
0.106829
0.104286
0.0988565
0.0953194
0.0893285
0.0857416
0.0800946
0.0767392
0.0714778
0.0683408
0.0634036
0.0604712
0.0558814
0.0532203
0.0491858
0.0471288
0.0446305
0.0451545
0.0501761
0.0617754
0.043401
0.0304913
0.0255009
0.0211939
0.0191473
0.0166281
0.0152925
0.0134392
0.0124196
0.010949
0.010127
0.00892093
0.00823799
0.00722063
0.00663251
0.00573431
0.0051926
0.00432508
0.00376887
0.00284875
0.00253624
0.00243606
0.00231083
0.00197811
0.00171278
0.00118418
0.000792861
4.5804e-05
-0.000517955
-0.00161346
-0.00247724
-0.0042122
-0.00566507
-0.0087124
-0.0115169
-0.0177944
-0.0246268
-0.0416175
-0.0660721
-0.134076
-0.236353
-0.244618
-0.314411
-0.379574
-0.507048
-0.450189
-0.143595
-0.0370085
-0.0088922
-61.9279
55.8339
1.7022
1.11334
0.856245
0.547622
0.427192
0.289944
0.232183
0.156097
0.134492
0.130405
0.127671
0.120691
0.11668
0.109005
0.104943
0.0977264
0.0939288
0.087207
0.0836566
0.0773472
0.0740277
0.0681582
0.0651436
0.0599679
0.0576237
0.0543067
0.0548274
0.0608795
0.0777688
0.0526763
0.036651
0.0310917
0.0257285
0.0234304
0.0202344
0.0187259
0.0163638
0.0152107
0.0133342
0.0124043
0.0108648
0.0100922
0.00879369
0.00812844
0.00698265
0.00637003
0.0052638
0.00463218
0.0034356
0.00308235
0.00297921
0.00284014
0.00241359
0.00211317
0.00143819
0.000995675
4.3923e-05
-0.000593104
-0.0019866
-0.00296188
-0.00516425
-0.00680238
-0.0106553
-0.0138076
-0.0216734
-0.0292955
-0.0501671
-0.0773376
-0.161351
-0.295848
-0.294478
-0.384399
-0.459613
-0.634236
-0.569294
-0.160608
-0.038761
-0.00905411
-60.1334
53.2079
2.11099
1.29212
1.01484
0.631143
0.505306
0.335863
0.275458
0.179761
0.157228
0.153928
0.151226
0.142407
0.138188
0.128537
0.124271
0.115222
0.111236
0.102809
0.0990829
0.0911712
0.0876863
0.0803209
0.0771534