/*--------------------------------*- C++ -*----------------------------------*\
| =========                 |                                                 |
| \\      /  F ield         | OpenFOAM: The Open Source CFD Toolbox           |
|  \\    /   O peration     | Version:  5.x                                   |
|   \\  /    A nd           | Web:      www.OpenFOAM.org                      |
|    \\/     M anipulation  |                                                 |
\*---------------------------------------------------------------------------*/
FoamFile
{
    version     2.0;
    format      ascii;
    class       volScalarField;
    location    "3.9";
    object      T;
}
// * * * * * * * * * * * * * * * * * * * * * * * * * * * * * * * * * * * * * //

dimensions      [0 0 0 1 0 0 0];

internalField   nonuniform List<scalar> 
3200
(
2.08519
2.43632
2.45635
2.60117
2.61034
2.68263
2.68745
2.72927
2.73214
2.75862
2.76038
2.77568
2.77702
2.79372
2.79508
2.811
2.81228
2.82693
2.82809
2.84134
2.84238
2.8542
2.85513
2.86557
2.86639
2.87558
2.87631
2.88459
2.88532
2.89409
2.9018
2.90235
2.90733
2.9077
2.91151
2.9118
2.91485
2.91508
2.91756
2.91775
2.91977
2.91992
2.92157
2.9217
2.92303
2.92313
2.92419
2.92426
2.92505
2.9251
2.92558
2.92562
2.92609
2.92612
2.92649
2.92652
2.92672
2.92672
2.92669
2.92668
2.92631
2.92626
2.92537
2.92525
2.92345
2.92322
2.91964
2.91914
2.91124
2.90985
2.88739
2.84818
2.8438
2.78008
2.77257
2.65336
2.64842
2.64779
2.64766
2.64764
2.26063
2.52929
2.57113
2.68699
2.70656
2.76437
2.77463
2.80797
2.81407
2.83512
2.83886
2.85113
2.85399
2.8672
2.87008
2.8827
2.8854
2.89701
2.89947
2.90997
2.91219
2.92155
2.92352
2.9318
2.93353
2.94082
2.94238
2.94896
2.95053
2.9578
2.96427
2.96546
2.96944
2.97022
2.97325
2.97386
2.97628
2.97677
2.97873
2.97913
2.98074
2.98106
2.98237
2.98264
2.98369
2.9839
2.98474
2.9849
2.98553
2.98564
2.98602
2.9861
2.98648
2.98655
2.98684
2.98689
2.98705
2.98706
2.98704
2.987
2.98671
2.9866
2.98588
2.98564
2.9842
2.98372
2.98084
2.97977
2.97334
2.97028
2.95065
2.91855
2.9092
2.85841
2.8426
2.74999
2.73955
2.73782
2.73746
2.73738
2.42533
2.63132
2.68295
2.77666
2.80125
2.84801
2.86089
2.88776
2.89541
2.91231
2.917
2.92696
2.93054
2.9411
2.9447
2.95479
2.95816
2.96745
2.97053
2.97893
2.9817
2.9892
2.99166
2.99829
3.00046
3.0063
3.00824
3.01353
3.01551
3.02153
3.02695
3.02846
3.03167
3.03265
3.03508
3.03584
3.03778
3.0384
3.03997
3.04047
3.04176
3.04216
3.04321
3.04354
3.04439
3.04465
3.04532
3.04552
3.04602
3.04616
3.04647
3.04658
3.04687
3.04697
3.0472
3.04726
3.04739
3.0474
3.04738
3.04734
3.0471
3.04696
3.04639
3.04608
3.04492
3.0443
3.04197
3.04061
3.0353
3.03137
3.01441
2.98802
2.97626
2.93533
2.9157
2.84334
2.83033
2.8278
2.82724
2.82712
2.58179
2.73953
2.79309
2.8691
2.89505
2.933
2.94659
2.96832
2.97637
2.98999
2.99494
3.00304
3.00681
3.01527
3.01905
3.02714
3.03069
3.03814
3.04138
3.04812
3.05103
3.05705
3.05964
3.06495
3.06724
3.07193
3.07397
3.07824
3.08033
3.08529
3.08979
3.09139
3.09399
3.09503
3.09698
3.09778
3.09934
3.09999
3.10125
3.10178
3.10281
3.10324
3.10408
3.10442
3.1051
3.10538
3.10592
3.10613
3.10653
3.10668
3.10693
3.10704
3.10728
3.10738
3.10756
3.10763
3.10773
3.10775
3.10773
3.10768
3.10749
3.10734
3.10687
3.10655
3.10561
3.10496
3.10305
3.10162
3.09721
3.09298
3.07855
3.05691
3.04448
3.01141
2.99091
2.93431
2.92069
2.91769
2.91701
2.91686
2.73193
2.8519
2.90233
2.96354
2.98837
3.01897
3.03197
3.04942
3.05711
3.06802
3.07274
3.07929
3.0829
3.08964
3.09323
3.09968
3.10306
3.109
3.11209
3.11746
3.12024
3.12504
3.1275
3.13174
3.13392
3.13766
3.13961
3.14303
3.14504
3.14906
3.15274
3.15428
3.15638
3.15737
3.15893
3.15969
3.16094
3.16155
3.16256
3.16306
3.16389
3.16429
3.16497
3.1653
3.16584
3.1661
3.16653
3.16674
3.16705
3.1672
3.1674
3.1675
3.16769
3.16778
3.16793
3.16799
3.16807
3.16809
3.16808
3.16803
3.16788
3.16773
3.16736
3.16705
3.16629
3.16567
3.16412
3.16274
3.15911
3.15501
3.14297
3.12542
3.11352
3.08698
3.06756
3.02355
3.01063
3.00749
3.00675
3.00659
2.87728
2.96706
3.01114
3.05944
3.08145
3.10564
3.11717
3.13091
3.13773
3.14629
3.15048
3.15566
3.15886
3.16412
3.1673
3.17234
3.17533
3.17998
3.1827
3.18691
3.18936
3.19312
3.19529
3.19861
3.20054
3.20347
3.20519
3.20788
3.20966
3.21285
3.21578
3.21716
3.21881
3.21968
3.22091
3.22158
3.22256
3.2231
3.22389
3.22434
3.22498
3.22534
3.22587
3.22616
3.22658
3.22682
3.22715
3.22733
3.22758
3.22771
3.22787
3.22796
3.22811
3.22819
3.2283
3.22836
3.22842
3.22844
3.22842
3.22838
3.22826
3.22813
3.22784
3.22757
3.22697
3.22641
3.22519
3.22395
3.22102
3.21734
3.20762
3.19371
3.18315
3.16227
3.1452
3.11156
3.10018
3.0972
3.09648
3.09631
3.01904
3.08404
3.11978
3.15639
3.17445
3.19282
3.20228
3.21269
3.21827
3.22474
3.22817
3.23212
3.23473
3.23869
3.24129
3.24509
3.24753
3.25103
3.25326
3.25643
3.25843
3.26126
3.26304
3.26554
3.26712
3.26933
3.27074
3.27277
3.27423
3.27665
3.27889
3.28001
3.28127
3.28199
3.28291
3.28346
3.2842
3.28464
3.28524
3.2856
3.28609
3.28638
3.28678
3.28702
3.28734
3.28753
3.28778
3.28793
3.28812
3.28822
3.28834
3.28841
3.28853
3.28859
3.28868
3.28872
3.28877
3.28878
3.28877
3.28874
3.28865
3.28854
3.28832
3.2881
3.28764
3.28719
3.28625
3.28523
3.28297
3.27992
3.27243
3.26186
3.2532
3.2374
3.2235
3.19868
3.18939
3.18682
3.18618
3.18603
3.1582
3.2022
3.22839
3.25408
3.26744
3.28035
3.28735
3.29465
3.29878
3.3033
3.30585
3.30862
3.31056
3.31332
3.31524
3.31789
3.31969
3.32213
3.32378
3.32599
3.32747
3.32945
3.33076
3.33251
3.33367
3.33521
3.33626
3.33768
3.33876
3.34046
3.34203
3.34287
3.34375
3.34428
3.34493
3.34534
3.34585
3.34618
3.34659
3.34686
3.3472
3.34742
3.34769
3.34787
3.34809
3.34824
3.34841
3.34852
3.34865
3.34873
3.34881
3.34887
3.34895
3.34899
3.34905
3.34909
3.34912
3.34913
3.34912
3.3491
3.34903
3.34896
3.3488
3.34863
3.34831
3.34798
3.34732
3.34656
3.34495
3.34268
3.33737
3.32994
3.32353
3.31246
3.30223
3.28517
3.27833
3.27636
3.27586
3.27574
3.2956
3.32107
3.33701
3.35226
3.36045
3.36812
3.37241
3.37674
3.37927
3.38195
3.38351
3.38516
3.38635
3.38798
3.38915
3.39072
3.39182
3.39327
3.39428
3.39558
3.39649
3.39766
3.39846
3.3995
3.40021
3.40112
3.40176
3.4026
3.40327
3.40427
3.40521
3.40572
3.40624
3.40657
3.40695
3.4072
3.40751
3.40771
3.40795
3.40812
3.40832
3.40845
3.40862
3.40872
3.40886
3.40894
3.40905
3.40911
3.40919
3.40924
3.40929
3.40932
3.40937
3.4094
3.40943
3.40945
3.40947
3.40948
3.40947
3.40946
3.40942
3.40937
3.40928
3.40918
3.40899
3.40878
3.40839
3.40792
3.40696
3.40556
3.40239
3.39798
3.39405
3.38748
3.38124
3.37126
3.36708
3.36584
3.36552
3.36545
3.43198
3.44032
3.44567
3.45072
3.45348
3.45603
3.45747
3.45891
3.45976
3.46065
3.46117
3.46172
3.46212
3.46266
3.46305
3.46357
3.46394
3.46442
3.46476
3.46519
3.4655
3.46588
3.46616
3.4665
3.46674
3.46704
3.46725
3.46753
3.46776
3.46809
3.4684
3.46857
3.46875
3.46886
3.46898
3.46907
3.46917
3.46924
3.46932
3.46937
3.46944
3.46948
3.46954
3.46957
3.46962
3.46965
3.46968
3.4697
3.46973
3.46975
3.46976
3.46977
3.46979
3.4698
3.46981
3.46982
3.46982
3.46983
3.46982
3.46982
3.46981
3.46979
3.46976
3.46973
3.46966
3.46959
3.46946
3.46931
3.46898
3.46851
3.46746
3.46599
3.46467
3.4625
3.4604
3.45711
3.45571
3.45528
3.45517
3.45515
3.43148
3.44039
3.44656
3.45323
3.45731
3.46174
3.46457
3.46782
3.46991
3.4723
3.47378
3.4754
3.4766
3.47823
3.47941
3.48096
3.48205
3.48345
3.48442
3.48566
3.48651
3.48759
3.48833
3.48927
3.48992
3.49074
3.49133
3.49209
3.4927
3.49363
3.4945
3.49499
3.4955
3.49582
3.49621
3.49647
3.49678
3.497
3.49727
3.49745
3.49768
3.49783
3.49802
3.49815
3.49832
3.49842
3.49856
3.49865
3.49875
3.49882
3.49889
3.49894
3.49902
3.49907
3.49914
3.49919
3.49925
3.4993
3.49936
3.49939
3.49944
3.49948
3.49952
3.49955
3.49958
3.49959
3.4996
3.49958
3.49951
3.49933
3.49888
3.49814
3.49736
3.49592
3.4944
3.49187
3.49078
3.49045
3.49037
3.49035
3.29409
3.32127
3.33967
3.35978
3.3719
3.3853
3.39371
3.4035
3.4097
3.41694
3.42133
3.42622
3.42977
3.4347
3.43822
3.44289
3.44615
3.45036
3.45326
3.45698
3.45952
3.46277
3.46499
3.46782
3.46975
3.47224
3.47397
3.47627
3.47809
3.48089
3.48351
3.48497
3.4865
3.48747
3.48863
3.4894
3.49036
3.491
3.49181
3.49235
3.49304
3.4935
3.49407
3.49446
3.49495
3.49527
3.49568
3.49594
3.49625
3.49645
3.49666
3.49682
3.49705
3.49721
3.49742
3.49757
3.49776
3.4979
3.49807
3.49818
3.49833
3.49843
3.49855
3.49864
3.49873
3.49877
3.4988
3.49874
3.49852
3.49801
3.49664
3.49443
3.4921
3.48778
3.48323
3.47554
3.47231
3.47135
3.4711
3.47105
3.15561
3.20251
3.2327
3.26665
3.28645
3.30905
3.32278
3.33932
3.34946
3.3617
3.36886
3.37709
3.38289
3.39122
3.39698
3.40489
3.4102
3.41733
3.42207
3.42835
3.43251
3.438
3.44162
3.4464
3.44957
3.45376
3.45659
3.46047
3.46344
3.46816
3.47257
3.47496
3.47752
3.4791
3.48107
3.48233
3.48395
3.485
3.48636
3.48725
3.4884
3.48915
3.49013
3.49077
3.49159
3.49212
3.4928
3.49323
3.49376
3.49408
3.49444
3.49471
3.49508
3.49535
3.49571
3.49595
3.49628
3.49649
3.49678
3.49697
3.49722
3.49738
3.49759
3.49772
3.49788
3.49796
3.498
3.49791
3.49755
3.49672
3.49444
3.49072
3.48692
3.47964
3.47219
3.45904
3.45375
3.45222
3.45183
3.45174
3.01526
3.08441
3.12559
3.17409
3.20088
3.23316
3.25174
3.2754
3.28914
3.30666
3.31635
3.32805
3.3359
3.34786
3.35566
3.36698
3.37419
3.38439
3.39081
3.39981
3.40544
3.4133
3.41821
3.42505
3.42934
3.43534
3.43917
3.44471
3.44872
3.45544
3.46171
3.46493
3.46859
3.47072
3.47353
3.47524
3.47755
3.47898
3.48093
3.48213
3.48378
3.4848
3.4862
3.48706
3.48824
3.48896
3.48993
3.49051
3.49128
3.4917
3.49223
3.49258
3.49312
3.49348
3.494
3.49433
3.49479
3.49509
3.4955
3.49576
3.49611
3.49633
3.49664
3.49681
3.49704
3.49714
3.49721
3.49709
3.4966
3.49548
3.49229
3.48701
3.48188
3.4715
3.46137
3.44222
3.43503
3.43304
3.43255
3.43243
2.87214
2.96744
3.01818
3.0824
3.1151
3.15781
3.1805
3.21187
3.22866
3.25193
3.26376
3.27917
3.28875
3.30465
3.31419
3.32924
3.33805
3.3516
3.35945
3.3714
3.37828
3.38872
3.39472
3.4038
3.40904
3.417
3.42169
3.42901
3.4339
3.44274
3.45097
3.45488
3.45971
3.46232
3.46604
3.46812
3.4712
3.47294
3.47553
3.477
3.47919
3.48044
3.48229
3.48335
3.48491
3.48579
3.48708
3.48779
3.48881
3.48933
3.49002
3.49045
3.49117
3.49161
3.49229
3.4927
3.49332
3.49368
3.49422
3.49454
3.49501
3.49528
3.49568
3.4959
3.4962
3.49633
3.49643
3.49629
3.49567
3.49433
3.49023
3.4833
3.47705
3.46336
3.45092
3.42493
3.41611
3.41381
3.41325
3.41312
2.72521
2.85224
2.91023
2.99197
3.02891
3.08327
3.10892
3.14893
3.16792
3.19766
3.21103
3.23053
3.24135
3.2617
3.2725
3.29175
3.30172
3.31905
3.32793
3.34319
3.35098
3.36431
3.3711
3.38271
3.38863
3.3988
3.40409
3.41341
3.41891
3.43006
3.4404
3.4448
3.45092
3.45387
3.45861
3.46097
3.4649
3.46687
3.47017
3.47184
3.47464
3.47605
3.47842
3.47961
3.48161
3.4826
3.48425
3.48506
3.48635
3.48694
3.48782
3.48831
3.48923
3.48972
3.4906
3.49106
3.49185
3.49226
3.49296
3.49331
3.49392
3.49422
3.49474
3.49498
3.49537
3.49552
3.49565
3.4955
3.49477
3.4933
3.48828
3.47955
3.47252
3.45517
3.441
3.40695
3.39693
3.3945
3.39393
3.3938
2.57319
2.73981
2.80133
2.90332
2.94203
3.00987
3.03676
3.08683
3.10675
3.14404
3.15805
3.18223
3.19357
3.21913
3.23048
3.25463
3.2651
3.28683
3.29615
3.31529
3.32346
3.34017
3.3473
3.36184
3.36806
3.38079
3.38634
3.39796
3.4037
3.41742
3.43008
3.43465
3.44226
3.44535
3.45128
3.45376
3.45867
3.46074
3.46488
3.46663
3.47014
3.47162
3.47459
3.47584
3.47834
3.47939
3.48146
3.4823
3.48393
3.48455
3.48563
3.48614
3.48731
3.48782
3.48893
3.4894
3.4904
3.49083
3.4917
3.49208
3.49284
3.49316
3.4938
3.49406
3.49455
3.49471
3.49489
3.49474
3.4939
3.4924
3.48648
3.47574
3.4684
3.44685
3.43189
3.38801
3.37745
3.37512
3.37459
3.37448
2.41451
2.63158
2.69082
2.81721
2.85397
2.93811
2.96367
3.02593
3.04489
3.09135
3.10466
3.13444
3.14521
3.17713
3.18794
3.21806
3.22803
3.2551
3.26397
3.28782
3.2956
3.31641
3.32319
3.3413
3.34722
3.36306
3.36834
3.38274
3.38817
3.40482
3.42007
3.42438
3.43378
3.43671
3.44409
3.44644
3.45256
3.45453
3.45969
3.46135
3.46572
3.46713
3.47083
3.47202
3.47514
3.47613
3.47872
3.47952
3.48155
3.48214
3.48347
3.48396
3.48541
3.4859
3.48728
3.48773
3.48897
3.48938
3.49047
3.49083
3.49177
3.49208
3.49288
3.49313
3.49374
3.49389
3.49414
3.49401
3.49305
3.49168
3.48488
3.4718
3.46486
3.43827
3.42393
3.36773
3.35764
3.35567
3.35524
3.35515
2.24715
2.52966
2.57761
2.73469
2.76403
2.8687
2.88911
2.96677
2.98193
3.03999
3.05062
3.08741
3.09602
3.13598
3.14463
3.18229
3.19027
3.2241
3.2312
3.26099
3.26721
3.29321
3.29864
3.32125
3.32599
3.34576
3.34998
3.36788
3.37218
3.39227
3.4105
3.41391
3.42556
3.4279
3.4371
3.43898
3.44662
3.44819
3.45463
3.45596
3.46142
3.46255
3.46717
3.46812
3.47202
3.47281
3.47604
3.47669
3.47922
3.47969
3.48134
3.48173
3.48355
3.48394
3.48566
3.48603
3.48758
3.4879
3.48927
3.48955
3.49074
3.49098
3.49198
3.49218
3.49295
3.49308
3.4934
3.49331
3.49223
3.49117
3.48352
3.46761
3.46209
3.42919
3.41764
3.34561
3.3375
3.33616
3.33588
3.33582
2.06848
2.43713
2.46005
2.65727
2.67107
2.80265
2.81226
2.9101
2.91725
2.99052
2.99552
3.04152
3.04556
3.09608
3.10016
3.14772
3.15148
3.19417
3.19752
3.2351
3.23804
3.27083
3.27339
3.30192
3.30415
3.32908
3.33107
3.35357
3.35557
3.3798
3.40152
3.4031
3.41771
3.41881
3.4304
3.43128
3.44092
3.44166
3.44978
3.45041
3.45729
3.45783
3.46366
3.46411
3.46902
3.4694
3.47347
3.47377
3.47698
3.4772
3.47926
3.47945
3.48174
3.48193
3.4841
3.48427
3.48623
3.48638
3.48811
3.48824
3.48974
3.48985
3.49112
3.49121
3.49219
3.49225
3.49269
3.49264
3.4914
3.49093
3.4825
3.463
3.46042
3.41927
3.41377
3.32093
3.31709
3.3166
3.3165
3.31648
2.06848
2.43713
2.46004
2.65727
2.67107
2.80265
2.81226
2.9101
2.91724
2.99052
2.99552
3.04151
3.04556
3.09607
3.10016
3.14771
3.15148
3.19417
3.19752
3.2351
3.23804
3.27083
3.27339
3.30192
3.30415
3.32908
3.33107
3.35357
3.35557
3.3798
3.40152
3.4031
3.41771
3.4188
3.4304
3.43128
3.44092
3.44166
3.44978
3.45041
3.45729
3.45783
3.46366
3.46411
3.46902
3.4694
3.47347
3.47377
3.47698
3.4772
3.47926
3.47945
3.48174
3.48193
3.4841
3.48427
3.48623
3.48638
3.48811
3.48824
3.48973
3.48985
3.49111
3.49121
3.49219
3.49225
3.49269
3.49264
3.4914
3.49093
3.4825
3.463
3.46042
3.41927
3.41378
3.32094
3.31709
3.3166
3.31651
3.31648
2.24715
2.52966
2.57761
2.73469
2.76403
2.8687
2.88911
2.96677
2.98192
3.03999
3.05062
3.08741
3.09601
3.13598
3.14463
3.18229
3.19027
3.2241
3.2312
3.26099
3.26721
3.29321
3.29863
3.32125
3.32598
3.34576
3.34998
3.36788
3.37218
3.39227
3.4105
3.41391
3.42556
3.42789
3.4371
3.43898
3.44662
3.44819
3.45463
3.45596
3.46142
3.46255
3.46717
3.46812
3.47202
3.47281
3.47604
3.47668
3.47922
3.47969
3.48134
3.48173
3.48355
3.48394
3.48566
3.48603
3.48758
3.4879
3.48927
3.48955
3.49074
3.49098
3.49198
3.49218
3.49295
3.49307
3.4934
3.49331
3.49223
3.49117
3.48352
3.46761
3.46209
3.42919
3.41764
3.34561
3.3375
3.33616
3.33588
3.33582
2.41451
2.63158
2.69082
2.81721
2.85397
2.93811
2.96367
3.02593
3.04489
3.09135
3.10466
3.13444
3.14521
3.17713
3.18794
3.21806
3.22803
3.2551
3.26397
3.28782
3.2956
3.31641
3.32319
3.3413
3.34722
3.36306
3.36834
3.38274
3.38817
3.40482
3.42007
3.42438
3.43378
3.43671
3.44409
3.44644
3.45256
3.45453
3.45969
3.46135
3.46572
3.46713
3.47083
3.47202
3.47514
3.47613
3.47872
3.47952
3.48155
3.48214
3.48347
3.48396
3.48541
3.4859
3.48728
3.48773
3.48897
3.48938
3.49047
3.49083
3.49177
3.49208
3.49288
3.49313
3.49374
3.49389
3.49414
3.49401
3.49305
3.49168
3.48488
3.4718
3.46486
3.43827
3.42393
3.36773
3.35764
3.35567
3.35524
3.35515
2.57319
2.73981
2.80133
2.90332
2.94202
3.00987
3.03675
3.08683
3.10675
3.14404
3.15805
3.18223
3.19357
3.21913
3.23048
3.25463
3.2651
3.28682
3.29615
3.31529
3.32346
3.34017
3.3473
3.36184
3.36806
3.38079
3.38634
3.39796
3.4037
3.41742
3.43008
3.43465
3.44226
3.44535
3.45128
3.45376
3.45867
3.46074
3.46488
3.46663
3.47014
3.47162
3.47459
3.47584
3.47834
3.47939
3.48146
3.4823
3.48393
3.48455
3.48563
3.48614
3.4873
3.48782
3.48893
3.4894
3.4904
3.49083
3.4917
3.49208
3.49284
3.49316
3.4938
3.49406
3.49455
3.49471
3.49489
3.49474
3.4939
3.4924
3.48648
3.47575
3.46841
3.44685
3.43189
3.38801
3.37745
3.37512
3.37459
3.37448
2.72521
2.85224
2.91023
2.99196
3.02891
3.08327
3.10892
3.14893
3.16792
3.19766
3.21103
3.23053
3.24135
3.2617
3.2725
3.29175
3.30172
3.31905
3.32793
3.34319
3.35098
3.36431
3.3711
3.38271
3.38863
3.3988
3.40409
3.41341
3.41891
3.43006
3.4404
3.4448
3.45092
3.45387
3.45861
3.46097
3.4649
3.46687
3.47017
3.47184
3.47464
3.47605
3.47842
3.47961
3.48161
3.4826
3.48425
3.48506
3.48635
3.48694
3.48782
3.48831
3.48923
3.48972
3.4906
3.49106
3.49185
3.49226
3.49296
3.49331
3.49392
3.49422
3.49474
3.49498
3.49537
3.49552
3.49565
3.4955
3.49477
3.4933
3.48828
3.47955
3.47252
3.45517
3.441
3.40695
3.39693
3.3945
3.39393
3.3938
2.87214
2.96744
3.01818
3.0824
3.1151
3.15781
3.1805
3.21187
3.22866
3.25193
3.26376
3.27917
3.28875
3.30465
3.31419
3.32924
3.33805
3.3516
3.35945
3.3714
3.37828
3.38872
3.39472
3.4038
3.40904
3.417
3.42169
3.42901
3.4339
3.44274
3.45097
3.45488
3.45971
3.46232
3.46604
3.46812
3.4712
3.47294
3.47553
3.477
3.47919
3.48044
3.48229
3.48335
3.48491
3.48579
3.48708
3.48779
3.48881
3.48933
3.49002
3.49045
3.49117
3.49161
3.49229
3.4927
3.49332
3.49368
3.49422
3.49454
3.49501
3.49528
3.49568
3.4959
3.4962
3.49633
3.49643
3.49629
3.49567
3.49433
3.49023
3.4833
3.47705
3.46336
3.45092
3.42493
3.41611
3.41381
3.41325
3.41312
3.01526
3.08441
3.12559
3.17409
3.20088
3.23316
3.25174
3.2754
3.28914
3.30666
3.31635
3.32805
3.3359
3.34785
3.35566
3.36698
3.37419
3.38439
3.39081
3.39981
3.40544
3.4133
3.41821
3.42505
3.42934
3.43534
3.43917
3.44471
3.44872
3.45544
3.46171
3.46493
3.46859
3.47072
3.47353
3.47524
3.47755
3.47898
3.48093
3.48213
3.48378
3.4848
3.4862
3.48706
3.48824
3.48896
3.48993
3.49051
3.49128
3.4917
3.49223
3.49258
3.49312
3.49348
3.494
3.49433
3.49479
3.49509
3.4955
3.49576
3.49611
3.49633
3.49664
3.49681
3.49704
3.49714
3.49721
3.49709
3.4966
3.49548
3.49229
3.48701
3.48188
3.4715
3.46137
3.44222
3.43503
3.43304
3.43255
3.43243
3.15561
3.20251
3.2327
3.26665
3.28645
3.30905
3.32278
3.33932
3.34946
3.3617
3.36886
3.37709
3.38289
3.39122
3.39698
3.40489
3.4102
3.41733
3.42207
3.42835
3.43251
3.438
3.44162
3.4464
3.44957
3.45376
3.45659
3.46047
3.46344
3.46816
3.47257
3.47496
3.47752
3.4791
3.48107
3.48233
3.48395
3.485
3.48636
3.48725
3.4884
3.48915
3.49013
3.49077
3.49159
3.49212
3.4928
3.49323
3.49376
3.49408
3.49444
3.49471
3.49508
3.49535
3.49571
3.49595
3.49628
3.49649
3.49678
3.49697
3.49722
3.49738
3.49759
3.49772
3.49788
3.49796
3.498
3.49791
3.49755
3.49672
3.49444
3.49072
3.48692
3.47964
3.47219
3.45904
3.45375
3.45222
3.45183
3.45174
3.29409
3.32127
3.33967
3.35978
3.3719
3.3853
3.3937
3.4035
3.4097
3.41694
3.42133
3.42622
3.42977
3.4347
3.43822
3.44289
3.44615
3.45036
3.45326
3.45698
3.45952
3.46277
3.46499
3.46782
3.46975
3.47224
3.47397
3.47627
3.47809
3.48089
3.48351
3.48497
3.4865
3.48747
3.48863
3.4894
3.49036
3.491
3.49181
3.49235
3.49304
3.4935
3.49407
3.49446
3.49495
3.49527
3.49568
3.49594
3.49625
3.49645
3.49666
3.49682
3.49705
3.49721
3.49742
3.49757
3.49776
3.4979
3.49807
3.49818
3.49833
3.49843
3.49855
3.49864
3.49873
3.49877
3.4988
3.49874
3.49852
3.49801
3.49664
3.49443
3.4921
3.48778
3.48323
3.47554
3.47231
3.47135
3.4711
3.47105
3.43148
3.44039
3.44656
3.45323
3.45731
3.46174
3.46457
3.46782
3.46991
3.4723
3.47378
3.4754
3.4766
3.47823
3.47941
3.48096
3.48205
3.48345
3.48442
3.48565
3.48651
3.48759
3.48833
3.48927
3.48992
3.49074
3.49133
3.49209
3.4927
3.49363
3.4945
3.49499
3.4955
3.49582
3.49621
3.49647
3.49678
3.497
3.49727
3.49745
3.49768
3.49783
3.49802
3.49815
3.49832
3.49842
3.49856
3.49865
3.49875
3.49882
3.49889
3.49894
3.49902
3.49907
3.49914
3.49919
3.49925
3.4993
3.49936
3.49939
3.49944
3.49948
3.49952
3.49955
3.49958
3.49959
3.4996
3.49958
3.49951
3.49933
3.49888
3.49814
3.49736
3.49592
3.4944
3.49187
3.49078
3.49045
3.49037
3.49035
3.43196
3.44029
3.44563
3.45067
3.45341
3.45591
3.45731
3.45866
3.45942
3.46016
3.46068
3.46135
3.46183
3.46245
3.46289
3.46345
3.46384
3.46434
3.46469
3.46513
3.46545
3.46584
3.46612
3.46646
3.46671
3.46701
3.46723
3.46751
3.46774
3.46808
3.46839
3.46856
3.46874
3.46885
3.46898
3.46906
3.46916
3.46923
3.46931
3.46937
3.46944
3.46948
3.46954
3.46957
3.46962
3.46965
3.46968
3.4697
3.46973
3.46974
3.46976
3.46977
3.46979
3.4698
3.46981
3.46982
3.46982
3.46983
3.46982
3.46982
3.46981
3.46979
3.46976
3.46973
3.46966
3.46959
3.46946
3.46931
3.46898
3.46851
3.46746
3.46599
3.46467
3.4625
3.4604
3.45711
3.45571
3.45528
3.45517
3.45515
3.29555
3.32099
3.33691
3.3521
3.36023
3.36778
3.37194
3.37601
3.37826
3.38049
3.38202
3.38406
3.38549
3.38736
3.38866
3.39034
3.39151
3.39302
3.39406
3.39541
3.39634
3.39753
3.39835
3.3994
3.40012
3.40104
3.40169
3.40254
3.40321
3.40423
3.40517
3.40569
3.40622
3.40655
3.40693
3.40718
3.40749
3.40769
3.40794
3.4081
3.40831
3.40844
3.40861
3.40871
3.40885
3.40894
3.40904
3.40911
3.40919
3.40923
3.40928
3.40932
3.40936
3.40939
3.40943
3.40945
3.40947
3.40948
3.40947
3.40946
3.40942
3.40937
3.40928
3.40918
3.40899
3.40878
3.40839
3.40792
3.40696
3.40556
3.40239
3.39798
3.39405
3.38748
3.38124
3.37126
3.36708
3.36584
3.36552
3.36545
3.15811
3.20208
3.22822
3.25381
3.26708
3.27979
3.28657
3.29343
3.2971
3.30085
3.30335
3.30679
3.30913
3.31229
3.31442
3.31726
3.31917
3.32172
3.32343
3.3257
3.32722
3.32923
3.33057
3.33234
3.33352
3.33509
3.33614
3.33758
3.33867
3.34039
3.34197
3.34282
3.3437
3.34424
3.34489
3.3453
3.34582
3.34615
3.34657
3.34684
3.34718
3.3474
3.34768
3.34786
3.34808
3.34822
3.3484
3.34851
3.34864
3.34872
3.3488
3.34886
3.34894
3.34899
3.34905
3.34908
3.34912
3.34913
3.34912
3.34909
3.34903
3.34895
3.3488
3.34863
3.34831
3.34798
3.34732
3.34656
3.34495
3.34268
3.33737
3.32994
3.32353
3.31246
3.30223
3.28517
3.27833
3.27636
3.27586
3.27574
3.01892
3.08387
3.11955
3.15602
3.17395
3.19203
3.20119
3.21097
3.21593
3.22125
3.22463
3.22957
3.23274
3.23726
3.24014
3.24422
3.2468
3.25046
3.25277
3.25602
3.25808
3.26096
3.26277
3.26531
3.26691
3.26915
3.27057
3.27263
3.27411
3.27655
3.2788
3.27994
3.2812
3.28193
3.28286
3.28342
3.28416
3.28461
3.28521
3.28557
3.28606
3.28636
3.28676
3.287
3.28732
3.28751
3.28777
3.28792
3.2881
3.28821
3.28833
3.28841
3.28852
3.28858
3.28867
3.28872
3.28876
3.28878
3.28877
3.28873
3.28864
3.28854
3.28832
3.28809
3.28764
3.28718
3.28625
3.28523
3.28297
3.27992
3.27243
3.26186
3.2532
3.2374
3.22349
3.19868
3.18939
3.18682
3.18618
3.18603
2.87713
2.96684
3.01084
3.05897
3.08082
3.10463
3.11579
3.12871
3.13475
3.14174
3.14586
3.15242
3.15629
3.1623
3.16582
3.17124
3.17439
3.17925
3.18207
3.18639
3.1889
3.19273
3.19495
3.19832
3.20027
3.20324
3.20498
3.2077
3.2095
3.21272
3.21568
3.21706
3.21873
3.21961
3.22085
3.22153
3.22251
3.22306
3.22385
3.2243
3.22495
3.22531
3.22584
3.22613
3.22656
3.2268
3.22714
3.22732
3.22757
3.22769
3.22785
3.22795
3.2281
3.22818
3.22829
3.22835
3.22841
3.22843
3.22842
3.22838
3.22826
3.22813
3.22783
3.22756
3.22696
3.22641
3.22518
3.22395
3.22102
3.21734
3.20761
3.19371
3.18315
3.16227
3.1452
3.11156
3.10018
3.0972
3.09648
3.09631
2.73176
2.85163
2.90198
2.96297
2.9876
3.01773
3.03032
3.04672
3.05354
3.06233
3.06699
3.07537
3.07976
3.08744
3.09142
3.09834
3.10192
3.10812
3.11131
3.11684
3.11968
3.12457
3.12708
3.13139
3.13359
3.13738
3.13936
3.14282
3.14484
3.1489
3.15262
3.15417
3.15628
3.15728
3.15885
3.15962
3.16088
3.1615
3.16251
3.16302
3.16385
3.16426
3.16493
3.16527
3.16581
3.16608
3.16651
3.16672
3.16704
3.16718
3.16738
3.16749
3.16768
3.16777
3.16792
3.16798
3.16806
3.16808
3.16807
3.16802
3.16787
3.16773
3.16735
3.16705
3.16629
3.16567
3.16412
3.16274
3.1591
3.155
3.14297
3.12542
3.11352
3.08698
3.06756
3.02355
3.01063
3.00749
3.00675
3.00659
2.58158
2.73921
2.79268
2.86842
2.89417
2.93153
2.9447
2.96512
2.97224
2.9831
2.98797
2.99849
3.00309
3.01273
3.01691
3.02558
3.02934
3.03711
3.04046
3.04739
3.05037
3.0565
3.05914
3.06454
3.06685
3.0716
3.07367
3.07798
3.0801
3.0851
3.08964
3.09126
3.09388
3.09492
3.09689
3.0977
3.09927
3.09992
3.10119
3.10172
3.10276
3.10319
3.10404
3.10439
3.10507
3.10535
3.10589
3.10611
3.10651
3.10666
3.10691
3.10702
3.10726
3.10736
3.10755
3.10761
3.10772
3.10774
3.10772
3.10767
3.10748
3.10733
3.10687
3.10655
3.10561
3.10496
3.10305
3.10161
3.0972
3.09298
3.07854
3.0569
3.04447
3.01141
2.99091
2.93431
2.92069
2.91769
2.91701
2.91686
2.42511
2.63095
2.6825
2.77587
2.80027
2.84631
2.85879
2.88405
2.8908
2.9041
2.90872
2.92184
2.92622
2.93824
2.94221
2.95302
2.95659
2.96627
2.96946
2.9781
2.98093
2.98858
2.99108
2.99781
3.00001
3.00592
3.00789
3.01324
3.01524
3.02131
3.02678
3.0283
3.03154
3.03253
3.03498
3.03575
3.0377
3.03832
3.0399
3.04041
3.0417
3.04211
3.04317
3.0435
3.04435
3.04462
3.04529
3.0455
3.046
3.04614
3.04645
3.04656
3.04686
3.04695
3.04718
3.04725
3.04737
3.04739
3.04737
3.04733
3.04709
3.04695
3.04638
3.04607
3.04491
3.0443
3.04196
3.04061
3.0353
3.03137
3.0144
2.98802
2.97625
2.93533
2.9157
2.84334
2.83033
2.82779
2.82724
2.82712
2.2604
2.52886
2.57064
2.68608
2.70551
2.76242
2.77236
2.80372
2.80909
2.82545
2.82913
2.84554
2.84905
2.86406
2.86725
2.88075
2.88361
2.8957
2.89825
2.90904
2.9113
2.92086
2.92286
2.93126
2.93302
2.9404
2.94197
2.94863
2.95021
2.95755
2.96408
2.96528
2.96929
2.97008
2.97313
2.97374
2.97618
2.97668
2.97866
2.97906
2.98068
2.981
2.98232
2.98259
2.98365
2.98387
2.98471
2.98487
2.9855
2.98561
2.98599
2.98608
2.98646
2.98653
2.98682
2.98687
2.98704
2.98705
2.98703
2.98699
2.9867
2.98659
2.98588
2.98564
2.9842
2.98371
2.98083
2.97977
2.97333
2.97028
2.95064
2.91855
2.9092
2.8584
2.8426
2.74999
2.73955
2.73782
2.73746
2.73738
2.08495
2.43584
2.45584
2.60014
2.60924
2.68042
2.68508
2.72443
2.72695
2.74731
2.74904
2.76976
2.77142
2.79036
2.79186
2.8089
2.81025
2.82551
2.82671
2.84032
2.84139
2.85344
2.85438
2.86498
2.86581
2.87512
2.87586
2.88422
2.88496
2.89382
2.90159
2.90215
2.90717
2.90754
2.91138
2.91167
2.91474
2.91498
2.91748
2.91766
2.9197
2.91986
2.92152
2.92164
2.92299
2.92309
2.92415
2.92423
2.92502
2.92507
2.92555
2.92559
2.92607
2.9261
2.92647
2.9265
2.9267
2.92671
2.92668
2.92667
2.9263
2.92625
2.92536
2.92524
2.92344
2.92322
2.91963
2.91913
2.91123
2.90985
2.88738
2.84817
2.8438
2.78008
2.77257
2.65336
2.64842
2.64779
2.64766
2.64764
)
;

boundaryField
{
    F1_1
    {
        type            fixedValue;
        value           nonuniform List<scalar> 
80
(
1.99044
2.39646
2.39646
2.56097
2.56097
2.64311
2.64311
2.6907
2.6907
2.72086
2.72086
2.73823
2.73823
2.75728
2.75728
2.77545
2.77545
2.79216
2.79216
2.80726
2.80726
2.82074
2.82074
2.83265
2.83265
2.84313
2.84313
2.85255
2.85255
2.86226
2.8707
2.8707
2.87637
2.87637
2.88071
2.88071
2.88419
2.88419
2.88702
2.88702
2.88932
2.88932
2.89121
2.89121
2.89273
2.89273
2.89393
2.89393
2.89483
2.89483
2.89537
2.89537
2.89591
2.89591
2.89632
2.89632
2.89656
2.89656
2.89652
2.89652
2.89611
2.89611
2.89509
2.89509
2.89304
2.89304
2.88897
2.88897
2.88006
2.88006
2.85609
2.81229
2.81229
2.73979
2.73979
2.60276
2.60276
2.60276
2.60276
2.60276
)
;
    }
    F1_2
    {
        type            fixedValue;
        value           nonuniform List<scalar> 
80
(
1.97177
2.39777
2.39777
2.62223
2.62223
2.77206
2.77206
2.88358
2.88358
2.96715
2.96715
3.0194
3.0194
3.07705
3.07705
3.1313
3.1313
3.17999
3.17999
3.22285
3.22285
3.26024
3.26024
3.29277
3.29277
3.3212
3.3212
3.34682
3.34682
3.37361
3.39744
3.39744
3.41405
3.41405
3.42726
3.42726
3.43824
3.43824
3.44751
3.44751
3.45536
3.45536
3.46201
3.46201
3.46761
3.46761
3.47226
3.47226
3.47592
3.47592
3.47826
3.47826
3.48088
3.48088
3.48336
3.48336
3.48559
3.48559
3.48756
3.48756
3.48926
3.48926
3.4907
3.4907
3.49183
3.49183
3.49234
3.49234
3.49097
3.49097
3.48221
3.46036
3.46036
3.41359
3.41359
3.30682
3.30682
3.30682
3.30682
3.30682
)
;
    }
    F1_3
    {
        type            fixedValue;
        value           nonuniform List<scalar> 
80
(
1.97177
2.39777
2.39777
2.62223
2.62223
2.77206
2.77206
2.88358
2.88358
2.96715
2.96715
3.0194
3.0194
3.07705
3.07705
3.1313
3.1313
3.17999
3.17999
3.22285
3.22285
3.26024
3.26024
3.29277
3.29277
3.3212
3.3212
3.34682
3.34682
3.37361
3.39744
3.39744
3.41405
3.41405
3.42726
3.42726
3.43824
3.43824
3.4475
3.4475
3.45536
3.45536
3.46201
3.46201
3.46761
3.46761
3.47226
3.47226
3.47592
3.47592
3.47826
3.47826
3.48088
3.48088
3.48336
3.48336
3.48559
3.48559
3.48756
3.48756
3.48926
3.48926
3.4907
3.4907
3.49183
3.49183
3.49234
3.49234
3.49097
3.49097
3.48221
3.46036
3.46036
3.41359
3.41359
3.30682
3.30682
3.30682
3.30682
3.30682
)
;
    }
    F1_4
    {
        type            fixedValue;
        value           nonuniform List<scalar> 
80
(
1.9902
2.39595
2.39595
2.55987
2.55987
2.64075
2.64075
2.68552
2.68552
2.70861
2.70861
2.73225
2.73225
2.75386
2.75386
2.77329
2.77329
2.79069
2.79069
2.80621
2.80621
2.81995
2.81995
2.83204
2.83204
2.84265
2.84265
2.85217
2.85217
2.86198
2.87049
2.87049
2.8762
2.8762
2.88058
2.88058
2.88408
2.88408
2.88693
2.88693
2.88925
2.88925
2.89115
2.89115
2.89268
2.89268
2.89389
2.89389
2.8948
2.8948
2.89534
2.89534
2.89588
2.89588
2.89631
2.89631
2.89654
2.89654
2.89651
2.89651
2.8961
2.8961
2.89508
2.89508
2.89304
2.89304
2.88897
2.88897
2.88005
2.88005
2.85609
2.81229
2.81229
2.73979
2.73979
2.60276
2.60276
2.60276
2.60276
2.60276
)
;
    }
    F2_1
    {
        type            fixedValue;
        value           uniform 3.5;
    }
    F2_2
    {
        type            fixedValue;
        value           uniform 3.5;
    }
    F2_3
    {
        type            fixedValue;
        value           uniform 3.5;
    }
    F2_4
    {
        type            fixedValue;
        value           uniform 3.5;
    }
    defaultFaces
    {
        type            empty;
    }
}


// ************************************************************************* //
