/*--------------------------------*- C++ -*----------------------------------*\
| =========                 |                                                 |
| \\      /  F ield         | OpenFOAM: The Open Source CFD Toolbox           |
|  \\    /   O peration     | Version:  5.x                                   |
|   \\  /    A nd           | Web:      www.OpenFOAM.org                      |
|    \\/     M anipulation  |                                                 |
\*---------------------------------------------------------------------------*/
FoamFile
{
    version     2.0;
    format      ascii;
    class       volScalarField;
    location    "10.3";
    object      gradTy;
}
// * * * * * * * * * * * * * * * * * * * * * * * * * * * * * * * * * * * * * //

dimensions      [0 -1 0 1 0 0 0];

internalField   nonuniform List<scalar> 
2048
(
-26.4236
-26.396
-26.3417
-26.262
-26.1592
-26.0358
-25.8945
-25.7383
-25.5697
-25.3915
-25.206
-25.0154
-24.8215
-24.6262
-24.4308
-24.2368
-24.0452
-23.8569
-23.6727
-23.4931
-23.3187
-23.1498
-22.9866
-22.8294
-22.6783
-22.5337
-22.3959
-22.265
-22.1417
-22.0262
-21.9192
-21.8213
-21.7333
-21.656
-21.5902
-21.5372
-21.4979
-21.4735
-21.4653
-21.4744
-21.5022
-21.55
-21.6189
-21.71
-21.8244
-21.9628
-22.1256
-22.3128
-22.5236
-22.7566
-23.0096
-23.2793
-23.5613
-23.8504
-24.1406
-24.4252
-24.6976
-24.9511
-25.1796
-25.3777
-25.5412
-25.6666
-25.7515
-25.7943
-26.446
-26.4177
-26.3621
-26.2807
-26.1759
-26.0502
-25.9067
-25.7482
-25.5775
-25.3974
-25.2102
-25.018
-24.8227
-24.6262
-24.4298
-24.2348
-24.0424
-23.8536
-23.6689
-23.489
-23.3143
-23.1452
-22.9818
-22.8244
-22.6731
-22.5283
-22.3902
-22.259
-22.1353
-22.0194
-21.9119
-21.8134
-21.7247
-21.6466
-21.58
-21.5261
-21.4858
-21.4605
-21.4512
-21.4593
-21.4861
-21.5329
-21.6008
-21.6912
-21.805
-21.9431
-22.106
-22.2936
-22.5056
-22.7405
-22.9962
-23.2693
-23.5555
-23.8495
-24.145
-24.4352
-24.7129
-24.9713
-25.2041
-25.4058
-25.572
-25.6994
-25.7855
-25.829
-26.4887
-26.4592
-26.4011
-26.3164
-26.2076
-26.0776
-25.9297
-25.7669
-25.5922
-25.4084
-25.2179
-25.0228
-24.8249
-24.6261
-24.4277
-24.231
-24.0372
-23.8472
-23.6616
-23.4811
-23.3059
-23.1364
-22.9727
-22.8149
-22.6633
-22.518
-22.3794
-22.2477
-22.1232
-22.0065
-21.898
-21.7984
-21.7083
-21.6288
-21.5607
-21.505
-21.463
-21.4358
-21.4246
-21.4308
-21.4556
-21.5005
-21.5666
-21.6555
-21.7681
-21.9055
-22.0684
-22.257
-22.471
-22.7094
-22.9701
-23.2498
-23.5442
-23.8476
-24.1534
-24.4541
-24.7421
-25.01
-25.251
-25.4595
-25.6309
-25.7619
-25.8504
-25.895
-26.5499
-26.5185
-26.4569
-26.3672
-26.2525
-26.1162
-25.9619
-25.7929
-25.6126
-25.4236
-25.2284
-25.0292
-24.8277
-24.6257
-24.4245
-24.2254
-24.0296
-23.838
-23.6513
-23.4698
-23.294
-23.1239
-22.9598
-22.8016
-22.6495
-22.5037
-22.3643
-22.2318
-22.1063
-21.9884
-21.8785
-21.7773
-21.6855
-21.6039
-21.5336
-21.4755
-21.4309
-21.401
-21.3871
-21.3905
-21.4126
-21.4547
-21.5183
-21.6048
-21.7156
-21.8519
-22.0146
-22.2043
-22.4212
-22.6643
-22.9319
-23.221
-23.5271
-23.8441
-24.1648
-24.481
-24.784
-25.0656
-25.3184
-25.5364
-25.715
-25.8512
-25.9428
-25.9889
-26.6283
-26.5944
-26.5279
-26.4317
-26.3092
-26.1646
-26.0019
-25.8251
-25.6375
-25.4421
-25.2412
-25.0368
-24.8308
-24.6247
-24.42
-24.218
-24.0197
-23.8262
-23.638
-23.4555
-23.2789
-23.1083
-22.9437
-22.785
-22.6323
-22.4858
-22.3456
-22.212
-22.0854
-21.9661
-21.8545
-21.7513
-21.6572
-21.573
-21.4998
-21.4388
-21.391
-21.3577
-21.3404
-21.3402
-21.3587
-21.3973
-21.4576
-21.541
-21.6493
-21.7839
-21.9461
-22.1369
-22.3568
-22.6056
-22.8819
-23.1828
-23.5038
-23.8385
-24.1787
-24.515
-24.8376
-25.137
-25.4049
-25.6349
-25.8224
-25.9647
-26.06
-26.1079
-26.7229
-26.6857
-26.6131
-26.5084
-26.3762
-26.2213
-26.0484
-25.8621
-25.6659
-25.4629
-25.2553
-25.045
-24.8338
-24.623
-24.4142
-24.2087
-24.0076
-23.8118
-23.6219
-23.4384
-23.2611
-23.0899
-22.9248
-22.7657
-22.6123
-22.465
-22.3239
-22.1892
-22.0612
-21.9402
-21.8266
-21.7211
-21.6243
-21.5371
-21.4606
-21.3959
-21.3443
-21.3071
-21.2857
-21.2813
-21.2955
-21.3299
-21.386
-21.4657
-21.5707
-21.7029
-21.864
-22.0556
-22.2787
-22.5337
-22.8199
-23.1347
-23.4737
-23.8299
-24.1942
-24.5555
-24.9023
-25.2234
-25.5095
-25.7536
-25.9513
-26.1003
-26.1996
-26.2493
-26.8331
-26.7917
-26.7114
-26.5965
-26.4523
-26.2849
-26.1001
-25.9027
-25.6968
-25.4852
-25.2702
-25.0535
-24.8364
-24.6204
-24.407
-24.1975
-23.9931
-23.7949
-23.6033
-23.4187
-23.2407
-23.0692
-22.9037
-22.744
-22.5901
-22.4419
-22.2997
-22.1638
-22.0343
-21.9115
-21.7958
-21.6876
-21.5878
-21.4971
-21.4168
-21.348
-21.2921
-21.2504
-21.2243
-21.2151
-21.2245
-21.2539
-21.3052
-21.3802
-21.4812
-21.6102
-21.7694
-21.9611
-22.187
-22.4485
-22.7454
-23.076
-23.4359
-23.8175
-24.2105
-24.6019
-24.9777
-25.3245
-25.6317
-25.8916
-26.1003
-26.2562
-26.3594
-26.4108
-26.9583
-26.912
-26.8223
-26.6947
-26.5363
-26.3543
-26.1556
-25.9457
-25.729
-25.5083
-25.2854
-25.0617
-24.8383
-24.6167
-24.3982
-24.1842
-23.9763
-23.7755
-23.5822
-23.3966
-23.2181
-23.0464
-22.8807
-22.7206
-22.566
-22.4169
-22.2736
-22.1363
-22.0053
-21.8806
-21.7626
-21.6516
-21.5484
-21.4539
-21.3693
-21.296
-21.2353
-21.1886
-21.1574
-21.1429
-21.1468
-21.1706
-21.2163
-21.286
-21.382
-21.5068
-21.6633
-21.8542
-22.0823
-22.3499
-22.658
-23.0058
-23.3891
-23.8002
-24.227
-24.6538
-25.0637
-25.4404
-25.7713
-26.0484
-26.2682
-26.4307
-26.5374
-26.5901
-27.0986
-27.0461
-26.945
-26.8023
-26.627
-26.428
-26.2135
-25.9899
-25.7616
-25.5312
-25.3002
-25.0693
-24.8395
-24.6118
-24.3877
-24.1689
-23.9572
-23.7536
-23.5586
-23.3722
-23.1936
-23.0219
-22.8562
-22.6957
-22.5404
-22.3904
-22.2459
-22.1073
-21.9747
-21.8482
-21.7277
-21.6137
-21.5068
-21.4081
-21.3189
-21.2406
-21.1747
-21.1227
-21.086
-21.0658
-21.0637
-21.0813
-21.1208
-21.1843
-21.2744
-21.394
-21.5466
-21.7355
-21.9647
-22.2376
-22.5569
-22.9229
-23.3323
-23.7768
-24.2426
-24.711
-25.1606
-25.5715
-25.9286
-26.2236
-26.4542
-26.6223
-26.7313
-26.7849
-27.2539
-27.194
-27.0791
-26.9185
-26.7233
-26.5048
-26.2727
-26.0341
-25.7937
-25.5535
-25.3143
-25.0763
-24.8397
-24.6056
-24.3755
-24.1515
-23.9356
-23.7291
-23.5326
-23.3458
-23.1674
-22.9961
-22.8305
-22.6699
-22.5139
-22.3628
-22.2171
-22.0772
-21.9431
-21.8146
-21.6917
-21.5746
-21.4638
-21.3605
-21.2662
-21.1826
-21.1112
-21.0536
-21.0109
-20.9847
-20.9762
-20.9872
-21.0197
-21.0762
-21.1595
-21.2729
-21.4202
-21.6058
-21.8346
-22.1116
-22.4414
-22.8261
-23.2637
-23.7458
-24.2566
-24.7732
-25.2689
-25.7185
-26.104
-26.4171
-26.6573
-26.8293
-26.9393
-26.9928
-27.4246
-27.3556
-27.2243
-27.0423
-26.824
-26.5833
-26.3317
-26.0771
-25.8242
-25.5745
-25.3274
-25.0824
-24.839
-24.5981
-24.3616
-24.1318
-23.9114
-23.7021
-23.5042
-23.3173
-23.1397
-22.9693
-22.8042
-22.6434
-22.4867
-22.3344
-22.1874
-22.0462
-21.9107
-21.7805
-21.6552
-21.5348
-21.4198
-21.3116
-21.2119
-21.1226
-21.0454
-20.9818
-20.9331
-20.9005
-20.8853
-20.8891
-20.9141
-20.9629
-21.0385
-21.1445
-21.2852
-21.4658
-21.6923
-21.9717
-22.3107
-22.7141
-23.1818
-23.7057
-24.2679
-24.8405
-25.3894
-25.8826
-26.2986
-26.6291
-26.8768
-27.0502
-27.1591
-27.2115
-27.6111
-27.5312
-27.3802
-27.1731
-26.9279
-26.6621
-26.389
-26.1177
-25.8524
-25.5936
-25.3393
-25.0876
-24.8375
-24.5896
-24.346
-24.1099
-23.8846
-23.6723
-23.4734
-23.287
-23.1108
-22.9418
-22.7776
-22.6168
-22.4592
-22.3055
-22.157
-22.0146
-21.8779
-21.7462
-21.6186
-21.4948
-21.3755
-21.262
-21.1565
-21.0611
-20.9779
-20.9082
-20.8533
-20.8142
-20.7919
-20.7882
-20.8051
-20.8454
-20.9125
-21.01
-21.1427
-21.3163
-21.5384
-21.8177
-22.164
-22.5853
-23.0845
-23.6544
-24.2752
-24.9128
-25.5234
-26.0657
-26.5134
-26.8597
-27.1117
-27.2832
-27.3885
-27.4383
-27.814
-27.7212
-27.5467
-27.3098
-27.0337
-26.7397
-26.4434
-26.1547
-25.8774
-25.6104
-25.3499
-25.0921
-24.8354
-24.58
-24.3287
-24.0856
-23.855
-23.6396
-23.44
-23.2549
-23.0809
-22.9141
-22.7511
-22.5902
-22.4316
-22.2763
-22.1262
-21.9825
-21.845
-21.7122
-21.5824
-21.4553
-21.3313
-21.2121
-21.1003
-20.9986
-20.9091
-20.8332
-20.7721
-20.7264
-20.6969
-20.6852
-20.6936
-20.7249
-20.7826
-20.8705
-20.9937
-21.1585
-21.3735
-21.6497
-22.0005
-22.4382
-22.9696
-23.5897
-24.277
-24.9903
-25.6727
-26.2698
-26.7502
-27.1093
-27.3612
-27.5266
-27.625
-27.6706
-28.0343
-27.9258
-27.7234
-27.4517
-27.1399
-26.8145
-26.4934
-26.1869
-25.8984
-25.6247
-25.3592
-25.0962
-24.8329
-24.5698
-24.3099
-24.0588
-23.8224
-23.6039
-23.404
-23.221
-23.0503
-22.8865
-22.725
-22.5643
-22.4043
-22.2468
-22.0948
-21.9501
-21.8123
-21.6787
-21.5471
-21.4165
-21.2876
-21.1623
-21.0437
-20.9353
-20.8394
-20.7573
-20.69
-20.6378
-20.6011
-20.5811
-20.5804
-20.6021
-20.6497
-20.7272
-20.8394
-20.9933
-21.1985
-21.4681
-21.8196
-22.2711
-22.8348
-23.509
-24.2715
-25.0731
-25.8394
-26.4979
-27.0107
-27.3783
-27.6243
-27.7783
-27.8662
-27.9057
-28.273
-28.1457
-27.9104
-27.5977
-27.2451
-26.885
-26.5374
-26.213
-25.9147
-25.6362
-25.3675
-25.1001
-24.8305
-24.5592
-24.2895
-24.0294
-23.7867
-23.565
-23.3652
-23.1854
-23.0192
-22.8594
-22.7
-22.5392
-22.3775
-22.2173
-22.0628
-21.9174
-21.7798
-21.6462
-21.513
-21.379
-21.245
-21.1129
-20.987
-20.8716
-20.7692
-20.681
-20.6077
-20.5491
-20.505
-20.4766
-20.4664
-20.478
-20.515
-20.5811
-20.6811
-20.8221
-21.0145
-21.2733
-21.6209
-22.0823
-22.6774
-23.4091
-24.2562
-25.1613
-26.0265
-26.7536
-27.2973
-27.667
-27.8996
-28.0361
-28.1093
-28.1407
-28.5312
-28.3815
-28.1074
-27.7468
-27.3475
-26.9495
-26.574
-26.2319
-25.9256
-25.6449
-25.3752
-25.1043
-24.8286
-24.5487
-24.2679
-23.9971
-23.7475
-23.5226
-23.3235
-23.148
-22.9881
-22.8334
-22.6764
-22.5154
-22.3516
-22.1877
-22.0302
-21.8843
-21.7478
-21.615
-21.4805
-21.3431
-21.2037
-21.0642
-20.9303
-20.8077
-20.6986
-20.6044
-20.5254
-20.4608
-20.4095
-20.3724
-20.3522
-20.3533
-20.3793
-20.4334
-20.5199
-20.6463
-20.8227
-21.066
-21.404
-21.8703
-22.4946
-23.2864
-24.2279
-25.2551
-26.238
-27.0413
-27.6124
-27.9753
-28.1857
-28.2977
-28.3518
-28.373
-28.8104
-28.6339
-28.3144
-27.8979
-27.4452
-27.0064
-26.6018
-26.2423
-25.9305
-25.6508
-25.3828
-25.1093
-24.8276
-24.5388
-24.245
-23.9617
-23.7047
-23.4765
-23.2784
-23.109
-22.9571
-22.8091
-22.6546
-22.4932
-22.3268
-22.1579
-21.9964
-21.8505
-21.7164
-21.5856
-21.4501
-21.3092
-21.1642
-21.0164
-20.8736
-20.7435
-20.628
-20.5279
-20.4437
-20.3734
-20.3151
-20.269
-20.2385
-20.2286
-20.2434
-20.2851
-20.3572
-20.4673
-20.6249
-20.8473
-21.1688
-21.6336
-22.2838
-23.1369
-24.1825
-25.3544
-26.4789
-27.3664
-27.9586
-28.3032
-28.4805
-28.5604
-28.5908
-28.5998
-29.1122
-28.9034
-28.5315
-28.0494
-27.5359
-27.0542
-26.6195
-26.2428
-25.9288
-25.6542
-25.3911
-25.1157
-24.8281
-24.5303
-24.221
-23.9226
-23.658
-23.4265
-23.2297
-23.0683
-22.9266
-22.787
-22.6352
-22.4729
-22.3036
-22.128
-21.9611
-21.8159
-21.6858
-21.5583
-21.422
-21.2776
-21.127
-20.9697
-20.8168
-20.6794
-20.5574
-20.4515
-20.3628
-20.2875
-20.2224
-20.167
-20.1256
-20.1045
-20.1081
-20.1373
-20.194
-20.2867
-20.423
-20.6185
-20.9156
-21.3706
-22.0421
-22.956
-24.1143
-25.4587
-26.7559
-27.7355
-28.3384
-28.6497
-28.7817
-28.8214
-28.8237
-28.8184
-29.4384
-29.1906
-28.7591
-28.2001
-27.6169
-27.0913
-26.626
-26.2321
-25.9201
-25.6553
-25.4012
-25.1241
-24.8303
-24.5243
-24.1961
-23.8792
-23.6074
-23.3724
-23.1767
-23.0257
-22.8971
-22.7681
-22.6185
-22.4547
-22.2826
-22.0978
-21.9234
-21.7801
-21.6559
-21.5338
-21.3967
-21.2485
-21.0926
-20.9243
-20.7598
-20.6152
-20.4869
-20.3754
-20.283
-20.2034
-20.132
-20.0669
-20.014
-19.9814
-19.9741
-19.991
-20.0314
-20.1061
-20.2191
-20.3814
-20.645
-21.08
-21.7674
-22.7389
-24.0157
-25.5671
-27.0778
-28.1562
-28.7543
-29.0135
-29.0864
-29.0779
-29.0478
-29.0266
-29.7912
-29.4956
-28.9977
-28.3482
-27.685
-27.117
-26.6205
-26.2083
-25.904
-25.6547
-25.4147
-25.1348
-24.8345
-24.5222
-24.1704
-23.8302
-23.553
-23.3142
-23.1186
-22.9813
-22.869
-22.7534
-22.6048
-22.4388
-22.2645
-22.0672
-21.8823
-21.7427
-21.6271
-21.5128
-21.3742
-21.222
-21.0617
-20.8802
-20.7019
-20.5511
-20.4168
-20.2995
-20.2046
-20.1217
-20.0445
-19.9691
-19.9039
-19.8594
-19.8419
-19.8472
-19.8703
-19.927
-20.0159
-20.1378
-20.3579
-20.7605
-21.4577
-22.4811
-23.8763
-25.6774
-27.4567
-28.6376
-29.2078
-29.3923
-29.3914
-29.3267
-29.2608
-29.2223
-30.1732
-29.8178
-29.2487
-28.4919
-27.7358
-27.1307
-26.6024
-26.1694
-25.8803
-25.6526
-25.4335
-25.1482
-24.8403
-24.526
-24.144
-23.7739
-23.4952
-23.2521
-23.0544
-22.9351
-22.8426
-22.7443
-22.5943
-22.4248
-22.2506
-22.0362
-21.8362
-21.7033
-21.5993
-21.4963
-21.3548
-21.1978
-21.0354
-20.8375
-20.6425
-20.4874
-20.3471
-20.2234
-20.1278
-20.0426
-19.9606
-19.8741
-19.7956
-19.7387
-19.7121
-19.7069
-19.7111
-19.7508
-19.8166
-19.8901
-20.0558
-20.4105
-21.1124
-22.1786
-23.6821
-25.7864
-27.909
-29.1899
-29.6998
-29.7825
-29.6927
-29.565
-29.4603
-29.4036
-30.5874
-30.1555
-29.5146
-28.6294
-27.7637
-27.1331
-26.572
-26.1124
-25.8491
-25.6495
-25.4605
-25.1641
-24.8467
-24.539
-24.1172
-23.7075
-23.4349
-23.1863
-22.9821
-22.8873
-22.8181
-22.7427
-22.5871
-22.4121
-22.2428
-22.0044
-21.7829
-21.6616
-21.5726
-21.4859
-21.3383
-21.1755
-21.015
-20.7963
-20.5801
-20.4244
-20.2782
-20.1469
-20.0529
-19.9666
-19.8809
-19.7821
-19.689
-19.6191
-19.585
-19.5715
-19.554
-19.5788
-19.6248
-19.6403
-19.7407
-20.028
-20.7319
-21.8289
-23.4139
-25.8882
-28.457
-29.8242
-30.2293
-30.1796
-29.9862
-29.7897
-29.6445
-29.5692
-31.0379
-30.505
-29.7995
-28.7584
-27.7609
-27.1267
-26.5301
-26.0332
-25.8113
-25.6451
-25.4998
-25.182
-24.8517
-24.5657
-24.09
-23.6269
-23.3741
-23.1178
-22.8993
-22.8382
-22.7954
-22.7512
-22.5825
-22.3992
-22.2439
-21.972
-21.7193
-21.6177
-21.5468
-21.4835
-21.3246
-21.1539
-21.0028
-20.7566
-20.5129
-20.3629
-20.2104
-20.069
-19.9803
-19.8938
-19.8064
-19.6934
-19.5841
-19.5002
-19.4608
-19.4424
-19.3985
-19.4115
-19.4451
-19.3908
-19.4157
-19.6098
-20.3183
-21.4329
-23.0459
-25.9738
-29.132
-30.552
-30.793
-30.5776
-30.2674
-29.9982
-29.8118
-29.7181
-31.5301
-30.8592
-30.1106
-28.8767
-27.7166
-27.116
-26.4785
-25.9259
-25.7686
-25.6386
-25.5571
-25.2006
-24.8515
-24.6129
-24.0625
-23.5257
-23.3164
-23.048
-22.802
-22.7892
-22.774
-22.7737
-22.5799
-22.3838
-22.2584
-21.9387
-21.6412
-21.5722
-21.5212
-21.4923
-21.3128
-21.1311
-21.002
-20.7184
-20.438
-20.3044
-20.1443
-19.9885
-19.9106
-19.8243
-19.738
-19.6081
-19.4808
-19.3814
-19.3396
-19.3219
-19.2432
-19.2492
-19.2833
-19.143
-19.0853
-19.1505
-19.8759
-20.9965
-22.5431
-26.0295
-29.977
-31.3838
-31.385
-30.9694
-30.5317
-30.188
-29.9612
-29.8497
-32.0715
-31.2065
-30.4589
-28.9822
-27.6156
-27.1094
-26.42
-25.7818
-25.7248
-25.6273
-25.6408
-25.2176
-24.8398
-24.6907
-24.0349
-23.3946
-23.2672
-22.9788
-22.6845
-22.7426
-22.7519
-22.8154
-22.5777
-22.3616
-22.2926
-21.9046
-21.5426
-21.5268
-21.4945
-21.5164
-21.3018
-21.1038
-21.0175
-20.6815
-20.3509
-20.2511
-20.0806
-19.9034
-19.8448
-19.7578
-19.6772
-19.5263
-19.3792
-19.2618
-19.2211
-19.2129
-19.0858
-19.0911
-19.1468
-18.8973
-18.7561
-18.642
-19.4108
-20.5337
-21.8588
-26.0347
-31.0516
-32.3274
-31.9954
-31.3466
-30.7746
-30.3573
-30.0919
-29.9638
-32.6723
-31.5279
-30.862
-29.0725
-27.4365
-27.1205
-26.3591
-25.5883
-25.6866
-25.606
-25.7626
-25.2296
-24.8067
-24.8136
-24.0069
-23.22
-23.2355
-22.9131
-22.5384
-22.7025
-22.7257
-22.8843
-22.5736
-22.3265
-22.3558
-21.8694
-21.4151
-21.4848
-21.4639
-21.5622
-21.2897
-21.067
-21.0562
-20.6457
-20.2455
-20.2069
-20.0203
-19.8106
-19.7845
-19.6936
-19.6259
-19.4477
-19.2791
-19.14
-19.1048
-19.1202
-18.9227
-18.935
-19.0454
-18.6519
-18.4385
-18.0707
-18.9318
-20.0709
-20.9308
-25.9592
-32.4382
-33.385
-32.6101
-31.7
-30.992
-30.5045
-30.2036
-30.0605
-33.3475
-31.7937
-31.3459
-29.1454
-27.1496
-27.1698
-26.3016
-25.3269
-25.6656
-25.565
-25.9395
-25.2315
-24.7377
-25.0024
-23.9784
-22.9828
-23.2346
-22.8548
-22.3515
-22.6765
-22.689
-22.9912
-22.5641
-22.2687
-22.4614
-21.833
-21.2473
-21.4525
-21.4242
-21.6385
-21.2738
-21.0134
-21.1283
-20.6105
-20.113
-20.1776
-19.9647
-19.7057
-19.7326
-19.6303
-19.5864
-19.3717
-19.1807
-19.0145
-18.9891
-19.05
-18.7483
-18.7773
-18.9926
-18.4016
-18.1479
-17.4166
-18.4489
-19.6518
-19.6776
-25.7601
-34.2495
-34.5487
-33.2103
-32.0204
-31.1805
-30.6288
-30.2966
-30.1404
-34.1181
-31.9598
-31.9491
-29.1986
-26.7135
-27.2879
-26.255
-24.9717
-25.6805
-25.4878
-26.1955
-25.2162
-24.6109
-25.2861
-23.949
-22.656
-23.2843
-22.8089
-22.1064
-22.6765
-22.6307
-23.1519
-22.5445
-22.1744
-22.6282
-21.7948
-21.0234
-21.4402
-21.367
-21.758
-21.2504
-20.9321
-21.2478
-20.5754
-19.9412
-20.1717
-19.9152
-19.5825
-19.6932
-19.5651
-19.5623
-19.2971
-19.0847
-18.8831
-18.8715
-19.012
-18.555
-18.6116
-19.0067
-18.1353
-17.908
-16.6495
-17.9731
-19.3443
-17.9931
-25.3771
-36.6387
-35.7943
-33.7728
-32.2988
-31.3376
-30.73
-30.3712
-30.2041
-35.0135
-31.9619
-32.7266
-29.2299
-26.0722
-27.5183
-26.2286
-24.486
-25.7604
-25.3483
-26.5639
-25.1743
-24.3961
-25.705
-23.9175
-22.2026
-23.4125
-22.7816
-21.7787
-22.7214
-22.5336
-23.3883
-22.5085
-22.024
-22.8821
-21.7536
-20.7221
-21.4641
-21.2783
-21.938
-21.2141
-20.808
-21.4346
-20.5389
-19.7136
-20.2017
-19.8734
-19.4323
-19.673
-19.4936
-19.5586
-19.222
-18.992
-18.7434
-18.748
-19.0194
-18.3326
-18.4283
-19.1129
-17.8336
-17.7537
-15.7265
-17.5144
-19.2484
-15.7409
-24.7268
-39.8117
-37.0738
-34.2709
-32.5273
-31.4618
-30.8084
-30.4284
-30.2528
-36.0746
-31.7087
-33.7558
-29.2371
-25.1501
-27.9217
-26.2337
-23.8192
-25.9495
-25.1061
-27.0907
-25.0932
-24.0508
-26.3132
-23.8826
-21.573
-23.6583
-22.7804
-21.3348
-22.8398
-22.371
-23.7306
-22.4475
-21.7903
-23.258
-21.7078
-20.315
-21.5488
-21.137
-22.2028
-21.158
-20.6201
-21.7153
-20.4993
-19.4078
-20.285
-19.841
-19.2428
-19.6818
-19.4089
-19.5819
-19.143
-18.9046
-18.5929
-18.6121
-19.0906
-18.0674
-18.2137
-19.3462
-17.465
-17.7362
-14.5879
-17.0792
-19.5068
-12.7484
-23.6961
-44.0418
-38.304
-34.6765
-32.7002
-31.5527
-30.8649
-30.4693
-30.2874
-37.3573
-31.074
-35.1425
-29.2174
-23.8476
-28.5805
-26.2831
-22.9027
-26.3121
-24.7016
-27.8387
-24.957
-23.5181
-27.1825
-23.8418
-20.7012
-24.0747
-22.814
-20.7293
-23.0737
-22.1036
-24.2199
-22.3507
-21.4366
-23.8025
-21.6543
-19.7644
-21.7302
-20.9112
-22.5852
-21.0732
-20.3402
-22.1254
-20.4538
-18.9946
-20.4456
-19.8195
-18.998
-19.7338
-19.3006
-19.6418
-19.0553
-18.8253
-18.4285
-18.4539
-19.2507
-17.742
-17.9482
-19.754
-16.981
-17.9286
-13.1531
-16.6671
-20.3156
-8.79936
-22.1344
-49.6876
-39.3537
-34.963
-32.8144
-31.6113
-30.9009
-30.4952
-30.3093
-38.9367
-29.8874
-37.029
-29.1678
-22.0363
-29.6057
-26.3925
-21.6473
-26.9415
-24.0506
-28.8931
-24.7468
-22.7231
-28.4071
-23.793
-19.5055
-24.736
-22.8964
-19.9067
-23.4877
-21.6797
-24.9159
-22.206
-20.9143
-24.5763
-21.5922
-19.0302
-22.0682
-20.5645
-23.1383
-20.9534
-19.9342
-22.7142
-20.4002
-18.4382
-20.7174
-19.8113
-18.6769
-19.8492
-19.1542
-19.7513
-18.9526
-18.7605
-18.2492
-18.2606
-19.5334
-17.3349
-17.6052
-20.4018
-16.3112
-18.434
-11.3171
-16.2668
-21.9391
-3.62801
-19.8438
-57.2125
-40.0269
-35.1103
-32.8697
-31.639
-30.9177
-30.5071
-30.3192
)
;

boundaryField
{
    left
    {
        type            calculated;
        value           nonuniform List<scalar> 
32
(
-26.4236
-26.446
-26.4887
-26.5499
-26.6283
-26.7229
-26.8331
-26.9583
-27.0986
-27.2539
-27.4246
-27.6111
-27.814
-28.0343
-28.273
-28.5312
-28.8104
-29.1122
-29.4384
-29.7912
-30.1732
-30.5874
-31.0379
-31.5301
-32.0715
-32.6723
-33.3475
-34.1181
-35.0135
-36.0746
-37.3573
-38.9367
)
;
    }
    right
    {
        type            calculated;
        value           nonuniform List<scalar> 
32
(
-25.7943
-25.829
-25.895
-25.9889
-26.1079
-26.2493
-26.4108
-26.5901
-26.7849
-26.9928
-27.2115
-27.4383
-27.6706
-27.9057
-28.1407
-28.373
-28.5998
-28.8184
-29.0266
-29.2223
-29.4036
-29.5692
-29.7181
-29.8497
-29.9638
-30.0605
-30.1404
-30.2041
-30.2528
-30.2874
-30.3093
-30.3192
)
;
    }
    interface
    {
        type            calculated;
        value           nonuniform List<scalar> 
64
(
-39.8113
-29.1318
-38.1175
-29.1352
-20.9855
-30.2257
-26.4644
-20.9223
-27.3367
-23.6515
-29.5094
-24.6206
-22.2494
-29.1216
-23.7665
-18.8154
-25.1388
-22.9522
-19.4338
-23.7497
-21.4216
-25.3246
-22.1201
-20.6041
-25.029
-21.5593
-18.6124
-22.286
-20.3564
-23.4661
-20.8845
-19.695
-23.0606
-20.3712
-18.1193
-20.8862
-19.811
-18.4944
-19.9258
-19.0692
-19.8204
-18.8968
-18.7329
-18.1559
-18.1534
-19.7102
-17.108
-17.4106
-20.7953
-15.9195
-18.7801
-10.284
-16.0675
-22.9923
-0.700251
-18.4883
-61.5098
-40.2402
-35.1472
-32.8829
-31.6454
-30.9213
-30.5096
-30.3212
)
;
    }
    bottom
    {
        type            calculated;
        value           nonuniform List<scalar> 
64
(
-26.4178
-26.3904
-26.3363
-26.2571
-26.1549
-26.032
-25.8914
-25.7357
-25.5677
-25.3899
-25.2049
-25.0147
-24.8212
-24.6262
-24.4311
-24.2373
-24.0459
-23.8577
-23.6736
-23.4942
-23.3199
-23.151
-22.9879
-22.8307
-22.6797
-22.5352
-22.3974
-22.2666
-22.1434
-22.028
-21.9212
-21.8234
-21.7356
-21.6584
-21.5929
-21.5401
-21.501
-21.4769
-21.4689
-21.4784
-21.5064
-21.5544
-21.6236
-21.7149
-21.8295
-21.968
-22.1308
-22.3178
-22.5283
-22.7608
-23.0131
-23.2818
-23.5627
-23.8506
-24.1394
-24.4226
-24.6936
-24.9458
-25.1732
-25.3704
-25.5332
-25.6581
-25.7426
-25.7853
)
;
    }
    defaultFaces
    {
        type            empty;
    }
}


// ************************************************************************* //
