/*--------------------------------*- C++ -*----------------------------------*\
| =========                 |                                                 |
| \\      /  F ield         | OpenFOAM: The Open Source CFD Toolbox           |
|  \\    /   O peration     | Version:  5.x                                   |
|   \\  /    A nd           | Web:      www.OpenFOAM.org                      |
|    \\/     M anipulation  |                                                 |
\*---------------------------------------------------------------------------*/
FoamFile
{
    version     2.0;
    format      ascii;
    class       volScalarField;
    location    "7.9";
    object      T;
}
// * * * * * * * * * * * * * * * * * * * * * * * * * * * * * * * * * * * * * //

dimensions      [0 0 0 1 0 0 0];

internalField   nonuniform List<scalar> 
2048
(
9.81021
9.8104
9.81079
9.81136
9.8121
9.81298
9.81399
9.81511
9.81632
9.81759
9.81892
9.82029
9.82168
9.82308
9.82448
9.82587
9.82725
9.8286
9.82992
9.83121
9.83246
9.83368
9.83485
9.83598
9.83706
9.8381
9.83909
9.84003
9.84092
9.84174
9.84251
9.84321
9.84385
9.8444
9.84487
9.84525
9.84553
9.8457
9.84576
9.84569
9.84549
9.84515
9.84465
9.84399
9.84317
9.84218
9.84101
9.83966
9.83815
9.83648
9.83467
9.83274
9.83072
9.82865
9.82658
9.82454
9.82259
9.82078
9.81915
9.81773
9.81656
9.81567
9.81506
9.81475
9.43876
9.43935
9.4405
9.4422
9.44438
9.44701
9.45001
9.45334
9.45692
9.46071
9.46465
9.4687
9.47282
9.47697
9.48112
9.48525
9.48932
9.49332
9.49723
9.50105
9.50475
9.50834
9.5118
9.51514
9.51835
9.52142
9.52435
9.52713
9.52975
9.53221
9.53448
9.53656
9.53843
9.54007
9.54147
9.5426
9.54344
9.54396
9.54413
9.54394
9.54335
9.54234
9.54088
9.53894
9.53651
9.53357
9.53012
9.52614
9.52166
9.51671
9.51133
9.5056
9.4996
9.49345
9.48728
9.48122
9.47543
9.47004
9.46518
9.46096
9.45748
9.45482
9.45301
9.4521
9.08311
9.08408
9.086
9.08881
9.09242
9.09676
9.10172
9.10719
9.11309
9.11932
9.12579
9.13244
9.1392
9.14601
9.15281
9.15956
9.16622
9.17277
9.17917
9.1854
9.19146
9.19732
9.20298
9.20844
9.21368
9.2187
9.22349
9.22804
9.23233
9.23634
9.24006
9.24347
9.24654
9.24924
9.25154
9.25341
9.25479
9.25566
9.25597
9.25568
9.25474
9.25311
9.25075
9.24761
9.24365
9.23886
9.23321
9.22671
9.21937
9.21124
9.2024
9.19296
9.18308
9.17293
9.16273
9.15272
9.14314
9.13423
9.1262
9.11924
9.1135
9.1091
9.10612
9.10462
8.74234
8.74371
8.74639
8.75031
8.75536
8.7614
8.76829
8.77589
8.78407
8.79269
8.80164
8.81082
8.82014
8.82951
8.83888
8.84817
8.85734
8.86634
8.87513
8.88369
8.892
8.90004
8.90781
8.9153
8.92249
8.92938
8.93596
8.9422
8.94809
8.95362
8.95874
8.96344
8.96768
8.97141
8.9746
8.97719
8.97913
8.98036
8.98083
8.98048
8.97924
8.97704
8.97384
8.96957
8.96418
8.95763
8.94989
8.94095
8.93085
8.91963
8.9074
8.89431
8.88058
8.86646
8.85225
8.83829
8.82493
8.8125
8.8013
8.79161
8.78363
8.77752
8.77339
8.7713
8.41562
8.41738
8.42085
8.4259
8.4324
8.44016
8.449
8.45872
8.46915
8.48013
8.49151
8.50317
8.51499
8.52687
8.53873
8.55049
8.56207
8.57343
8.58453
8.59533
8.6058
8.61594
8.62573
8.63517
8.64423
8.65292
8.66121
8.66909
8.67653
8.68351
8.68999
8.69595
8.70132
8.70607
8.71014
8.71346
8.71597
8.71759
8.71825
8.71787
8.71638
8.71369
8.70972
8.7044
8.69767
8.68945
8.67971
8.66844
8.65565
8.64141
8.62584
8.60914
8.59156
8.57344
8.55519
8.53723
8.52004
8.50405
8.48967
8.47723
8.467
8.45918
8.4539
8.45125
8.10216
8.10434
8.10862
8.11485
8.12284
8.13236
8.14316
8.15501
8.16769
8.18101
8.19479
8.20888
8.22315
8.23748
8.25177
8.26592
8.27985
8.2935
8.30681
8.31976
8.33232
8.34446
8.35619
8.36749
8.37836
8.38877
8.39871
8.40817
8.41711
8.4255
8.4333
8.44048
8.44698
8.45274
8.45768
8.46174
8.46483
8.46686
8.46775
8.4674
8.46571
8.46259
8.45794
8.45166
8.44366
8.43387
8.42223
8.40871
8.39332
8.37612
8.35725
8.33693
8.31549
8.29332
8.27094
8.2489
8.22779
8.20817
8.19054
8.17532
8.16283
8.1533
8.14688
8.14365
7.80127
7.80388
7.80902
7.81648
7.82601
7.83733
7.85014
7.86414
7.87908
7.89472
7.91088
7.92737
7.94404
7.96077
7.97743
7.99391
8.01012
8.02598
8.04144
8.05646
8.07101
8.08508
8.09867
8.11176
8.12435
8.13642
8.14796
8.15893
8.16932
8.17908
8.18817
8.19655
8.20416
8.21091
8.21674
8.22154
8.22523
8.22771
8.22886
8.22858
8.22676
8.22328
8.21802
8.21087
8.20172
8.19046
8.17702
8.16134
8.14342
8.12332
8.10117
8.07724
8.05187
8.02557
7.99895
7.9727
7.94754
7.92417
7.90321
7.88517
7.8704
7.85915
7.85159
7.84779
7.51226
7.51535
7.52139
7.53015
7.5413
7.55449
7.56935
7.58554
7.60275
7.62071
7.63922
7.65807
7.67712
7.69619
7.71517
7.73393
7.75235
7.77036
7.78788
7.80489
7.82136
7.83727
7.85264
7.86745
7.8817
7.89537
7.90844
7.92088
7.93267
7.94376
7.95411
7.96367
7.97236
7.98011
7.98682
7.99239
7.9967
7.99965
8.00111
8.00096
7.99906
7.99529
7.98951
7.98158
7.97137
7.95874
7.9436
7.92587
7.90551
7.88256
7.85717
7.82959
7.80023
7.76968
7.73867
7.70804
7.67867
7.65143
7.62705
7.60612
7.58905
7.57609
7.5674
7.56304
7.23453
7.23812
7.24514
7.25528
7.26814
7.28328
7.30026
7.31867
7.33816
7.35845
7.37929
7.40048
7.42185
7.44323
7.46448
7.48546
7.50604
7.52612
7.54565
7.56457
7.58287
7.60055
7.61762
7.63408
7.64992
7.66513
7.67968
7.69354
7.70668
7.71906
7.73063
7.74134
7.75112
7.75986
7.76746
7.77381
7.77877
7.78223
7.78404
7.78406
7.78216
7.77817
7.77195
7.76333
7.75216
7.73828
7.72155
7.70185
7.67914
7.65341
7.6248
7.59355
7.56013
7.5252
7.48961
7.45439
7.42062
7.38934
7.36144
7.33757
7.31818
7.30352
7.29372
7.28881
6.96749
6.97163
6.97971
6.99133
7.006
7.02319
7.04236
7.06304
7.08483
7.10743
7.13058
7.15407
7.17773
7.20139
7.22487
7.24802
7.2707
7.2928
7.31425
7.335
7.35506
7.37443
7.39313
7.41117
7.42854
7.44522
7.4612
7.47642
7.49087
7.50451
7.51728
7.52913
7.53997
7.5497
7.55821
7.56535
7.57099
7.57498
7.57718
7.57743
7.57557
7.57145
7.56487
7.55566
7.54364
7.5286
7.5104
7.48886
7.46389
7.43546
7.40365
7.36872
7.33114
7.29166
7.25129
7.21125
7.17286
7.13736
7.10581
7.07895
7.05725
7.04091
7.03003
7.02459
6.71061
6.71535
6.72457
6.73779
6.7544
6.77374
6.79518
6.81817
6.84229
6.86718
6.89262
6.91838
6.9443
6.97019
6.99586
7.02114
7.04587
7.06992
7.09322
7.11573
7.13747
7.15844
7.1787
7.19825
7.21709
7.2352
7.25255
7.26909
7.28481
7.29966
7.3136
7.32656
7.33846
7.34919
7.3586
7.36656
7.3729
7.37746
7.38008
7.38061
7.37887
7.37467
7.36782
7.35812
7.34534
7.32928
7.30971
7.28645
7.25934
7.22829
7.19333
7.15469
7.11287
7.06867
7.02328
6.97814
6.93485
6.89494
6.85962
6.82974
6.80574
6.78777
6.77585
6.76992
6.46335
6.46876
6.47924
6.4942
6.51289
6.53449
6.55828
6.58364
6.61008
6.63727
6.66495
6.69295
6.72109
6.74917
6.777
6.80437
6.8311
6.85705
6.88213
6.90632
6.92964
6.95215
6.97388
6.99488
7.01513
7.03461
7.05329
7.07111
7.08805
7.10408
7.11916
7.13322
7.14617
7.15789
7.16823
7.17701
7.18407
7.18923
7.19232
7.19317
7.19159
7.18739
7.18036
7.17025
7.15683
7.13985
7.11905
7.0942
7.06506
7.0315
6.99345
6.95111
6.90494
6.85584
6.80515
6.75459
6.70612
6.66156
6.62237
6.58944
6.56318
6.54366
6.53077
6.52438
6.22523
6.23138
6.24325
6.26011
6.28102
6.30503
6.33127
6.35903
6.3878
6.41725
6.44715
6.47734
6.50765
6.53789
6.56785
6.59728
6.62597
6.65375
6.68055
6.70634
6.73116
6.75511
6.77826
6.80063
6.82224
6.84305
6.86301
6.88206
6.90018
6.91735
6.93353
6.94867
6.96267
6.97539
6.98666
6.99629
7.00408
7.00987
7.01346
7.01467
7.01332
7.00919
7.00204
6.99163
6.97767
6.95989
6.93799
6.91167
6.88066
6.84469
6.80365
6.75761
6.70701
6.65281
6.59651
6.54018
6.48617
6.43673
6.39356
6.35759
6.32915
6.30817
6.2944
6.28759
5.9958
6.00276
6.01617
6.03511
6.05843
6.08498
6.11374
6.14395
6.17505
6.20672
6.23879
6.27112
6.30357
6.33594
6.36799
6.39945
6.43006
6.45963
6.48806
6.51537
6.54161
6.56692
6.5914
6.6151
6.63801
6.66011
6.68131
6.70155
6.7208
6.73906
6.75632
6.77251
6.78755
6.80128
6.81349
6.82398
6.83254
6.83898
6.8431
6.84471
6.84363
6.83963
6.83245
6.82181
6.80742
6.78896
6.76609
6.73846
6.70571
6.6675
6.62356
6.57386
6.51877
6.45925
6.39701
6.33448
6.27455
6.21997
6.17271
6.13374
6.10325
6.08095
6.0664
6.05924
5.77459
5.78248
5.7976
5.81882
5.84474
5.87397
5.90536
5.93805
5.97145
6.0053
6.03947
6.07389
6.10843
6.1429
6.17703
6.2105
6.24298
6.27428
6.30429
6.33302
6.3606
6.38718
6.41292
6.43788
6.46206
6.4854
6.5078
6.52918
6.54952
6.56883
6.58713
6.60436
6.62043
6.63517
6.64834
6.65971
6.66905
6.67616
6.68083
6.68288
6.68212
6.6783
6.67117
6.6604
6.64568
6.62665
6.60294
6.57415
6.53983
6.49954
6.45284
6.39954
6.33989
6.27486
6.20632
6.13711
6.0708
6.01079
5.95938
5.9175
5.88511
5.86165
5.84647
5.83902
5.5612
5.57011
5.58714
5.61087
5.63961
5.67168
5.70579
5.74098
5.77666
5.81261
5.84881
5.88525
5.92185
5.95839
5.99458
6.03004
6.06437
6.09735
6.12886
6.15893
6.18773
6.2155
6.24242
6.26859
6.29399
6.31855
6.34213
6.3646
6.38597
6.40628
6.42559
6.44384
6.46094
6.47669
6.49084
6.50311
6.51324
6.52103
6.52628
6.52879
6.52839
6.52482
6.5178
6.50698
6.49202
6.47254
6.44813
6.41833
6.38262
6.34043
6.29115
6.23435
6.17011
6.09936
6.02412
5.94769
5.87448
5.80873
5.75312
5.70847
5.67439
5.64999
5.63432
5.62667
5.3552
5.36529
5.38443
5.41094
5.44272
5.4778
5.51471
5.55242
5.59033
5.6283
5.66644
5.70484
5.74343
5.78202
5.82027
5.85772
5.89387
5.92847
5.96141
5.99272
6.02265
6.0515
6.07955
6.10688
6.13346
6.15922
6.18393
6.20746
6.2298
6.25106
6.27134
6.29059
6.30871
6.3255
6.34064
6.35381
6.36476
6.37324
6.37907
6.38208
6.38206
6.3788
6.37195
6.36117
6.34606
6.32624
6.30126
6.2706
6.23369
6.18981
6.13815
6.078
6.00917
5.93251
5.85014
5.76586
5.68512
5.61331
5.55351
5.50629
5.47081
5.4457
5.42971
5.42195
5.15623
5.16762
5.18913
5.21871
5.2538
5.29204
5.33183
5.37207
5.41214
5.45202
5.49198
5.53227
5.57282
5.61342
5.65375
5.69318
5.73113
5.76731
5.8016
5.83405
5.86499
5.89484
5.92394
5.95238
5.98012
6.00705
6.03289
6.05742
6.08067
6.10282
6.12403
6.14427
6.16341
6.18124
6.19739
6.21149
6.22325
6.23244
6.23887
6.24237
6.24278
6.23986
6.23327
6.22259
6.20742
6.18735
6.16193
6.13058
6.09265
6.04733
5.99352
5.93019
5.85682
5.77408
5.68416
5.59128
5.50228
5.42407
5.36014
5.31064
5.27407
5.24853
5.23243
5.22465
4.9639
4.97678
5.00091
5.03389
5.07257
5.11412
5.15686
5.19963
5.24177
5.28343
5.3251
5.3672
5.40967
5.45225
5.49466
5.53611
5.57582
5.61354
5.64912
5.6826
5.71443
5.74517
5.77526
5.80477
5.83363
5.86174
5.8887
5.91417
5.93826
5.96124
5.98335
6.00455
6.02469
6.04359
6.06079
6.07581
6.08839
6.0983
6.10532
6.10934
6.1102
6.10767
6.10139
6.09089
6.07573
6.05551
6.02976
5.99786
5.95911
5.9126
5.85694
5.79067
5.71282
5.62388
5.52596
5.42363
5.32549
5.24052
5.17261
5.12121
5.08394
5.05829
5.04227
5.03458
4.77784
4.79242
4.81946
4.85622
4.89879
4.94378
4.98955
5.03485
5.07893
5.12222
5.16545
5.2093
5.25363
5.29816
5.3427
5.3862
5.42764
5.46684
5.50365
5.53804
5.57064
5.60215
5.63317
5.66371
5.69367
5.72297
5.75105
5.77742
5.80227
5.82599
5.84897
5.87111
5.89225
5.91224
5.93051
5.94646
5.95987
5.9705
5.97812
5.98264
5.98397
5.98189
5.97597
5.96571
5.95063
5.93034
5.9044
5.87208
5.8327
5.78529
5.72809
5.65916
5.57695
5.48173
5.37541
5.26263
5.15424
5.06218
4.99056
4.93772
4.9002
4.87477
4.85905
4.85154
4.59773
4.61423
4.64448
4.68543
4.73225
4.78077
4.82962
4.87745
4.92333
4.96806
5.01268
5.05823
5.10438
5.1508
5.19753
5.24316
5.28628
5.32692
5.36491
5.40008
5.4333
5.46546
5.49737
5.52892
5.55993
5.59046
5.61969
5.64688
5.67239
5.69678
5.72059
5.74366
5.76577
5.7869
5.80629
5.82316
5.8374
5.84875
5.85694
5.86197
5.86378
5.86218
5.85669
5.84674
5.83179
5.81151
5.78548
5.75288
5.71303
5.66502
5.60664
5.53542
5.449
5.34748
5.23243
5.108
4.98802
4.88855
4.81363
4.75994
4.72268
4.69781
4.6826
4.67538
4.4232
4.44194
4.47567
4.52131
4.57276
4.62485
4.67682
4.72721
4.77469
4.82066
4.86647
4.91367
4.96162
5.00984
5.05887
5.10672
5.15144
5.19349
5.23262
5.26842
5.30211
5.33478
5.36756
5.4001
5.4321
5.46392
5.49435
5.52228
5.54835
5.57329
5.59793
5.62191
5.64497
5.66728
5.68785
5.70562
5.72068
5.73276
5.7415
5.74703
5.74932
5.74825
5.74325
5.73366
5.71889
5.69866
5.67267
5.63988
5.59972
5.55144
5.49228
5.41918
5.32872
5.22097
5.09699
4.95952
4.82623
4.71913
4.6415
4.58767
4.5512
4.52726
4.51276
4.50592
4.25394
4.27529
4.31273
4.36362
4.42015
4.47576
4.53091
4.58391
4.63275
4.67973
4.72648
4.77535
4.82507
4.87495
4.92642
4.97665
5.02283
5.06627
5.10655
5.14279
5.17679
5.2098
5.24346
5.27698
5.30989
5.34309
5.37481
5.40336
5.42988
5.45524
5.48071
5.50561
5.52953
5.55312
5.57493
5.59356
5.60944
5.62226
5.63151
5.63751
5.64029
5.6398
5.63535
5.62618
5.61162
5.59148
5.56565
5.53277
5.4924
5.4442
5.38469
5.31023
5.21589
5.10205
4.96919
4.817
4.6682
4.55338
4.47388
4.42074
4.38563
4.36297
4.34938
4.343
4.08961
4.11407
4.15537
4.21218
4.27434
4.33325
4.39163
4.44735
4.49723
4.54499
4.59237
4.64298
4.69447
4.74578
4.79991
4.85273
4.90016
4.94497
4.98645
5.02291
5.05706
5.09021
5.1248
5.15931
5.19298
5.22772
5.26086
5.28988
5.31672
5.34234
5.36869
5.39451
5.41919
5.44415
5.46733
5.48672
5.50341
5.51702
5.52671
5.53317
5.5364
5.53654
5.53272
5.52403
5.50968
5.48965
5.46412
5.4312
5.39068
5.34297
5.28353
5.20833
5.11026
4.99053
4.84921
4.68032
4.51316
4.3908
4.31056
4.25902
4.22587
4.20481
4.19232
4.18648
3.92989
3.95812
4.00325
4.0668
4.13524
4.19702
4.25872
4.31739
4.36785
4.41618
4.46377
4.5163
4.56961
4.62195
4.67907
4.7348
4.78314
4.82933
4.87214
4.90852
4.94267
4.97569
5.01135
5.04688
5.08108
5.11756
5.15233
5.1816
5.20864
5.2343
5.26162
5.28839
5.31364
5.34014
5.36483
5.38483
5.40235
5.41678
5.42683
5.43372
5.43738
5.43822
5.43509
5.42694
5.4128
5.39285
5.36782
5.33488
5.29416
5.2474
5.18847
5.11331
5.01153
4.88617
4.73739
4.54943
4.36017
4.23088
4.15133
4.10244
4.07181
4.05267
4.04141
4.03618
3.77442
3.80735
3.856
3.9273
4.00286
4.06677
4.13192
4.1939
4.24435
4.29307
4.34033
4.39509
4.4503
4.50308
4.56364
4.62274
4.67144
4.71908
4.76344
4.79934
4.8334
4.86593
4.90286
4.93949
4.97385
5.01239
5.04907
5.07826
5.10542
5.13083
5.15928
5.18705
5.21259
5.24085
5.26727
5.28764
5.30601
5.32136
5.33163
5.33894
5.34297
5.34459
5.34221
5.33467
5.32073
5.30078
5.27649
5.24352
5.20245
5.15718
5.09913
5.02502
4.9194
4.78863
4.63425
4.4244
4.20806
4.07314
3.99611
3.95093
3.92338
3.90642
3.89653
3.89195
3.62283
3.66179
3.7132
3.79352
3.87731
3.94209
4.01094
4.07684
4.1264
4.17548
4.22162
4.27915
4.33642
4.38872
4.4534
4.51651
4.56472
4.61394
4.66025
4.6951
4.72904
4.76058
4.79915
4.837
4.87094
4.91198
4.951
4.97962
5.00686
5.03161
5.06149
5.09035
5.11571
5.14606
5.17451
5.19488
5.21416
5.23055
5.24085
5.2486
5.25289
5.25541
5.25385
5.24701
5.23321
5.21311
5.18993
5.15687
5.11513
5.07204
5.01511
4.94338
4.83352
4.69745
4.54053
4.3054
4.05541
3.91717
3.84486
3.80449
3.78051
3.76595
3.75751
3.75362
3.47473
3.52158
3.57429
3.66532
3.75878
3.82255
3.89549
3.96621
4.01364
4.06326
4.10718
4.16829
4.22792
4.27836
4.3481
4.41612
4.46258
4.51363
4.5625
4.59549
4.62944
4.65927
4.70003
4.73931
4.77196
4.81612
4.85805
4.88541
4.91282
4.93632
4.96805
4.99815
5.02267
5.05557
5.08646
5.10626
5.12655
5.14421
5.15425
5.16248
5.1669
5.17045
5.16979
5.16374
5.15002
5.12953
5.10795
5.07472
5.03173
4.99175
4.93597
4.8684
4.75351
4.61195
4.45723
4.19282
3.90041
3.7627
3.69765
3.66314
3.64312
3.63112
3.62421
3.62103
3.32964
3.38708
3.43863
3.54255
3.64764
3.70755
3.78525
3.86215
3.90566
3.95638
3.99648
4.06239
4.12485
4.1714
4.24753
4.32172
4.36458
4.41787
4.47019
4.50017
4.5345
4.56158
4.60536
4.64639
4.67645
4.72462
4.77024
4.79531
4.82318
4.84459
4.87881
4.91041
4.93308
4.96919
5.00307
5.02148
5.04296
5.06222
5.07157
5.08042
5.08474
5.08953
5.0898
5.08468
5.07098
5.04969
5.03041
4.99688
4.95176
4.91613
4.86116
4.80019
4.67898
4.53115
4.38568
4.08722
3.74074
3.60962
3.55462
3.52689
3.51115
3.50181
3.49646
3.494
3.18702
3.25885
3.30537
3.42506
3.54441
3.59638
3.67989
3.76489
3.80191
3.85489
3.88887
3.96136
4.02737
4.06711
4.1515
4.23357
4.27015
4.32636
4.38343
4.40872
4.44419
4.46704
4.51501
4.55826
4.5839
4.6373
4.68767
4.70896
4.73789
4.756
4.79366
4.8271
4.8465
4.88674
4.92439
4.94021
4.96319
4.98447
4.99254
5.00224
5.00614
5.01245
5.01367
5.00966
4.99591
4.9732
4.95724
4.92322
4.87464
4.84513
4.79003
4.73904
4.60951
4.45373
4.3276
3.98949
3.5735
3.45809
3.41599
3.39579
3.38453
3.37789
3.3741
3.37236
3.04619
3.1378
3.17341
3.31273
3.44985
3.48812
3.57905
3.67485
3.70171
3.75901
3.78359
3.86514
3.93577
3.96463
4.0598
4.15208
4.17864
4.2388
4.30243
4.32064
4.35862
4.37507
4.4289
4.47508
4.49368
4.55398
4.61049
4.62592
4.657
4.67007
4.71249
4.7483
4.76241
4.80805
4.85049
4.86204
4.887
4.91095
4.91687
4.92785
4.93083
4.93905
4.94119
4.93852
4.92467
4.89964
4.88838
4.85369
4.79972
4.77882
4.72176
4.68542
4.5447
4.37787
4.28517
3.90086
3.39498
3.30865
3.28208
3.26987
3.26315
3.25921
3.25696
3.25594
2.90633
3.02521
3.04135
3.20545
3.36503
3.38162
3.48234
3.59265
3.60417
3.66918
3.6797
3.77375
3.85054
3.86288
3.97228
4.07787
4.08923
4.15487
4.22754
4.23529
4.278
4.28501
4.34699
4.3971
4.40505
4.47452
4.53902
4.54562
4.58066
4.58624
4.63524
4.67418
4.68022
4.73298
4.78157
4.78654
4.81421
4.84165
4.84422
4.85716
4.85851
4.86921
4.87216
4.87112
4.85718
4.82853
4.82385
4.78829
4.72621
4.71745
4.6553
4.64004
4.4842
4.30112
4.26109
3.82297
3.20056
3.16236
3.15321
3.14915
3.14693
3.14562
3.14489
3.14455
)
;

boundaryField
{
    left
    {
        type            zeroGradient;
    }
    right
    {
        type            zeroGradient;
    }
    interface
    {
        type            fixedValue;
        value           nonuniform List<scalar> 
64
(
2.83483
2.97289
2.97289
3.15311
3.32733
3.32733
3.43481
3.55507
3.55507
3.62669
3.62669
3.72953
3.81058
3.81058
3.9296
4.04409
4.04409
4.11367
4.19268
4.19268
4.23957
4.23957
4.30727
4.36008
4.36008
4.43582
4.50567
4.50567
4.54416
4.54416
4.59775
4.63881
4.63881
4.69641
4.74904
4.74904
4.77863
4.80842
4.80842
4.8229
4.8229
4.83527
4.83852
4.83852
4.82458
4.79312
4.79312
4.75701
4.68885
4.68885
4.62156
4.62156
4.45534
4.25983
4.25983
3.78975
3.09007
3.09007
3.09007
3.09007
3.09007
3.09007
3.09007
3.09007
)
;
    }
    bottom
    {
        type            fixedValue;
        value           uniform 10;
    }
    defaultFaces
    {
        type            empty;
    }
}


// ************************************************************************* //
