/*--------------------------------*- C++ -*----------------------------------*\
| =========                 |                                                 |
| \\      /  F ield         | OpenFOAM: The Open Source CFD Toolbox           |
|  \\    /   O peration     | Version:  5.x                                   |
|   \\  /    A nd           | Web:      www.OpenFOAM.org                      |
|    \\/     M anipulation  |                                                 |
\*---------------------------------------------------------------------------*/
FoamFile
{
    version     2.0;
    format      ascii;
    class       volScalarField;
    location    "2.9";
    object      gradTy;
}
// * * * * * * * * * * * * * * * * * * * * * * * * * * * * * * * * * * * * * //

dimensions      [0 -1 0 1 0 0 0];

internalField   nonuniform List<scalar> 
2048
(
-26.4242
-26.3966
-26.3422
-26.2626
-26.1598
-26.0364
-25.8952
-25.7389
-25.5704
-25.3923
-25.2068
-25.0162
-24.8224
-24.6271
-24.4319
-24.2379
-24.0463
-23.8581
-23.674
-23.4946
-23.3202
-23.1514
-22.9883
-22.8312
-22.6802
-22.5357
-22.398
-22.2673
-22.144
-22.0287
-21.9218
-21.824
-21.7361
-21.6589
-21.5933
-21.5404
-21.5012
-21.4769
-21.4687
-21.478
-21.5059
-21.5537
-21.6226
-21.7138
-21.8282
-21.9666
-22.1294
-22.3165
-22.5273
-22.7603
-23.0132
-23.2828
-23.5647
-23.8537
-24.1438
-24.4284
-24.7007
-24.9541
-25.1824
-25.3805
-25.544
-25.6693
-25.7542
-25.797
-26.4465
-26.4183
-26.3626
-26.2813
-26.1765
-26.0509
-25.9073
-25.7489
-25.5782
-25.3981
-25.2109
-25.0188
-24.8236
-24.6271
-24.4308
-24.2359
-24.0436
-23.8548
-23.6702
-23.4904
-23.3158
-23.1468
-22.9835
-22.8261
-22.675
-22.5303
-22.3923
-22.2612
-22.1376
-22.0218
-21.9144
-21.8161
-21.7275
-21.6495
-21.583
-21.5292
-21.4891
-21.4638
-21.4546
-21.4629
-21.4897
-21.5365
-21.6046
-21.695
-21.8088
-21.9469
-22.1097
-22.2974
-22.5093
-22.7442
-22.9998
-23.2728
-23.559
-23.8529
-24.1483
-24.4383
-24.7159
-24.9742
-25.2069
-25.4086
-25.5747
-25.7021
-25.7882
-25.8316
-26.4892
-26.4597
-26.4017
-26.317
-26.2082
-26.0782
-25.9303
-25.7675
-25.5929
-25.4091
-25.2187
-25.0236
-24.8258
-24.627
-24.4287
-24.2321
-24.0384
-23.8484
-23.6629
-23.4825
-23.3074
-23.1379
-22.9743
-22.8167
-22.6652
-22.52
-22.3815
-22.2499
-22.1255
-22.0089
-21.9005
-21.801
-21.7111
-21.6317
-21.5637
-21.5082
-21.4662
-21.4391
-21.428
-21.4343
-21.4592
-21.5041
-21.5703
-21.6592
-21.7718
-21.9092
-22.0721
-22.2607
-22.4747
-22.7131
-22.9736
-23.2533
-23.5476
-23.8509
-24.1566
-24.4572
-24.7451
-25.0129
-25.2538
-25.4622
-25.6335
-25.7646
-25.853
-25.8975
-26.5504
-26.519
-26.4574
-26.3678
-26.2531
-26.1168
-25.9625
-25.7936
-25.6133
-25.4243
-25.2292
-25.03
-24.8286
-24.6266
-24.4254
-24.2265
-24.0307
-23.8392
-23.6525
-23.4712
-23.2954
-23.1255
-22.9614
-22.8033
-22.6513
-22.5056
-22.3664
-22.2339
-22.1086
-21.9908
-21.881
-21.78
-21.6882
-21.6068
-21.5365
-21.4786
-21.4341
-21.4043
-21.3905
-21.394
-21.4161
-21.4583
-21.522
-21.6085
-21.7193
-21.8556
-22.0183
-22.2081
-22.4248
-22.6679
-22.9355
-23.2245
-23.5305
-23.8474
-24.168
-24.484
-24.787
-25.0685
-25.3212
-25.5391
-25.7177
-25.8537
-25.9454
-25.9914
-26.6288
-26.5949
-26.5284
-26.4322
-26.3097
-26.1651
-26.0025
-25.8257
-25.6382
-25.4428
-25.2419
-25.0376
-24.8316
-24.6256
-24.421
-24.219
-24.0208
-23.8273
-23.6392
-23.4568
-23.2803
-23.1098
-22.9453
-22.7867
-22.6341
-22.4877
-22.3476
-22.2142
-22.0876
-21.9684
-21.8569
-21.7539
-21.6599
-21.5758
-21.5028
-21.4418
-21.3941
-21.361
-21.3437
-21.3436
-21.3622
-21.4009
-21.4612
-21.5447
-21.653
-21.7876
-21.9498
-22.1406
-22.3605
-22.6092
-22.8854
-23.1863
-23.5072
-23.8417
-24.1818
-24.518
-24.8405
-25.1398
-25.4076
-25.6375
-25.825
-25.9671
-26.0625
-26.1103
-26.7234
-26.6862
-26.6136
-26.5089
-26.3767
-26.2218
-26.049
-25.8627
-25.6666
-25.4636
-25.256
-25.0458
-24.8346
-24.6239
-24.4152
-24.2097
-24.0086
-23.8129
-23.6231
-23.4396
-23.2624
-23.0914
-22.9264
-22.7673
-22.6141
-22.4669
-22.3258
-22.1912
-22.0633
-21.9425
-21.829
-21.7236
-21.6269
-21.5399
-21.4635
-21.3989
-21.3474
-21.3103
-21.289
-21.2847
-21.299
-21.3334
-21.3896
-21.4693
-21.5744
-21.7066
-21.8677
-22.0592
-22.2823
-22.5373
-22.8233
-23.1381
-23.477
-23.8331
-24.1972
-24.5584
-24.9051
-25.2261
-25.5121
-25.7561
-25.9537
-26.1026
-26.202
-26.2516
-26.8335
-26.7922
-26.7119
-26.5969
-26.4528
-26.2854
-26.1006
-25.9033
-25.6974
-25.4859
-25.2709
-25.0542
-24.8372
-24.6212
-24.4079
-24.1984
-23.9941
-23.796
-23.6045
-23.4199
-23.242
-23.0706
-22.9052
-22.7456
-22.5917
-22.4437
-22.3016
-22.1658
-22.0364
-21.9137
-21.7981
-21.6901
-21.5903
-21.4998
-21.4196
-21.3509
-21.2951
-21.2536
-21.2275
-21.2185
-21.2279
-21.2574
-21.3087
-21.3838
-21.4848
-21.6138
-21.773
-21.9647
-22.1906
-22.452
-22.7488
-23.0793
-23.4391
-23.8206
-24.2135
-24.6047
-24.9804
-25.3271
-25.6341
-25.894
-26.1026
-26.2584
-26.3616
-26.413
-26.9587
-26.9124
-26.8227
-26.6951
-26.5367
-26.3547
-26.1561
-25.9463
-25.7296
-25.5089
-25.286
-25.0623
-24.8391
-24.6175
-24.399
-24.1851
-23.9773
-23.7765
-23.5833
-23.3977
-23.2194
-23.0477
-22.8821
-22.7221
-22.5676
-22.4186
-22.2754
-22.1382
-22.0073
-21.8828
-21.7648
-21.654
-21.5509
-21.4565
-21.372
-21.2988
-21.2382
-21.1917
-21.1606
-21.1462
-21.1501
-21.1741
-21.2198
-21.2895
-21.3855
-21.5104
-21.6669
-21.8577
-22.0858
-22.3533
-22.6613
-23.009
-23.3923
-23.8032
-24.2298
-24.6565
-25.0663
-25.4429
-25.7737
-26.0506
-26.2704
-26.4328
-26.5394
-26.5921
-27.099
-27.0465
-26.9454
-26.8027
-26.6274
-26.4284
-26.214
-25.9904
-25.7622
-25.5318
-25.3008
-25.07
-24.8402
-24.6125
-24.3885
-24.1698
-23.9581
-23.7546
-23.5597
-23.3733
-23.1948
-23.0232
-22.8575
-22.6972
-22.542
-22.392
-22.2477
-22.1092
-21.9767
-21.8502
-21.7299
-21.616
-21.5092
-21.4106
-21.3215
-21.2434
-21.1776
-21.1257
-21.0891
-21.069
-21.067
-21.0847
-21.1242
-21.1877
-21.2779
-21.3976
-21.5501
-21.739
-21.9681
-22.241
-22.5602
-22.9261
-23.3353
-23.7797
-24.2454
-24.7136
-25.1631
-25.5738
-25.9308
-26.2257
-26.4562
-26.6242
-26.7333
-26.7868
-27.2543
-27.1943
-27.0795
-26.9189
-26.7237
-26.5052
-26.2731
-26.0346
-25.7942
-25.554
-25.3149
-25.0769
-24.8403
-24.6063
-24.3762
-24.1523
-23.9365
-23.7301
-23.5336
-23.3468
-23.1685
-22.9973
-22.8318
-22.6713
-22.5154
-22.3644
-22.2188
-22.0789
-21.9449
-21.8166
-21.6938
-21.5768
-21.4661
-21.3629
-21.2688
-21.1853
-21.114
-21.0565
-21.014
-20.9878
-20.9794
-20.9904
-21.023
-21.0796
-21.1629
-21.2764
-21.4237
-21.6092
-21.838
-22.1149
-22.4446
-22.8292
-23.2667
-23.7487
-24.2593
-24.7757
-25.2712
-25.7206
-26.1061
-26.4191
-26.6592
-26.8311
-26.9411
-26.9945
-27.4249
-27.3559
-27.2246
-27.0427
-26.8244
-26.5837
-26.3321
-26.0776
-25.8247
-25.5749
-25.328
-25.0829
-24.8396
-24.5988
-24.3623
-24.1326
-23.9123
-23.7029
-23.5052
-23.3183
-23.1408
-22.9704
-22.8054
-22.6447
-22.4881
-22.3359
-22.189
-22.0479
-21.9125
-21.7824
-21.6572
-21.5369
-21.4221
-21.314
-21.2144
-21.1252
-21.0481
-20.9847
-20.9361
-20.9036
-20.8884
-20.8923
-20.9173
-20.9662
-21.0418
-21.1479
-21.2886
-21.4691
-21.6956
-21.9749
-22.3138
-22.7171
-23.1847
-23.7084
-24.2704
-24.8428
-25.3916
-25.8846
-26.3005
-26.6308
-26.8785
-27.0518
-27.1607
-27.213
-27.6113
-27.5315
-27.3805
-27.1734
-26.9282
-26.6624
-26.3894
-26.1181
-25.8528
-25.594
-25.3398
-25.0881
-24.8381
-24.5902
-24.3466
-24.1106
-23.8854
-23.6731
-23.4743
-23.288
-23.1118
-22.9429
-22.7787
-22.618
-22.4605
-22.3069
-22.1586
-22.0162
-21.8796
-21.7481
-21.6205
-21.4969
-21.3776
-21.2643
-21.1589
-21.0636
-20.9805
-20.9109
-20.8561
-20.8171
-20.795
-20.7913
-20.8082
-20.8487
-20.9158
-21.0133
-21.146
-21.3196
-21.5416
-21.8209
-22.167
-22.5883
-23.0873
-23.657
-24.2776
-24.915
-25.5254
-26.0675
-26.5151
-26.8613
-27.1132
-27.2847
-27.3899
-27.4397
-27.8143
-27.7214
-27.5469
-27.3101
-27.034
-26.74
-26.4438
-26.1551
-25.8778
-25.6108
-25.3503
-25.0926
-24.8359
-24.5806
-24.3293
-24.0863
-23.8558
-23.6404
-23.4409
-23.2558
-23.0819
-22.9151
-22.7521
-22.5914
-22.4329
-22.2776
-22.1276
-21.9841
-21.8467
-21.7139
-21.5843
-21.4572
-21.3333
-21.2143
-21.1026
-21.001
-20.9116
-20.8358
-20.7748
-20.7292
-20.6999
-20.6883
-20.6966
-20.728
-20.7858
-20.8738
-20.9969
-21.1617
-21.3767
-21.6529
-22.0035
-22.4411
-22.9723
-23.5923
-24.2793
-24.9923
-25.6745
-26.2715
-26.7517
-27.1108
-27.3626
-27.5279
-27.6263
-27.6718
-28.0345
-27.926
-27.7236
-27.4519
-27.1402
-26.8148
-26.4937
-26.1872
-25.8987
-25.6251
-25.3596
-25.0966
-24.8334
-24.5703
-24.3104
-24.0594
-23.8231
-23.6047
-23.4048
-23.2218
-23.0512
-22.8874
-22.7261
-22.5653
-22.4055
-22.2481
-22.0961
-21.9516
-21.8138
-21.6804
-21.5488
-21.4184
-21.2896
-21.1644
-21.0459
-20.9377
-20.8418
-20.7599
-20.6927
-20.6405
-20.6039
-20.5841
-20.5834
-20.6052
-20.6529
-20.7303
-20.8426
-20.9965
-21.2016
-21.4712
-21.8226
-22.2739
-22.8374
-23.5114
-24.2737
-25.075
-25.8411
-26.4994
-27.0121
-27.3796
-27.6254
-27.7794
-27.8672
-27.9067
-28.2731
-28.1459
-27.9105
-27.5979
-27.2453
-26.8853
-26.5376
-26.2133
-25.915
-25.6365
-25.3679
-25.1005
-24.8309
-24.5597
-24.2901
-24.0299
-23.7873
-23.5657
-23.366
-23.1862
-23.0201
-22.8603
-22.701
-22.5402
-22.3786
-22.2185
-22.0641
-21.9188
-21.7813
-21.6478
-21.5146
-21.3808
-21.2468
-21.1149
-20.9891
-20.8738
-20.7715
-20.6834
-20.6102
-20.5517
-20.5078
-20.4794
-20.4693
-20.481
-20.518
-20.5842
-20.6842
-20.8252
-21.0175
-21.2763
-21.6238
-22.0851
-22.6799
-23.4114
-24.2582
-25.1631
-26.028
-26.7549
-27.2984
-27.668
-27.9006
-28.0371
-28.1102
-28.1416
-28.5313
-28.3817
-28.1075
-27.747
-27.3477
-26.9498
-26.5742
-26.2322
-25.9259
-25.6452
-25.3755
-25.1046
-24.8289
-24.5491
-24.2684
-23.9976
-23.7481
-23.5233
-23.3242
-23.1488
-22.9889
-22.8343
-22.6773
-22.5163
-22.3526
-22.1888
-22.0314
-21.8856
-21.7493
-21.6166
-21.4821
-21.3448
-21.2055
-21.0661
-20.9323
-20.8098
-20.7008
-20.6067
-20.5278
-20.4633
-20.4121
-20.3751
-20.355
-20.3561
-20.3822
-20.4364
-20.5229
-20.6493
-20.8257
-21.0689
-21.4068
-21.873
-22.4971
-23.2886
-24.2298
-25.2567
-26.2393
-27.0424
-27.6133
-27.9762
-28.1864
-28.2984
-28.3525
-28.3737
-28.8105
-28.634
-28.3145
-27.898
-27.4453
-27.0066
-26.602
-26.2425
-25.9307
-25.6511
-25.3831
-25.1096
-24.828
-24.5392
-24.2454
-23.9622
-23.7053
-23.4772
-23.2791
-23.1098
-22.9578
-22.8099
-22.6555
-22.4941
-22.3278
-22.159
-21.9976
-21.8518
-21.7178
-21.587
-21.4516
-21.3108
-21.1659
-21.0182
-20.8755
-20.7456
-20.6301
-20.5301
-20.446
-20.3758
-20.3176
-20.2715
-20.2412
-20.2314
-20.2462
-20.288
-20.3601
-20.4702
-20.6279
-20.8501
-21.1715
-21.6362
-22.2861
-23.139
-24.1843
-25.3558
-26.48
-27.3673
-27.9593
-28.3038
-28.481
-28.5609
-28.5913
-28.6003
-29.1122
-28.9035
-28.5316
-28.0495
-27.536
-27.0543
-26.6197
-26.2431
-25.929
-25.6544
-25.3914
-25.116
-24.8284
-24.5307
-24.2214
-23.9231
-23.6586
-23.4271
-23.2304
-23.069
-22.9273
-22.7878
-22.636
-22.4737
-22.3045
-22.129
-21.9623
-21.8172
-21.6871
-21.5597
-21.4235
-21.2792
-21.1286
-20.9714
-20.8186
-20.6813
-20.5594
-20.4536
-20.365
-20.2897
-20.2248
-20.1694
-20.1282
-20.1072
-20.1108
-20.1401
-20.1968
-20.2896
-20.4258
-20.6213
-20.9183
-21.3731
-22.0444
-22.958
-24.1159
-25.46
-26.7568
-27.7361
-28.3389
-28.6501
-28.782
-28.8218
-28.8241
-28.8188
-29.4384
-29.1907
-28.7591
-28.2002
-27.617
-27.0915
-26.6262
-26.2323
-25.9203
-25.6556
-25.4014
-25.1243
-24.8306
-24.5246
-24.1965
-23.8796
-23.608
-23.373
-23.1773
-23.0264
-22.8978
-22.7688
-22.6192
-22.4555
-22.2834
-22.0988
-21.9245
-21.7813
-21.6572
-21.5351
-21.398
-21.25
-21.0941
-20.9259
-20.7615
-20.617
-20.4888
-20.3774
-20.2851
-20.2056
-20.1343
-20.0692
-20.0165
-19.9839
-19.9767
-19.9937
-20.0342
-20.1089
-20.2219
-20.3841
-20.6477
-21.0825
-21.7696
-22.7409
-24.0172
-25.5681
-27.0785
-28.1566
-28.7545
-29.0137
-29.0866
-29.078
-29.048
-29.0268
-29.7912
-29.4956
-28.9977
-28.3483
-27.6851
-27.1171
-26.6206
-26.2085
-25.9042
-25.6549
-25.4149
-25.135
-24.8347
-24.5225
-24.1707
-23.8307
-23.5536
-23.3148
-23.1193
-22.982
-22.8696
-22.7541
-22.6055
-22.4395
-22.2652
-22.0682
-21.8834
-21.7439
-21.6283
-21.5141
-21.3755
-21.2233
-21.0631
-20.8817
-20.7035
-20.5529
-20.4186
-20.3013
-20.2066
-20.1237
-20.0466
-19.9713
-19.9063
-19.8618
-19.8445
-19.8498
-19.873
-19.9297
-20.0186
-20.1405
-20.3605
-20.763
-21.4599
-22.483
-23.8777
-25.6783
-27.4571
-28.6377
-29.2078
-29.3922
-29.3914
-29.3267
-29.2608
-29.2223
-30.1731
-29.8178
-29.2487
-28.492
-27.7359
-27.1308
-26.6025
-26.1695
-25.8804
-25.6528
-25.4336
-25.1484
-24.8405
-24.5263
-24.1444
-23.7744
-23.4957
-23.2527
-23.055
-22.9358
-22.8432
-22.7449
-22.5949
-22.4254
-22.2513
-22.037
-21.8372
-21.7044
-21.6005
-21.4975
-21.356
-21.1991
-21.0367
-20.8389
-20.644
-20.489
-20.3488
-20.2252
-20.1296
-20.0445
-19.9626
-19.8762
-19.7978
-19.741
-19.7145
-19.7095
-19.7137
-19.7535
-19.8192
-19.8927
-20.0583
-20.413
-21.1146
-22.1804
-23.6834
-25.7871
-27.9091
-29.1898
-29.6995
-29.7822
-29.6925
-29.5648
-29.4602
-29.4035
-30.5873
-30.1554
-29.5146
-28.6294
-27.7638
-27.1332
-26.5721
-26.1125
-25.8493
-25.6496
-25.4606
-25.1642
-24.8469
-24.5392
-24.1175
-23.708
-23.4354
-23.1869
-22.9827
-22.8879
-22.8186
-22.7433
-22.5876
-22.4126
-22.2434
-22.0053
-21.7839
-21.6628
-21.5738
-21.487
-21.3395
-21.1767
-21.0162
-20.7976
-20.5816
-20.4259
-20.2798
-20.1486
-20.0546
-19.9684
-19.8828
-19.784
-19.691
-19.6213
-19.5873
-19.5739
-19.5565
-19.5813
-19.6274
-19.6429
-19.7432
-20.0304
-20.734
-21.8306
-23.4151
-25.8887
-28.4569
-29.8238
-30.2287
-30.1791
-29.9858
-29.7894
-29.6442
-29.569
-31.0378
-30.5048
-29.7995
-28.7584
-27.761
-27.1267
-26.5302
-26.0333
-25.8114
-25.6452
-25.4999
-25.1821
-24.8518
-24.5658
-24.0903
-23.6273
-23.3746
-23.1184
-22.8999
-22.8388
-22.796
-22.7517
-22.583
-22.3997
-22.2445
-21.9727
-21.7203
-21.6188
-21.5479
-21.4846
-21.3256
-21.155
-21.0039
-20.7578
-20.5143
-20.3643
-20.2119
-20.0706
-19.9819
-19.8954
-19.8081
-19.6952
-19.586
-19.5023
-19.463
-19.4447
-19.4009
-19.414
-19.4476
-19.3933
-19.4182
-19.6121
-20.3204
-21.4346
-23.0471
-25.9742
-29.1316
-30.5512
-30.7923
-30.577
-30.2668
-29.9977
-29.8114
-29.7178
-31.53
-30.859
-30.1105
-28.8768
-27.7167
-27.116
-26.4785
-25.926
-25.7687
-25.6387
-25.5572
-25.2006
-24.8516
-24.613
-24.0628
-23.5261
-23.3168
-23.0486
-22.8026
-22.7898
-22.7744
-22.7741
-22.5803
-22.3842
-22.2589
-21.9394
-21.6422
-21.5733
-21.5223
-21.4933
-21.3137
-21.132
-21.003
-20.7195
-20.4392
-20.3057
-20.1457
-19.99
-19.912
-19.8258
-19.7395
-19.6098
-19.4826
-19.3834
-19.3417
-19.3241
-19.2455
-19.2516
-19.2857
-19.1454
-19.0877
-19.1529
-19.8779
-20.9981
-22.5443
-26.0297
-29.9762
-31.3827
-31.384
-30.9685
-30.5309
-30.1874
-29.9607
-29.8492
-32.0713
-31.2062
-30.4588
-28.9822
-27.6157
-27.1094
-26.4201
-25.7819
-25.7248
-25.6273
-25.6408
-25.2177
-24.8398
-24.6907
-24.035
-23.395
-23.2676
-22.9793
-22.6851
-22.7431
-22.7523
-22.8158
-22.578
-22.362
-22.2929
-21.9052
-21.5436
-21.5277
-21.4955
-21.5173
-21.3026
-21.1046
-21.0183
-20.6824
-20.352
-20.2523
-20.0819
-19.9047
-19.8461
-19.7591
-19.6786
-19.5278
-19.3808
-19.2636
-19.2231
-19.2151
-19.088
-19.0933
-19.149
-18.8996
-18.7585
-18.6443
-19.4128
-20.5353
-21.8599
-26.0346
-31.0504
-32.326
-31.9941
-31.3455
-30.7737
-30.3565
-30.0913
-29.9632
-32.6721
-31.5275
-30.8618
-29.0725
-27.4366
-27.1205
-26.3592
-25.5883
-25.6866
-25.606
-25.7626
-25.2296
-24.8068
-24.8135
-24.007
-23.2204
-23.2359
-22.9136
-22.539
-22.703
-22.7261
-22.8845
-22.5738
-22.3267
-22.356
-21.87
-21.4161
-21.4857
-21.4648
-21.563
-21.2904
-21.0677
-21.0568
-20.6465
-20.2466
-20.208
-20.0215
-19.8118
-19.7857
-19.6948
-19.627
-19.449
-19.2806
-19.1416
-19.1066
-19.1222
-18.9248
-18.9372
-19.0476
-18.6542
-18.4408
-18.0731
-18.9338
-20.0724
-20.9321
-25.959
-32.4365
-33.3832
-32.6085
-31.6988
-30.991
-30.5036
-30.2029
-30.0598
-33.3473
-31.7932
-31.3456
-29.1453
-27.1497
-27.1698
-26.3017
-25.327
-25.6656
-25.5649
-25.9394
-25.2315
-24.7376
-25.0022
-23.9784
-22.9832
-23.2349
-22.8553
-22.3521
-22.6769
-22.6892
-22.9913
-22.5642
-22.2689
-22.4614
-21.8335
-21.2483
-21.4533
-21.425
-21.6391
-21.2744
-21.014
-21.1286
-20.6112
-20.114
-20.1785
-19.9657
-19.7069
-19.7336
-19.6313
-19.5873
-19.3729
-19.1822
-19.0158
-18.9907
-19.0519
-18.7502
-18.7793
-18.9946
-18.4038
-18.1501
-17.419
-18.4508
-19.6532
-19.679
-25.7597
-34.2472
-34.5464
-33.2084
-32.019
-31.1794
-30.6278
-30.2957
-30.1396
-34.1179
-31.9592
-31.9486
-29.1984
-26.7136
-27.2878
-26.2551
-24.9718
-25.6804
-25.4877
-26.1953
-25.2162
-24.6109
-25.2859
-23.9488
-22.6564
-23.2845
-22.8094
-22.107
-22.6768
-22.6309
-23.1519
-22.5445
-22.1745
-22.628
-21.7951
-21.0244
-21.4408
-21.3676
-21.7583
-21.2508
-20.9325
-21.248
-20.5759
-19.9423
-20.1724
-19.916
-19.5837
-19.6941
-19.566
-19.563
-19.2982
-19.086
-18.8842
-18.8731
-19.0138
-18.5568
-18.6135
-19.0085
-18.1374
-17.9101
-16.652
-17.975
-19.3455
-17.9947
-25.3765
-36.6357
-35.7916
-33.7707
-32.2972
-31.3363
-30.7289
-30.3702
-30.2033
-35.0133
-31.9612
-32.7259
-29.2296
-26.0722
-27.5182
-26.2288
-24.4861
-25.7603
-25.3482
-26.5635
-25.1743
-24.3959
-25.7046
-23.9172
-22.203
-23.4125
-22.7821
-21.7793
-22.7217
-22.5337
-23.3881
-22.5084
-22.024
-22.8815
-21.7539
-20.7233
-21.4646
-21.2789
-21.9381
-21.2144
-20.8083
-21.4344
-20.5393
-19.7147
-20.2022
-19.8741
-19.4334
-19.6737
-19.4943
-19.5589
-19.2229
-18.9932
-18.7443
-18.7494
-19.0211
-18.3342
-18.4301
-19.1147
-17.8356
-17.7557
-15.7292
-17.5162
-19.2494
-15.743
-24.7261
-39.8077
-37.0707
-34.2686
-32.5255
-31.4604
-30.8072
-30.4273
-30.2518
-36.0744
-31.7078
-33.7547
-29.2366
-25.1501
-27.9216
-26.2341
-23.8194
-25.9495
-25.106
-27.0903
-25.0932
-24.0506
-26.3125
-23.882
-21.5734
-23.6581
-22.7809
-21.3356
-22.8401
-22.3711
-23.7303
-22.4473
-21.7902
-23.2571
-21.7079
-20.3165
-21.5493
-21.1376
-22.2027
-21.1583
-20.6204
-21.7147
-20.4995
-19.409
-20.2852
-19.8415
-19.244
-19.6822
-19.4096
-19.5819
-19.1438
-18.9058
-18.5935
-18.6134
-19.0923
-18.0689
-18.2154
-19.3477
-17.467
-17.7381
-14.5908
-17.081
-19.5074
-12.7512
-23.6953
-44.0366
-38.3005
-34.674
-32.6983
-31.5512
-30.8636
-30.4681
-30.2864
-37.3572
-31.0731
-35.1408
-29.2167
-23.8475
-28.5804
-26.2837
-22.9032
-26.3121
-24.7015
-27.8381
-24.9573
-23.518
-27.1816
-23.8409
-20.7018
-24.0744
-22.8147
-20.7304
-23.0741
-22.1039
-24.2195
-22.3505
-21.4365
-23.8011
-21.6544
-19.7664
-21.7308
-20.9122
-22.5851
-21.0736
-20.3407
-22.1244
-20.4539
-18.9962
-20.4455
-19.8199
-18.9994
-19.7339
-19.3013
-19.6413
-19.056
-18.8266
-18.4288
-18.4552
-19.2524
-17.7434
-17.9498
-19.7553
-16.983
-17.9303
-13.1564
-16.6689
-20.3158
-8.80318
-22.1336
-49.6809
-39.3498
-34.9603
-32.8124
-31.6097
-30.8995
-30.4939
-30.3082
-38.9352
-29.8874
-37.0279
-29.1684
-22.0348
-29.604
-26.3913
-21.6457
-26.9394
-24.0492
-28.8908
-24.7464
-22.7225
-28.4055
-23.7914
-19.5034
-24.7325
-22.893
-19.9031
-23.4831
-21.6759
-24.911
-22.2047
-20.9146
-24.5745
-21.5888
-19.0245
-22.0603
-20.5574
-23.1295
-20.9491
-19.9323
-22.7102
-20.3987
-18.4385
-20.7154
-19.8105
-18.6786
-19.849
-19.1549
-19.7503
-18.9525
-18.7607
-18.2478
-18.2612
-19.5352
-17.3362
-17.6067
-20.4023
-16.3126
-18.4346
-11.3202
-16.268
-21.938
-3.63278
-19.8432
-57.2045
-40.0234
-35.1082
-32.8683
-31.6379
-30.9168
-30.5064
-30.3187
)
;

boundaryField
{
    left
    {
        type            calculated;
        value           nonuniform List<scalar> 
32
(
-26.4242
-26.4465
-26.4892
-26.5504
-26.6288
-26.7234
-26.8335
-26.9587
-27.099
-27.2543
-27.4249
-27.6113
-27.8143
-28.0345
-28.2731
-28.5313
-28.8105
-29.1122
-29.4384
-29.7912
-30.1731
-30.5873
-31.0378
-31.53
-32.0713
-32.6721
-33.3473
-34.1179
-35.0133
-36.0744
-37.3572
-38.9352
)
;
    }
    right
    {
        type            calculated;
        value           nonuniform List<scalar> 
32
(
-25.797
-25.8316
-25.8975
-25.9914
-26.1103
-26.2516
-26.413
-26.5921
-26.7868
-26.9945
-27.213
-27.4397
-27.6718
-27.9067
-28.1416
-28.3737
-28.6003
-28.8188
-29.0268
-29.2223
-29.4035
-29.569
-29.7178
-29.8492
-29.9632
-30.0598
-30.1396
-30.2033
-30.2518
-30.2864
-30.3082
-30.3187
)
;
    }
    interface
    {
        type            calculated;
        value           nonuniform List<scalar> 
64
(
-39.8083
-29.1326
-38.1173
-29.1372
-20.9827
-30.2226
-26.4613
-20.9186
-27.3324
-23.6485
-29.5054
-24.6194
-22.2484
-29.1194
-23.7644
-18.8107
-25.1322
-22.9446
-19.4253
-23.74
-21.4135
-25.3151
-22.1177
-20.6047
-25.0271
-21.5524
-18.5987
-22.2695
-20.341
-23.4486
-20.8754
-19.6908
-23.0537
-20.3682
-18.1183
-20.8824
-19.809
-18.4963
-19.9254
-19.0701
-19.8192
-18.8959
-18.7318
-18.153
-18.1533
-19.7121
-17.1093
-17.412
-20.7949
-15.9203
-18.7798
-10.2867
-16.0679
-22.9902
-0.705364
-18.4879
-61.5015
-40.2372
-35.1457
-32.882
-31.6449
-30.9211
-30.5095
-30.3213
)
;
    }
    bottom
    {
        type            calculated;
        value           nonuniform List<scalar> 
64
(
-26.4184
-26.391
-26.3369
-26.2577
-26.1555
-26.0327
-25.892
-25.7363
-25.5684
-25.3907
-25.2057
-25.0155
-24.8221
-24.6271
-24.4321
-24.2384
-24.047
-23.859
-23.675
-23.4956
-23.3214
-23.1526
-22.9896
-22.8325
-22.6816
-22.5372
-22.3995
-22.2689
-22.1457
-22.0305
-21.9237
-21.8261
-21.7384
-21.6614
-21.596
-21.5433
-21.5043
-21.4803
-21.4724
-21.4819
-21.5101
-21.5581
-21.6273
-21.7187
-21.8333
-21.9718
-22.1345
-22.3215
-22.532
-22.7645
-23.0167
-23.2854
-23.5662
-23.854
-24.1427
-24.4258
-24.6967
-24.9488
-25.1761
-25.3733
-25.536
-25.6608
-25.7453
-25.788
)
;
    }
    defaultFaces
    {
        type            empty;
    }
}


// ************************************************************************* //
