/*--------------------------------*- C++ -*----------------------------------*\
| =========                 |                                                 |
| \\      /  F ield         | OpenFOAM: The Open Source CFD Toolbox           |
|  \\    /   O peration     | Version:  5.x                                   |
|   \\  /    A nd           | Web:      www.OpenFOAM.org                      |
|    \\/     M anipulation  |                                                 |
\*---------------------------------------------------------------------------*/
FoamFile
{
    version     2.0;
    format      ascii;
    class       volScalarField;
    location    "3.4";
    object      gradTy;
}
// * * * * * * * * * * * * * * * * * * * * * * * * * * * * * * * * * * * * * //

dimensions      [0 -1 0 1 0 0 0];

internalField   nonuniform List<scalar> 
2048
(
-26.424
-26.3964
-26.342
-26.2624
-26.1596
-26.0362
-25.8949
-25.7387
-25.5701
-25.3919
-25.2065
-25.0159
-24.822
-24.6267
-24.4314
-24.2374
-24.0458
-23.8575
-23.6734
-23.4939
-23.3196
-23.1507
-22.9875
-22.8303
-22.6793
-22.5348
-22.397
-22.2662
-22.1429
-22.0275
-21.9205
-21.8227
-21.7347
-21.6574
-21.5918
-21.5388
-21.4995
-21.4752
-21.467
-21.4762
-21.504
-21.5518
-21.6207
-21.7119
-21.8263
-21.9647
-22.1275
-22.3146
-22.5254
-22.7584
-23.0114
-23.281
-23.5629
-23.852
-24.1422
-24.4268
-24.6991
-24.9525
-25.181
-25.3791
-25.5426
-25.6679
-25.7528
-25.7956
-26.4463
-26.418
-26.3624
-26.2811
-26.1762
-26.0506
-25.9071
-25.7486
-25.5779
-25.3978
-25.2106
-25.0184
-24.8233
-24.6267
-24.4303
-24.2354
-24.0431
-23.8542
-23.6696
-23.4898
-23.3151
-23.146
-22.9827
-22.8253
-22.6741
-22.5293
-22.3913
-22.2602
-22.1365
-22.0206
-21.9132
-21.8147
-21.7261
-21.648
-21.5815
-21.5276
-21.4874
-21.4621
-21.4529
-21.4611
-21.4879
-21.5347
-21.6027
-21.693
-21.8069
-21.9449
-22.1078
-22.2955
-22.5074
-22.7423
-22.9979
-23.271
-23.5572
-23.8512
-24.1466
-24.4367
-24.7144
-24.9727
-25.2055
-25.4072
-25.5734
-25.7007
-25.7868
-25.8303
-26.489
-26.4595
-26.4014
-26.3168
-26.2079
-26.078
-25.93
-25.7672
-25.5926
-25.4088
-25.2183
-25.0232
-24.8254
-24.6266
-24.4282
-24.2316
-24.0379
-23.8479
-23.6623
-23.4818
-23.3067
-23.1372
-22.9735
-22.8158
-22.6643
-22.5191
-22.3805
-22.2488
-22.1244
-22.0077
-21.8993
-21.7997
-21.7097
-21.6303
-21.5622
-21.5066
-21.4646
-21.4374
-21.4263
-21.4325
-21.4574
-21.5022
-21.5684
-21.6573
-21.7699
-21.9073
-22.0702
-22.2588
-22.4728
-22.7112
-22.9718
-23.2515
-23.5458
-23.8492
-24.1549
-24.4556
-24.7436
-25.0114
-25.2524
-25.4608
-25.6322
-25.7632
-25.8517
-25.8962
-26.5502
-26.5188
-26.4572
-26.3676
-26.2529
-26.1166
-25.9622
-25.7933
-25.613
-25.424
-25.2289
-25.0297
-24.8282
-24.6262
-24.425
-24.226
-24.0302
-23.8387
-23.6519
-23.4705
-23.2948
-23.1248
-22.9606
-22.8025
-22.6504
-22.5047
-22.3654
-22.2329
-22.1075
-21.9896
-21.8798
-21.7787
-21.6869
-21.6054
-21.5351
-21.4771
-21.4325
-21.4027
-21.3888
-21.3922
-21.4143
-21.4564
-21.5201
-21.6066
-21.7174
-21.8537
-22.0164
-22.2061
-22.4229
-22.666
-22.9336
-23.2227
-23.5287
-23.8457
-24.1664
-24.4825
-24.7854
-25.067
-25.3198
-25.5377
-25.7163
-25.8524
-25.9441
-25.9901
-26.6286
-26.5947
-26.5282
-26.432
-26.3095
-26.1649
-26.0023
-25.8255
-25.6379
-25.4425
-25.2416
-25.0373
-24.8313
-24.6252
-24.4205
-24.2185
-24.0203
-23.8268
-23.6386
-23.4562
-23.2797
-23.1091
-22.9445
-22.7859
-22.6333
-22.4868
-22.3466
-22.2131
-22.0865
-21.9672
-21.8557
-21.7526
-21.6585
-21.5744
-21.5013
-21.4403
-21.3925
-21.3593
-21.342
-21.3419
-21.3604
-21.399
-21.4593
-21.5428
-21.6511
-21.7857
-21.9478
-22.1386
-22.3586
-22.6074
-22.8836
-23.1845
-23.5054
-23.84
-24.1802
-24.5165
-24.839
-25.1383
-25.4062
-25.6362
-25.8237
-25.9659
-26.0612
-26.109
-26.7232
-26.686
-26.6134
-26.5087
-26.3765
-26.2216
-26.0488
-25.8625
-25.6663
-25.4633
-25.2557
-25.0455
-24.8342
-24.6235
-24.4147
-24.2092
-24.0081
-23.8124
-23.6226
-23.439
-23.2618
-23.0907
-22.9256
-22.7665
-22.6132
-22.466
-22.3249
-22.1902
-22.0623
-21.9413
-21.8278
-21.7224
-21.6256
-21.5385
-21.462
-21.3974
-21.3458
-21.3087
-21.2873
-21.2829
-21.2972
-21.3316
-21.3877
-21.4674
-21.5725
-21.7046
-21.8657
-22.0573
-22.2804
-22.5354
-22.8215
-23.1363
-23.4753
-23.8314
-24.1956
-24.5569
-24.9036
-25.2247
-25.5107
-25.7548
-25.9525
-26.1014
-26.2008
-26.2504
-26.8333
-26.792
-26.7117
-26.5967
-26.4526
-26.2852
-26.1004
-25.9031
-25.6971
-25.4856
-25.2706
-25.0539
-24.8368
-24.6209
-24.4075
-24.198
-23.9937
-23.7955
-23.6039
-23.4193
-23.2414
-23.0699
-22.9045
-22.7448
-22.5909
-22.4428
-22.3007
-22.1648
-22.0353
-21.9126
-21.7969
-21.6888
-21.589
-21.4984
-21.4181
-21.3494
-21.2936
-21.2519
-21.2259
-21.2167
-21.2261
-21.2556
-21.3069
-21.3819
-21.4829
-21.6119
-21.7711
-21.9628
-22.1887
-22.4501
-22.747
-23.0776
-23.4374
-23.819
-24.2119
-24.6032
-24.979
-25.3258
-25.6329
-25.8928
-26.1014
-26.2573
-26.3605
-26.4119
-26.9586
-26.9122
-26.8225
-26.695
-26.5365
-26.3546
-26.1559
-25.946
-25.7293
-25.5086
-25.2857
-25.062
-24.8387
-24.6171
-24.3986
-24.1847
-23.9769
-23.776
-23.5828
-23.3972
-23.2188
-23.0471
-22.8814
-22.7214
-22.5668
-22.4178
-22.2745
-22.1373
-22.0063
-21.8817
-21.7637
-21.6528
-21.5496
-21.4551
-21.3706
-21.2973
-21.2367
-21.1901
-21.1589
-21.1445
-21.1484
-21.1723
-21.218
-21.2877
-21.3837
-21.5085
-21.6649
-21.8558
-22.0839
-22.3515
-22.6596
-23.0073
-23.3906
-23.8016
-24.2283
-24.6551
-25.0649
-25.4416
-25.7724
-26.0495
-26.2693
-26.4317
-26.5384
-26.5911
-27.0988
-27.0463
-26.9452
-26.8026
-26.6272
-26.4283
-26.2138
-25.9902
-25.7619
-25.5316
-25.3005
-25.0697
-24.8399
-24.6122
-24.3881
-24.1694
-23.9577
-23.7541
-23.5592
-23.3728
-23.1943
-23.0226
-22.8569
-22.6965
-22.5412
-22.3912
-22.2468
-22.1083
-21.9757
-21.8492
-21.7288
-21.6148
-21.508
-21.4093
-21.3201
-21.2419
-21.1761
-21.1242
-21.0874
-21.0673
-21.0652
-21.0829
-21.1224
-21.1859
-21.276
-21.3957
-21.5482
-21.7371
-21.9663
-22.2392
-22.5584
-22.9243
-23.3337
-23.7782
-24.2439
-24.7122
-25.1618
-25.5726
-25.9296
-26.2246
-26.4552
-26.6232
-26.7323
-26.7858
-27.2541
-27.1942
-27.0793
-26.9187
-26.7235
-26.505
-26.2729
-26.0344
-25.794
-25.5538
-25.3147
-25.0766
-24.8401
-24.6059
-24.3759
-24.1519
-23.9361
-23.7296
-23.5332
-23.3463
-23.168
-22.9967
-22.8312
-22.6706
-22.5146
-22.3636
-22.218
-22.0781
-21.944
-21.8156
-21.6928
-21.5756
-21.4649
-21.3617
-21.2674
-21.1839
-21.1125
-21.0549
-21.0124
-20.9861
-20.9777
-20.9887
-21.0212
-21.0777
-21.1611
-21.2745
-21.4218
-21.6074
-21.8361
-22.1131
-22.4429
-22.8275
-23.2651
-23.7471
-24.2579
-24.7744
-25.27
-25.7195
-26.105
-26.418
-26.6582
-26.8302
-26.9402
-26.9936
-27.4248
-27.3558
-27.2245
-27.0425
-26.8242
-26.5835
-26.3319
-26.0774
-25.8245
-25.5747
-25.3277
-25.0827
-24.8393
-24.5985
-24.362
-24.1323
-23.9119
-23.7025
-23.5047
-23.3179
-23.1403
-22.9699
-22.8048
-22.6441
-22.4874
-22.3352
-22.1882
-22.047
-21.9116
-21.7815
-21.6562
-21.5358
-21.4209
-21.3128
-21.2131
-21.1238
-21.0467
-20.9831
-20.9345
-20.9019
-20.8867
-20.8906
-20.9156
-20.9644
-21.04
-21.146
-21.2868
-21.4673
-21.6938
-21.9731
-22.3121
-22.7155
-23.1831
-23.7069
-24.2691
-24.8416
-25.3904
-25.8836
-26.2995
-26.6299
-26.8776
-27.051
-27.1599
-27.2122
-27.6112
-27.5314
-27.3804
-27.1732
-26.9281
-26.6623
-26.3893
-26.118
-25.8527
-25.5938
-25.3396
-25.0879
-24.8378
-24.5899
-24.3463
-24.1103
-23.8851
-23.6727
-23.4739
-23.2875
-23.1113
-22.9424
-22.7782
-22.6174
-22.4598
-22.3063
-22.1578
-22.0154
-21.8788
-21.7471
-21.6196
-21.4958
-21.3765
-21.2631
-21.1576
-21.0623
-20.9791
-20.9095
-20.8546
-20.8155
-20.7933
-20.7896
-20.8065
-20.8469
-20.914
-21.0115
-21.1442
-21.3178
-21.5398
-21.8191
-22.1653
-22.5866
-23.0857
-23.6556
-24.2763
-24.9138
-25.5244
-26.0665
-26.5142
-26.8605
-27.1124
-27.2839
-27.3892
-27.4389
-27.8142
-27.7213
-27.5468
-27.31
-27.0339
-26.7399
-26.4436
-26.1549
-25.8776
-25.6106
-25.3502
-25.0924
-24.8356
-24.5804
-24.329
-24.086
-23.8554
-23.64
-23.4405
-23.2554
-23.0814
-22.9146
-22.7516
-22.5908
-22.4322
-22.277
-22.1269
-21.9833
-21.8459
-21.713
-21.5833
-21.4562
-21.3323
-21.2131
-21.1014
-20.9997
-20.9102
-20.8344
-20.7733
-20.7276
-20.6983
-20.6866
-20.6949
-20.7263
-20.784
-20.872
-20.9951
-21.1599
-21.3749
-21.6511
-22.0018
-22.4395
-22.9708
-23.5909
-24.2781
-24.9912
-25.6735
-26.2706
-26.7509
-27.11
-27.3619
-27.5272
-27.6256
-27.6712
-28.0344
-27.9259
-27.7235
-27.4518
-27.1401
-26.8147
-26.4936
-26.1871
-25.8986
-25.6249
-25.3595
-25.0964
-24.8332
-24.5701
-24.3102
-24.0591
-23.8228
-23.6043
-23.4045
-23.2214
-23.0508
-22.887
-22.7256
-22.5648
-22.4049
-22.2475
-22.0955
-21.9509
-21.8131
-21.6796
-21.5479
-21.4174
-21.2886
-21.1633
-21.0448
-20.9364
-20.8405
-20.7585
-20.6912
-20.639
-20.6023
-20.5824
-20.5817
-20.6034
-20.6511
-20.7286
-20.8408
-20.9947
-21.1998
-21.4694
-21.8209
-22.2723
-22.8359
-23.5101
-24.2725
-25.0739
-25.8401
-26.4986
-27.0113
-27.3789
-27.6248
-27.7788
-27.8667
-27.9062
-28.2731
-28.1458
-27.9105
-27.5979
-27.2453
-26.8852
-26.5375
-26.2132
-25.9149
-25.6364
-25.3678
-25.1003
-24.8307
-24.5595
-24.2898
-24.0297
-23.787
-23.5654
-23.3657
-23.1858
-23.0197
-22.8599
-22.7005
-22.5397
-22.3781
-22.2179
-22.0635
-21.9181
-21.7806
-21.647
-21.5138
-21.3799
-21.2459
-21.1138
-20.988
-20.8726
-20.7702
-20.682
-20.6088
-20.5502
-20.5062
-20.4778
-20.4677
-20.4793
-20.5163
-20.5824
-20.6824
-20.8234
-21.0157
-21.2745
-21.6221
-22.0835
-22.6784
-23.4101
-24.2571
-25.1621
-26.0272
-26.7542
-27.2978
-27.6674
-27.9001
-28.0366
-28.1097
-28.1411
-28.5312
-28.3816
-28.1074
-27.7469
-27.3476
-26.9497
-26.5741
-26.2321
-25.9258
-25.6451
-25.3754
-25.1045
-24.8288
-24.5489
-24.2682
-23.9974
-23.7478
-23.523
-23.3239
-23.1485
-22.9885
-22.8339
-22.6769
-22.5159
-22.3522
-22.1883
-22.0308
-21.885
-21.7486
-21.6158
-21.4813
-21.344
-21.2046
-21.0651
-20.9312
-20.8086
-20.6996
-20.6054
-20.5265
-20.4618
-20.4106
-20.3735
-20.3534
-20.3545
-20.3805
-20.4346
-20.5212
-20.6475
-20.824
-21.0672
-21.4051
-21.8714
-22.4956
-23.2873
-24.2287
-25.2558
-26.2386
-27.0418
-27.6128
-27.9757
-28.186
-28.298
-28.3521
-28.3733
-28.8104
-28.6339
-28.3145
-27.8979
-27.4453
-27.0066
-26.6019
-26.2425
-25.9306
-25.651
-25.383
-25.1095
-24.8278
-24.539
-24.2452
-23.962
-23.705
-23.4769
-23.2788
-23.1095
-22.9575
-22.8095
-22.6551
-22.4936
-22.3274
-22.1585
-21.9971
-21.8512
-21.7172
-21.5864
-21.4509
-21.31
-21.165
-21.0173
-20.8744
-20.7444
-20.6289
-20.5288
-20.4447
-20.3744
-20.3162
-20.27
-20.2396
-20.2298
-20.2446
-20.2863
-20.3584
-20.4685
-20.6261
-20.8484
-21.1699
-21.6346
-22.2847
-23.1377
-24.1833
-25.355
-26.4794
-27.3668
-27.9589
-28.3034
-28.4807
-28.5606
-28.5911
-28.6
-29.1122
-28.9035
-28.5316
-28.0495
-27.5359
-27.0543
-26.6197
-26.243
-25.929
-25.6544
-25.3913
-25.1159
-24.8283
-24.5306
-24.2213
-23.9229
-23.6584
-23.4269
-23.2301
-23.0687
-22.9271
-22.7875
-22.6356
-22.4733
-22.3041
-22.1286
-21.9618
-21.8166
-21.6865
-21.5591
-21.4228
-21.2784
-21.1278
-20.9705
-20.8176
-20.6802
-20.5582
-20.4524
-20.3637
-20.2884
-20.2234
-20.168
-20.1267
-20.1056
-20.1092
-20.1385
-20.1951
-20.2878
-20.4241
-20.6196
-20.9167
-21.3716
-22.0431
-22.9568
-24.115
-25.4593
-26.7562
-27.7358
-28.3386
-28.6499
-28.7818
-28.8216
-28.8239
-28.8186
-29.4384
-29.1906
-28.7591
-28.2001
-27.617
-27.0914
-26.6261
-26.2322
-25.9203
-25.6555
-25.4014
-25.1243
-24.8305
-24.5245
-24.1963
-23.8795
-23.6078
-23.3728
-23.1771
-23.0262
-22.8976
-22.7685
-22.6189
-22.4552
-22.283
-22.0984
-21.9241
-21.7808
-21.6567
-21.5345
-21.3974
-21.2493
-21.0933
-20.925
-20.7605
-20.616
-20.4877
-20.3762
-20.2839
-20.2043
-20.1329
-20.0678
-20.015
-19.9824
-19.9751
-19.9921
-20.0325
-20.1072
-20.2202
-20.3824
-20.646
-21.081
-21.7683
-22.7397
-24.0163
-25.5675
-27.0781
-28.1564
-28.7544
-29.0136
-29.0865
-29.0779
-29.0479
-29.0267
-29.7912
-29.4956
-28.9977
-28.3482
-27.685
-27.117
-26.6206
-26.2085
-25.9041
-25.6548
-25.4148
-25.135
-24.8346
-24.5224
-24.1706
-23.8305
-23.5534
-23.3146
-23.1191
-22.9818
-22.8694
-22.7538
-22.6052
-22.4392
-22.2649
-22.0678
-21.883
-21.7434
-21.6279
-21.5135
-21.3749
-21.2227
-21.0624
-20.8809
-20.7026
-20.5519
-20.4175
-20.3002
-20.2054
-20.1225
-20.0454
-19.97
-19.9049
-19.8603
-19.8429
-19.8482
-19.8713
-19.928
-20.017
-20.1388
-20.3589
-20.7614
-21.4586
-22.4818
-23.8768
-25.6778
-27.4569
-28.6376
-29.2078
-29.3922
-29.3913
-29.3267
-29.2607
-29.2223
-30.1731
-29.8178
-29.2487
-28.492
-27.7358
-27.1307
-26.6025
-26.1695
-25.8804
-25.6528
-25.4336
-25.1483
-24.8404
-24.5262
-24.1443
-23.7742
-23.4955
-23.2525
-23.0548
-22.9356
-22.843
-22.7447
-22.5947
-22.4252
-22.251
-22.0367
-21.8369
-21.704
-21.6001
-21.4971
-21.3555
-21.1985
-21.036
-20.8382
-20.6431
-20.4881
-20.3478
-20.2241
-20.1285
-20.0433
-19.9613
-19.8749
-19.7964
-19.7396
-19.713
-19.7078
-19.7121
-19.7518
-19.8175
-19.891
-20.0567
-20.4114
-21.1132
-22.1792
-23.6825
-25.7866
-27.909
-29.1898
-29.6997
-29.7824
-29.6926
-29.5649
-29.4602
-29.4035
-30.5873
-30.1555
-29.5145
-28.6294
-27.7637
-27.1332
-26.5721
-26.1125
-25.8493
-25.6496
-25.4606
-25.1642
-24.8468
-24.5392
-24.1174
-23.7078
-23.4352
-23.1867
-22.9825
-22.8877
-22.8185
-22.7431
-22.5874
-22.4124
-22.2431
-22.005
-21.7835
-21.6624
-21.5734
-21.4866
-21.339
-21.1762
-21.0156
-20.7969
-20.5807
-20.425
-20.2788
-20.1475
-20.0535
-19.9672
-19.8816
-19.7828
-19.6897
-19.6199
-19.5858
-19.5723
-19.5549
-19.5796
-19.6257
-19.6412
-19.7416
-20.0289
-20.7326
-21.8295
-23.4143
-25.8883
-28.4569
-29.824
-30.229
-30.1794
-29.986
-29.7895
-29.6443
-29.5691
-31.0378
-30.5049
-29.7995
-28.7584
-27.7609
-27.1267
-26.5302
-26.0333
-25.8114
-25.6452
-25.4999
-25.1821
-24.8518
-24.5658
-24.0902
-23.6272
-23.3745
-23.1183
-22.8997
-22.8387
-22.7958
-22.7516
-22.5828
-22.3995
-22.2443
-21.9725
-21.72
-21.6185
-21.5475
-21.4843
-21.3252
-21.1545
-21.0033
-20.7572
-20.5135
-20.3634
-20.2109
-20.0695
-19.9808
-19.8943
-19.8069
-19.6939
-19.5847
-19.5009
-19.4615
-19.4431
-19.3992
-19.4123
-19.4459
-19.3916
-19.4165
-19.6105
-20.319
-21.4334
-23.0463
-25.9738
-29.1317
-30.5516
-30.7926
-30.5773
-30.2671
-29.9979
-29.8116
-29.7179
-31.53
-30.8591
-30.1105
-28.8767
-27.7166
-27.116
-26.4785
-25.926
-25.7687
-25.6387
-25.5572
-25.2006
-24.8515
-24.613
-24.0627
-23.526
-23.3167
-23.0484
-22.8024
-22.7896
-22.7743
-22.774
-22.5802
-22.384
-22.2587
-21.9392
-21.6419
-21.5729
-21.522
-21.493
-21.3134
-21.1316
-21.0025
-20.7188
-20.4384
-20.3048
-20.1447
-19.9889
-19.911
-19.8247
-19.7384
-19.6085
-19.4813
-19.382
-19.3402
-19.3225
-19.2439
-19.2499
-19.284
-19.1437
-19.086
-19.1512
-19.8765
-20.9969
-22.5434
-26.0294
-29.9765
-31.3832
-31.3845
-30.9689
-30.5313
-30.1877
-29.9609
-29.8494
-32.0713
-31.2064
-30.4588
-28.9822
-27.6156
-27.1095
-26.4201
-25.7819
-25.7249
-25.6274
-25.6408
-25.2176
-24.8398
-24.6907
-24.035
-23.3948
-23.2675
-22.9792
-22.685
-22.743
-22.7523
-22.8157
-22.5779
-22.3618
-22.2928
-21.905
-21.5433
-21.5274
-21.4952
-21.517
-21.3023
-21.1042
-21.0179
-20.6818
-20.3512
-20.2515
-20.0809
-19.9037
-19.845
-19.7581
-19.6775
-19.5266
-19.3795
-19.2622
-19.2216
-19.2134
-19.0864
-19.0916
-19.1473
-18.8979
-18.7567
-18.6426
-19.4114
-20.5341
-21.859
-26.0345
-31.0509
-32.3267
-31.9948
-31.346
-30.7741
-30.3568
-30.0915
-29.9635
-32.6721
-31.5277
-30.8618
-29.0725
-27.4365
-27.1205
-26.3592
-25.5883
-25.6867
-25.606
-25.7626
-25.2296
-24.8067
-24.8136
-24.0071
-23.2203
-23.2358
-22.9134
-22.5388
-22.7029
-22.726
-22.8845
-22.5737
-22.3266
-22.3559
-21.8698
-21.4158
-21.4854
-21.4645
-21.5627
-21.2901
-21.0673
-21.0565
-20.6459
-20.2457
-20.2071
-20.0205
-19.8108
-19.7847
-19.6938
-19.6259
-19.4479
-19.2793
-19.1403
-19.1051
-19.1205
-18.9231
-18.9355
-19.0458
-18.6524
-18.439
-18.0713
-18.9322
-20.0712
-20.9311
-25.9589
-32.4373
-33.3841
-32.6093
-31.6994
-30.9914
-30.504
-30.2032
-30.0601
-33.3473
-31.7935
-31.3457
-29.1453
-27.1495
-27.1698
-26.3016
-25.327
-25.6656
-25.565
-25.9395
-25.2315
-24.7376
-25.0023
-23.9786
-22.9831
-23.2349
-22.8551
-22.3519
-22.6768
-22.6892
-22.9913
-22.5641
-22.2687
-22.4614
-21.8333
-21.2479
-21.453
-21.4248
-21.6389
-21.2741
-21.0136
-21.1284
-20.6107
-20.1132
-20.1777
-19.9648
-19.7058
-19.7326
-19.6303
-19.5863
-19.3717
-19.1809
-19.0146
-18.9893
-19.0503
-18.7485
-18.7776
-18.9929
-18.402
-18.1483
-17.4171
-18.4493
-19.652
-19.6779
-25.7597
-34.2484
-34.5476
-33.2093
-32.0197
-31.1799
-30.6283
-30.296
-30.1399
-34.1178
-31.9596
-31.9488
-29.1986
-26.7135
-27.2878
-26.255
-24.9718
-25.6805
-25.4878
-26.1954
-25.2162
-24.6109
-25.286
-23.949
-22.6563
-23.2845
-22.8092
-22.1067
-22.6767
-22.6309
-23.152
-22.5445
-22.1744
-22.628
-21.795
-21.0241
-21.4406
-21.3674
-21.7582
-21.2506
-20.9322
-21.2478
-20.5754
-19.9414
-20.1717
-19.9152
-19.5826
-19.6931
-19.565
-19.5621
-19.2971
-19.0847
-18.8831
-18.8716
-19.0121
-18.5552
-18.6118
-19.0069
-18.1356
-17.9083
-16.65
-17.9734
-19.3444
-17.9934
-25.3766
-36.6373
-35.793
-33.7718
-32.298
-31.3369
-30.7294
-30.3706
-30.2037
-35.0132
-31.9616
-32.7263
-29.2299
-26.0722
-27.5182
-26.2286
-24.486
-25.7604
-25.3483
-26.5637
-25.1742
-24.396
-25.7048
-23.9176
-22.203
-23.4126
-22.7819
-21.7791
-22.7216
-22.5338
-23.3884
-22.5084
-22.0239
-22.8817
-21.7538
-20.7229
-21.4645
-21.2788
-21.9382
-21.2142
-20.808
-21.4345
-20.5389
-19.7137
-20.2016
-19.8733
-19.4323
-19.6729
-19.4934
-19.5583
-19.2219
-18.992
-18.7433
-18.7481
-19.0195
-18.3327
-18.4285
-19.1131
-17.8339
-17.754
-15.7271
-17.5147
-19.2484
-15.7414
-24.7262
-39.8099
-37.0723
-34.2698
-32.5264
-31.4611
-30.8078
-30.4278
-30.2523
-36.0743
-31.7084
-33.7554
-29.2371
-25.1501
-27.9215
-26.2337
-23.8193
-25.9495
-25.1061
-27.0906
-25.0931
-24.0507
-26.3128
-23.8826
-21.5734
-23.6584
-22.7807
-21.3353
-22.8401
-22.3713
-23.7307
-22.4474
-21.7902
-23.2574
-21.7079
-20.316
-21.5493
-21.1375
-22.2031
-21.1582
-20.6201
-21.7151
-20.4993
-19.4081
-20.2849
-19.841
-19.2429
-19.6816
-19.4088
-19.5816
-19.143
-18.9047
-18.5928
-18.6122
-19.0907
-18.0675
-18.214
-19.3464
-17.4654
-17.7365
-14.5887
-17.0796
-19.5067
-12.7492
-23.6957
-44.0395
-38.3024
-34.6754
-32.6993
-31.552
-30.8643
-30.4687
-30.2869
-37.357
-31.0738
-35.142
-29.2175
-23.8478
-28.5803
-26.2832
-22.903
-26.3122
-24.7016
-27.8385
-24.9571
-23.5181
-27.182
-23.8418
-20.7019
-24.0749
-22.8144
-20.73
-23.0741
-22.1041
-24.2202
-22.3507
-21.4365
-23.8018
-21.6545
-19.766
-21.731
-20.9122
-22.5858
-21.0737
-20.3405
-22.1253
-20.4539
-18.9952
-20.4456
-19.8196
-18.9984
-19.7337
-19.3007
-19.6414
-19.0554
-18.8258
-18.4286
-18.4543
-19.2511
-17.7423
-17.9486
-19.7544
-16.9817
-17.9291
-13.1543
-16.6677
-20.3156
-8.80076
-22.1341
-49.6849
-39.3521
-34.9619
-32.8135
-31.6106
-30.9003
-30.4947
-30.3088
-38.9365
-29.8873
-37.0287
-29.1666
-22.0359
-29.6047
-26.391
-21.6458
-26.9397
-24.0492
-28.8914
-24.7457
-22.7227
-28.4062
-23.7914
-19.503
-24.7328
-22.8928
-19.9028
-23.4832
-21.6758
-24.9116
-22.2047
-20.9143
-24.5752
-21.5888
-19.0235
-22.0604
-20.557
-23.1303
-20.949
-19.9317
-22.7112
-20.3983
-18.4368
-20.7153
-19.8098
-18.6769
-19.8485
-19.1538
-19.7503
-18.9514
-18.7592
-18.2474
-18.2597
-19.5333
-17.3347
-17.6049
-20.4008
-16.3105
-18.4331
-11.3171
-16.2661
-21.9379
-3.62898
-19.8432
-57.2093
-40.0255
-35.1095
-32.8692
-31.6386
-30.9173
-30.5068
-30.319
)
;

boundaryField
{
    left
    {
        type            calculated;
        value           nonuniform List<scalar> 
32
(
-26.424
-26.4463
-26.489
-26.5502
-26.6286
-26.7232
-26.8333
-26.9586
-27.0988
-27.2541
-27.4248
-27.6112
-27.8142
-28.0344
-28.2731
-28.5312
-28.8104
-29.1122
-29.4384
-29.7912
-30.1731
-30.5873
-31.0378
-31.53
-32.0713
-32.6721
-33.3473
-34.1178
-35.0132
-36.0743
-37.357
-38.9365
)
;
    }
    right
    {
        type            calculated;
        value           nonuniform List<scalar> 
32
(
-25.7956
-25.8303
-25.8962
-25.9901
-26.109
-26.2504
-26.4119
-26.5911
-26.7858
-26.9936
-27.2122
-27.4389
-27.6712
-27.9062
-28.1411
-28.3733
-28.6
-28.8186
-29.0267
-29.2223
-29.4035
-29.5691
-29.7179
-29.8494
-29.9635
-30.0601
-30.1399
-30.2037
-30.2523
-30.2869
-30.3088
-30.319
)
;
    }
    interface
    {
        type            calculated;
        value           nonuniform List<scalar> 
64
(
-39.8113
-29.1319
-38.1174
-29.1327
-20.9844
-30.224
-26.4613
-20.919
-27.3331
-23.6485
-29.5061
-24.6184
-22.2487
-29.1202
-23.7633
-18.8096
-25.132
-22.9444
-19.425
-23.7403
-21.4131
-25.3156
-22.1175
-20.6041
-25.0277
-21.5522
-18.5973
-22.2694
-20.3403
-23.4491
-20.875
-19.6897
-23.0546
-20.3673
-18.1159
-20.8819
-19.8078
-18.4938
-19.9245
-19.0682
-19.8186
-18.8941
-18.7296
-18.152
-18.151
-19.7094
-17.1071
-17.4093
-20.7927
-15.9174
-18.7777
-10.2827
-16.0654
-22.9897
-0.700451
-18.4872
-61.5065
-40.239
-35.1466
-32.8825
-31.6452
-30.9212
-30.5095
-30.3212
)
;
    }
    bottom
    {
        type            calculated;
        value           nonuniform List<scalar> 
64
(
-26.4182
-26.3907
-26.3367
-26.2575
-26.1552
-26.0324
-25.8918
-25.7361
-25.5681
-25.3904
-25.2054
-25.0152
-24.8217
-24.6267
-24.4317
-24.2379
-24.0465
-23.8584
-23.6744
-23.495
-23.3207
-23.1519
-22.9888
-22.8316
-22.6807
-22.5362
-22.3985
-22.2678
-22.1446
-22.0293
-21.9225
-21.8248
-21.737
-21.6599
-21.5945
-21.5417
-21.5027
-21.4786
-21.4707
-21.4801
-21.5082
-21.5562
-21.6254
-21.7168
-21.8313
-21.9698
-22.1326
-22.3196
-22.5301
-22.7626
-23.0149
-23.2836
-23.5644
-23.8522
-24.141
-24.4242
-24.6951
-24.9473
-25.1746
-25.3718
-25.5346
-25.6594
-25.744
-25.7866
)
;
    }
    defaultFaces
    {
        type            empty;
    }
}


// ************************************************************************* //
