/*--------------------------------*- C++ -*----------------------------------*\
| =========                 |                                                 |
| \\      /  F ield         | OpenFOAM: The Open Source CFD Toolbox           |
|  \\    /   O peration     | Version:  5.x                                   |
|   \\  /    A nd           | Web:      www.OpenFOAM.org                      |
|    \\/     M anipulation  |                                                 |
\*---------------------------------------------------------------------------*/
FoamFile
{
    version     2.0;
    format      ascii;
    class       volScalarField;
    location    "1.3";
    object      T;
}
// * * * * * * * * * * * * * * * * * * * * * * * * * * * * * * * * * * * * * //

dimensions      [0 0 0 1 0 0 0];

internalField   nonuniform List<scalar> 
2048
(
9.80995
9.81015
9.81053
9.81109
9.81182
9.81269
9.81368
9.81478
9.81597
9.81723
9.81853
9.81987
9.82123
9.8226
9.82397
9.82532
9.82666
9.82797
9.82925
9.83049
9.83169
9.83285
9.83397
9.83505
9.83607
9.83705
9.83798
9.83885
9.83967
9.84043
9.84113
9.84176
9.84232
9.8428
9.84321
9.84352
9.84373
9.84384
9.84384
9.84372
9.84347
9.84308
9.84254
9.84186
9.84101
9.84
9.83882
9.83748
9.83597
9.83432
9.83253
9.83063
9.82864
9.82662
9.82458
9.82259
9.82069
9.81892
9.81732
9.81594
9.8148
9.81392
9.81333
9.81303
9.43801
9.43859
9.43973
9.4414
9.44356
9.44615
9.44911
9.45238
9.45591
9.45963
9.4635
9.46747
9.4715
9.47556
9.47961
9.48362
9.48758
9.49146
9.49524
9.49892
9.50248
9.50591
9.50922
9.51239
9.51543
9.51832
9.52106
9.52364
9.52607
9.52832
9.53038
9.53226
9.53392
9.53536
9.53655
9.53748
9.53812
9.53845
9.53845
9.5381
9.53736
9.53622
9.53464
9.53262
9.53011
9.52713
9.52364
9.51967
9.51521
9.51031
9.505
9.49935
9.49346
9.48743
9.48139
9.47546
9.4698
9.46453
9.45978
9.45567
9.45228
9.44968
9.44791
9.44703
9.0819
9.08286
9.08475
9.08752
9.09109
9.09536
9.10025
9.10564
9.11144
9.11756
9.12392
9.13044
9.13705
9.1437
9.15034
9.15691
9.16339
9.16973
9.17592
9.18193
9.18775
9.19337
9.19877
9.20395
9.20891
9.21364
9.21812
9.22235
9.22631
9.23
9.23338
9.23645
9.23918
9.24154
9.2435
9.24504
9.24611
9.24667
9.2467
9.24614
9.24496
9.24311
9.24056
9.23726
9.23319
9.22832
9.22263
9.21612
9.20883
9.20078
9.19205
9.18276
9.17305
9.1631
9.15311
9.14332
9.13396
9.12525
9.11741
9.11061
9.10501
9.10072
9.09782
9.09636
8.74069
8.74204
8.74469
8.74856
8.75354
8.7595
8.76629
8.77378
8.78182
8.79029
8.79908
8.80808
8.81721
8.82637
8.83551
8.84456
8.85347
8.86219
8.87069
8.87894
8.88693
8.89464
8.90205
8.90916
8.91597
8.92245
8.92861
8.93442
8.93986
8.94493
8.94959
8.95382
8.95759
8.96085
8.96358
8.96572
8.96722
8.96803
8.96811
8.96738
8.9658
8.96331
8.95985
8.95536
8.94981
8.94314
8.93535
8.92641
8.91636
8.90525
8.89319
8.88031
8.86682
8.85298
8.83907
8.82542
8.81236
8.80021
8.78928
8.77982
8.77204
8.76608
8.76205
8.76002
8.41356
8.4153
8.41872
8.42372
8.43013
8.43779
8.4465
8.45608
8.46634
8.47714
8.48831
8.49975
8.51132
8.52294
8.53451
8.54596
8.55723
8.56824
8.57897
8.58938
8.59945
8.60916
8.6185
8.62747
8.63604
8.64422
8.65198
8.65931
8.66619
8.67259
8.67849
8.68385
8.68863
8.69279
8.69627
8.69902
8.70097
8.70205
8.70221
8.70136
8.69944
8.69637
8.69207
8.68648
8.67953
8.67117
8.66136
8.65008
8.63736
8.62327
8.60791
8.59148
8.57422
8.55647
8.5386
8.52104
8.50424
8.48863
8.47459
8.46245
8.45247
8.44485
8.4397
8.43711
8.09973
8.10188
8.10611
8.11227
8.12015
8.12954
8.1402
8.15187
8.16436
8.17746
8.19099
8.20481
8.21879
8.23281
8.24675
8.26054
8.27408
8.28732
8.30019
8.31268
8.32475
8.33638
8.34758
8.35832
8.36859
8.37839
8.3877
8.3965
8.40476
8.41246
8.41956
8.42603
8.43181
8.43685
8.44108
8.44445
8.44686
8.44825
8.44853
8.44761
8.4454
8.44181
8.43676
8.43015
8.4219
8.41193
8.4002
8.38668
8.37137
8.35435
8.33574
8.31576
8.29471
8.273
8.2511
8.22955
8.20893
8.18977
8.17256
8.15771
8.14553
8.13624
8.12998
8.12683
7.79849
7.80107
7.80615
7.81352
7.82294
7.83412
7.84675
7.86055
7.87526
7.89065
7.90652
7.9227
7.93904
7.9554
7.97166
7.98772
8.00348
8.01887
8.03382
8.0483
8.06229
8.07578
8.08874
8.10118
8.1131
8.12446
8.13526
8.14547
8.15507
8.16403
8.1723
8.17985
8.18661
8.19253
8.19753
8.20152
8.20443
8.20614
8.20658
8.20564
8.20321
8.19918
8.19345
8.1859
8.17644
8.16498
8.15143
8.13575
8.11793
8.09804
8.07621
8.05268
8.02779
8.00203
7.97599
7.95033
7.92576
7.90295
7.8825
7.8649
7.85049
7.83953
7.83216
7.82846
7.50917
7.51222
7.51819
7.52685
7.53787
7.5509
7.56557
7.58153
7.59848
7.61616
7.63434
7.65285
7.67151
7.69017
7.70871
7.72698
7.7449
7.76237
7.77933
7.79573
7.81157
7.82682
7.84148
7.85556
7.86904
7.88191
7.89414
7.90572
7.91662
7.92679
7.93621
7.94482
7.95256
7.95935
7.96511
7.96975
7.97317
7.97525
7.9759
7.97498
7.97238
7.96799
7.96166
7.95328
7.94271
7.92984
7.91457
7.89683
7.87659
7.85389
7.82886
7.80176
7.77297
7.74306
7.71273
7.6828
7.65413
7.62754
7.60376
7.58335
7.5667
7.55407
7.5456
7.54135
7.23115
7.23471
7.24165
7.25167
7.26439
7.27935
7.29612
7.31428
7.33348
7.35345
7.37393
7.39473
7.41568
7.43661
7.45737
7.47781
7.49783
7.51732
7.53621
7.55447
7.57207
7.58901
7.6053
7.62095
7.63593
7.65025
7.66387
7.67677
7.68892
7.70028
7.71081
7.72046
7.72916
7.73683
7.74337
7.74867
7.75263
7.75511
7.756
7.75516
7.75246
7.74777
7.74093
7.7318
7.72022
7.70606
7.68918
7.66948
7.6469
7.62146
7.59326
7.56256
7.5298
7.49561
7.46082
7.42642
7.39346
7.36295
7.33573
7.31245
7.29355
7.27926
7.26971
7.26493
6.96386
6.96796
6.97595
6.98745
7.00196
7.01895
7.03788
7.05829
7.07977
7.10202
7.12478
7.14785
7.17105
7.1942
7.21714
7.23972
7.26178
7.28323
7.30399
7.32402
7.34331
7.36187
7.37972
7.39687
7.4133
7.42901
7.44396
7.45814
7.4715
7.48401
7.49563
7.50631
7.51596
7.52451
7.53183
7.53781
7.54233
7.54524
7.54642
7.54571
7.54298
7.53806
7.53079
7.521
7.50852
7.49317
7.47479
7.45324
7.42843
7.40031
7.36898
7.33468
7.29785
7.25923
7.21978
7.18069
7.14322
7.1086
7.07783
7.05164
7.03049
7.01457
7.00396
6.99867
6.70674
6.71144
6.72057
6.73366
6.7501
6.76922
6.7904
6.8131
6.83687
6.8614
6.88641
6.91172
6.93714
6.96248
6.98757
7.01222
7.03629
7.05964
7.08219
7.10392
7.12483
7.14493
7.16427
7.18285
7.20068
7.21773
7.23397
7.24937
7.2639
7.27753
7.29022
7.3019
7.3125
7.32193
7.33005
7.33673
7.34183
7.34521
7.34671
7.34618
7.34347
7.3384
7.33078
7.32043
7.30714
7.29072
7.27096
7.24768
7.22074
7.19004
7.15562
7.11769
7.07673
7.03351
6.98916
6.9451
6.90288
6.86395
6.82952
6.80039
6.777
6.75949
6.74788
6.7421
6.45929
6.46464
6.47503
6.48984
6.50834
6.52971
6.55323
6.57827
6.60435
6.63113
6.65837
6.68588
6.71348
6.74098
6.76818
6.79488
6.8209
6.84609
6.87038
6.89374
6.91617
6.93775
6.9585
6.97845
6.99762
7.01596
7.03345
7.05004
7.0657
7.08041
7.09413
7.1068
7.11835
7.12865
7.13758
7.14498
7.15069
7.15456
7.15643
7.15613
7.1535
7.14834
7.14046
7.12964
7.11565
7.09826
7.07724
7.05236
7.02341
6.99023
6.95279
6.91124
6.86604
6.81804
6.76854
6.71921
6.67193
6.62849
6.59029
6.5582
6.53261
6.51359
6.50103
6.4948
6.22099
6.22708
6.23885
6.25555
6.27627
6.30002
6.32596
6.35339
6.38178
6.4108
6.44023
6.46989
6.49963
6.52926
6.55854
6.58726
6.61519
6.64217
6.66813
6.69303
6.71692
6.73988
6.76197
6.78325
6.80369
6.82329
6.84198
6.85972
6.87647
6.89222
6.90695
6.9206
6.93308
6.94427
6.95401
6.96214
6.96849
6.97288
6.97515
6.97512
6.97262
6.96745
6.95938
6.94817
6.93359
6.91535
6.8932
6.86685
6.83602
6.80049
6.76011
6.71495
6.66544
6.61247
6.55752
6.50257
6.44991
6.40172
6.35964
6.32459
6.29688
6.27644
6.26303
6.25639
5.9914
5.99831
6.01161
6.03038
6.05348
6.07976
6.10822
6.13807
6.16876
6.19999
6.23155
6.26333
6.29518
6.32689
6.35824
6.38894
6.41874
6.44747
6.47502
6.50138
6.52664
6.55091
6.57428
6.59681
6.6185
6.6393
6.65916
6.678
6.6958
6.71256
6.72826
6.74287
6.75628
6.76836
6.77894
6.78782
6.79482
6.79975
6.80245
6.80274
6.80042
6.79529
6.78711
6.77561
6.76053
6.74156
6.7184
6.69072
6.65818
6.62042
6.57721
6.52848
6.47459
6.41646
6.35574
6.29476
6.23634
6.18315
6.13709
6.09913
6.06941
6.04769
6.03352
6.02654
5.77007
5.77789
5.79289
5.81393
5.83962
5.86857
5.89963
5.93194
5.96493
5.99831
6.03195
6.06579
6.0997
6.13348
6.16686
6.19953
6.23117
6.26158
6.29066
6.31841
6.34495
6.37044
6.39502
6.41875
6.44164
6.46362
6.4846
6.5045
6.52331
6.54103
6.55768
6.57323
6.58756
6.60054
6.61196
6.62161
6.62928
6.63478
6.63794
6.63857
6.63648
6.63146
6.62324
6.61153
6.59605
6.57646
6.55243
6.52357
6.48946
6.44965
6.40374
6.35152
6.29319
6.22971
6.16285
6.09539
6.03077
5.97229
5.92219
5.88139
5.84984
5.82699
5.8122
5.80494
5.55656
5.56541
5.5823
5.60585
5.63434
5.66612
5.69988
5.73468
5.76992
5.80539
5.84104
5.87687
5.9128
5.94861
5.98403
6.01864
6.0521
6.08414
6.11468
6.14373
6.17146
6.19809
6.2238
6.24868
6.27272
6.29585
6.31793
6.33886
6.35862
6.37726
6.39483
6.41129
6.42655
6.44043
6.45271
6.46314
6.4715
6.47759
6.48123
6.48223
6.48042
6.47555
6.46736
6.45553
6.43974
6.41964
6.39486
6.36497
6.32947
6.2878
6.23937
6.18374
6.12096
6.05192
5.97856
5.90407
5.83274
5.76868
5.7145
5.67101
5.63781
5.61404
5.59878
5.59133
5.35048
5.36049
5.37949
5.40581
5.43733
5.47209
5.50864
5.54594
5.5834
5.62086
5.65843
5.6962
5.7341
5.77193
5.80936
5.84593
5.88116
5.91479
5.94672
5.97698
6.00579
6.03347
6.06025
6.08624
6.1114
6.13565
6.15881
6.18071
6.20137
6.22089
6.23934
6.25671
6.27288
6.28768
6.30083
6.31206
6.32112
6.32781
6.33194
6.33335
6.33184
6.32719
6.3191
6.30722
6.2912
6.27069
6.2453
6.21453
6.17783
6.1345
6.08374
6.02485
5.95762
5.88284
5.80257
5.72045
5.6418
5.57185
5.51359
5.46759
5.43303
5.40857
5.393
5.38544
5.15143
5.16275
5.18411
5.21348
5.24829
5.2862
5.32561
5.36543
5.40503
5.44439
5.48377
5.52341
5.56324
5.60304
5.64251
5.68103
5.71801
5.75319
5.78644
5.8178
5.8476
5.87622
5.90402
5.93106
5.95732
5.98268
6.00689
6.02973
6.05124
6.07157
6.09088
6.10913
6.12621
6.14193
6.15598
6.16801
6.17778
6.18509
6.18973
6.19156
6.1904
6.18601
6.17807
6.16621
6.15005
6.12923
6.10335
6.07185
6.03413
5.98938
5.93653
5.87456
5.80292
5.72226
5.63464
5.54418
5.45749
5.38131
5.31904
5.27083
5.2352
5.21033
5.19465
5.18707
4.95904
4.97185
4.99582
5.02858
5.06696
5.10817
5.15052
5.19286
5.23451
5.27563
5.3167
5.35813
5.39985
5.44161
5.48312
5.52362
5.56233
5.599
5.63351
5.66587
5.69653
5.72601
5.75475
5.78281
5.81013
5.83661
5.86187
5.8856
5.90789
5.92898
5.9491
5.96821
5.9862
6.00287
6.01784
6.03068
6.04117
6.04909
6.05425
6.05651
6.05572
6.05165
6.04393
6.03216
6.01593
5.99488
5.96862
5.93654
5.89799
5.85207
5.79742
5.7326
5.65663
5.56995
5.47458
5.37493
5.27935
5.1966
5.13046
5.08039
5.04409
5.0191
5.00351
4.99601
4.77295
4.78744
4.81432
4.85083
4.8931
4.93773
4.98309
5.02794
5.07153
5.11427
5.15689
5.20004
5.2436
5.28727
5.33088
5.37339
5.41379
5.45192
5.48762
5.52087
5.55227
5.5825
5.61213
5.64118
5.66953
5.69713
5.72345
5.74801
5.771
5.79278
5.81369
5.83366
5.85253
5.87018
5.88609
5.89975
5.91096
5.91951
5.92518
5.92788
5.92749
5.92377
5.91633
5.90471
5.88847
5.86727
5.84075
5.80823
5.76903
5.72222
5.66607
5.59869
5.51851
5.42575
5.32223
5.21242
5.10688
5.01723
4.94747
4.89601
4.85947
4.83469
4.81939
4.81207
4.59281
4.60923
4.63929
4.67999
4.72648
4.77463
4.82306
4.87043
4.9158
4.95998
5.00398
5.04881
5.09416
5.1397
5.18546
5.23005
5.2721
5.31164
5.34849
5.3825
5.4145
5.44535
5.47583
5.50584
5.53519
5.56395
5.59135
5.61668
5.64029
5.66267
5.68434
5.70515
5.72489
5.74355
5.76045
5.77492
5.78685
5.79603
5.8022
5.80535
5.80536
5.80204
5.79495
5.78354
5.76733
5.74606
5.71939
5.68654
5.64686
5.59945
5.54218
5.47258
5.38833
5.28949
5.1775
5.05638
4.93956
4.8427
4.76973
4.71744
4.68114
4.65692
4.64211
4.63507
4.41828
4.43693
4.47046
4.51582
4.56693
4.61863
4.67017
4.72008
4.76706
4.81246
4.85764
4.90411
4.95124
4.99855
5.04656
5.09334
5.13695
5.17787
5.21583
5.25045
5.28291
5.31425
5.34557
5.37651
5.40681
5.43678
5.46531
5.49134
5.51546
5.53836
5.56078
5.58241
5.60299
5.6227
5.64064
5.6559
5.66855
5.67836
5.68502
5.68861
5.68905
5.68617
5.67947
5.66834
5.6522
5.63089
5.60419
5.57112
5.5311
5.48343
5.42541
5.35401
5.26587
5.16101
5.04036
4.90657
4.7768
4.6725
4.59689
4.54447
4.50894
4.48563
4.47151
4.46485
4.24902
4.27027
4.30751
4.3581
4.41427
4.46948
4.52418
4.57669
4.62501
4.67143
4.71754
4.76567
4.81454
4.86349
4.9139
4.963
5.00805
5.05032
5.08941
5.12446
5.15722
5.18889
5.22105
5.25293
5.28408
5.31536
5.3451
5.37172
5.39626
5.41954
5.44272
5.46518
5.48654
5.50737
5.52641
5.54243
5.55579
5.56625
5.57337
5.57738
5.57824
5.57585
5.56961
5.55881
5.54277
5.52144
5.49484
5.46162
5.42138
5.3738
5.31544
5.24275
5.15089
5.04014
4.91089
4.7628
4.61794
4.50612
4.42869
4.37693
4.34274
4.32066
4.30744
4.30122
4.08471
4.10906
4.15014
4.20664
4.2684
4.32691
4.38482
4.44005
4.4894
4.5366
4.58334
4.63319
4.68382
4.73416
4.78719
4.83883
4.88511
4.92872
4.96897
5.00424
5.03715
5.06895
5.10201
5.13483
5.16671
5.19944
5.23051
5.25757
5.28241
5.30593
5.32991
5.3532
5.37524
5.39729
5.41753
5.43422
5.4483
5.45943
5.46695
5.47138
5.47266
5.47081
5.46508
5.45467
5.43873
5.41739
5.39104
5.35774
5.31731
5.2702
5.21194
5.13857
5.04312
4.9267
4.78927
4.62495
4.4622
4.34304
4.26488
4.21469
4.1824
4.16189
4.14973
4.14404
3.92502
3.95313
3.99803
4.06124
4.12926
4.19063
4.25185
4.31
4.35995
4.40771
4.45467
4.50642
4.55884
4.61021
4.66616
4.72066
4.76783
4.81279
4.85433
4.88953
4.92245
4.95413
4.9882
5.022
5.05438
5.08875
5.12136
5.14865
5.17368
5.19724
5.2221
5.24626
5.26881
5.29222
5.3138
5.33102
5.34582
5.35767
5.36552
5.37035
5.37203
5.37077
5.36562
5.35569
5.33981
5.31843
5.29251
5.25915
5.21851
5.17232
5.11457
5.04128
4.94228
4.82045
4.6758
4.49296
4.30867
4.18275
4.10528
4.05766
4.02783
4.00919
3.99823
3.99313
3.76959
3.80239
3.8508
3.92173
3.99685
4.06033
4.12498
4.18643
4.23638
4.28454
4.33117
4.38513
4.43943
4.49124
4.55057
4.60837
4.65589
4.70226
4.74532
4.78006
4.81289
4.8441
4.87939
4.91425
4.94677
4.98308
5.01749
5.04471
5.06985
5.09318
5.11909
5.14415
5.16695
5.19192
5.21502
5.23258
5.2481
5.26074
5.26882
5.27404
5.27609
5.27548
5.27098
5.2616
5.24576
5.22424
5.19902
5.16558
5.12456
5.07984
5.02297
4.95073
4.84806
4.72105
4.57099
4.36689
4.15622
4.0248
3.94978
3.90577
3.87894
3.86242
3.85279
3.84833
3.61805
3.65686
3.70803
3.78795
3.87126
3.93562
4.00395
4.06929
4.11836
4.16689
4.21243
4.26912
4.32546
4.3768
4.44018
4.5019
4.54895
4.59686
4.64182
4.67555
4.70826
4.73853
4.77539
4.81141
4.84354
4.88221
4.9188
4.94551
4.97073
4.99345
5.02065
5.0467
5.06935
5.09617
5.12105
5.13862
5.15492
5.16846
5.1766
5.18223
5.18458
5.18471
5.1809
5.17221
5.15632
5.13449
5.11035
5.07677
5.03504
4.99248
4.93673
4.86684
4.76012
4.62804
4.47555
4.24691
4.00343
3.86877
3.79833
3.75901
3.73565
3.72146
3.71326
3.70946
3.47001
3.5167
3.56917
3.65975
3.7527
3.81605
3.88845
3.95858
4.00556
4.05463
4.09798
4.15821
4.21689
4.2664
4.33474
4.40128
4.44662
4.49631
4.54375
4.57568
4.60841
4.63704
4.676
4.71338
4.74429
4.78591
4.82523
4.85076
4.87614
4.89772
4.92661
4.9538
4.97569
5.00477
5.03178
5.04887
5.06604
5.08065
5.08862
5.0947
5.09725
5.09823
5.09517
5.0873
5.07128
5.04885
5.02631
4.99251
4.94952
4.91001
4.8554
4.7896
4.67808
4.54075
4.39044
4.13338
3.84852
3.71437
3.651
3.61738
3.59789
3.58619
3.57947
3.57637
3.32499
3.38224
3.43357
3.53698
3.6415
3.70104
3.77818
3.85443
3.89753
3.9477
3.98728
4.05226
4.11374
4.15943
4.23405
4.30662
4.34845
4.40032
4.45111
4.48013
4.51323
4.53922
4.58107
4.62012
4.64859
4.69399
4.73678
4.76017
4.78597
4.80563
4.83681
4.86535
4.88559
4.91752
4.94715
4.96304
4.98124
4.99717
5.00463
5.01126
5.01386
5.01583
5.01353
5.00672
4.99043
4.96697
4.94679
4.91261
4.86747
4.83226
4.77846
4.71911
4.60153
4.45823
4.31694
4.02687
3.68925
3.56149
3.5079
3.48089
3.46557
3.45647
3.45126
3.44887
3.18245
3.25406
3.30037
3.41951
3.53821
3.58986
3.67278
3.75708
3.79375
3.84616
3.87971
3.95119
4.01616
4.05519
4.1379
4.21817
4.25388
4.3086
4.364
4.38848
4.42269
4.44461
4.49048
4.53166
4.55593
4.60627
4.6535
4.67337
4.70016
4.71679
4.75112
4.78132
4.79865
4.83424
4.86715
4.88081
4.90029
4.91791
4.92437
4.93173
4.93416
4.93731
4.93578
4.9303
4.9136
4.88845
4.87169
4.83694
4.78834
4.75917
4.70526
4.65564
4.53006
4.37919
4.25672
3.92823
3.52275
3.41028
3.36927
3.34959
3.33862
3.33215
3.32847
3.32678
3.04171
3.13305
3.1685
3.3072
3.44359
3.48162
3.57191
3.66692
3.69353
3.75022
3.7745
3.85494
3.92446
3.9528
4.0461
4.13636
4.16228
4.22086
4.28261
4.30024
4.33686
4.35265
4.40415
4.44811
4.46571
4.52257
4.57556
4.58995
4.61873
4.63074
4.66943
4.70177
4.71437
4.75476
4.79184
4.80182
4.823
4.84281
4.84757
4.856
4.8579
4.86253
4.86166
4.85791
4.84065
4.81285
4.80099
4.76544
4.71147
4.69081
4.635
4.59965
4.46329
4.30184
4.21187
3.83866
3.34542
3.26127
3.23539
3.22349
3.21695
3.21311
3.21092
3.20992
2.90196
3.02049
3.03656
3.19994
3.35866
3.37516
3.47519
3.58458
3.59599
3.66032
3.67071
3.76351
3.8391
3.85122
3.9585
4.06175
4.07284
4.13677
4.20728
4.21478
4.25597
4.2627
4.32202
4.3697
4.37722
4.44276
4.5032
4.50936
4.54181
4.54694
4.59167
4.62681
4.63221
4.67895
4.72136
4.72565
4.74917
4.77184
4.77391
4.78394
4.78483
4.79132
4.79096
4.78945
4.77148
4.73965
4.73471
4.69811
4.63608
4.62742
4.56665
4.55181
4.40085
4.22384
4.18499
3.7598
3.15272
3.11548
3.10656
3.1026
3.10044
3.09917
3.09845
3.09812
)
;

boundaryField
{
    left
    {
        type            zeroGradient;
    }
    right
    {
        type            zeroGradient;
    }
    interface
    {
        type            fixedValue;
        value           nonuniform List<scalar> 
64
(
2.8306
2.96826
2.96826
3.14772
3.32102
3.32102
3.42779
3.54706
3.54706
3.61796
3.61796
3.71946
3.79926
3.79926
3.91602
4.02801
4.02801
4.09581
4.17248
4.17248
4.21774
4.21774
4.28262
4.33292
4.33292
4.40444
4.4699
4.4699
4.50561
4.50561
4.55466
4.59178
4.59178
4.64293
4.68893
4.68893
4.7142
4.73886
4.73886
4.75017
4.75017
4.75797
4.75775
4.75775
4.73942
4.70457
4.70457
4.6673
4.59923
4.59923
4.53341
4.53341
4.37232
4.18326
4.18326
3.72705
3.04419
3.04419
3.04419
3.04419
3.04419
3.04419
3.04419
3.04419
)
;
    }
    bottom
    {
        type            fixedValue;
        value           uniform 10;
    }
    defaultFaces
    {
        type            empty;
    }
}


// ************************************************************************* //
