/*--------------------------------*- C++ -*----------------------------------*\
| =========                 |                                                 |
| \\      /  F ield         | OpenFOAM: The Open Source CFD Toolbox           |
|  \\    /   O peration     | Version:  5.x                                   |
|   \\  /    A nd           | Web:      www.OpenFOAM.org                      |
|    \\/     M anipulation  |                                                 |
\*---------------------------------------------------------------------------*/
FoamFile
{
    version     2.0;
    format      ascii;
    class       volScalarField;
    location    "1.5";
    object      gradTx;
}
// * * * * * * * * * * * * * * * * * * * * * * * * * * * * * * * * * * * * * //

dimensions      [0 -1 0 1 0 0 0];

internalField   nonuniform List<scalar> 
2048
(
0.00626763
0.0186148
0.030435
0.0414389
0.0513907
0.0601404
0.067619
0.0738243
0.0788054
0.0826451
0.0854431
0.0873038
0.088329
0.0886156
0.0882558
0.0873389
0.0859514
0.0841767
0.0820925
0.0797672
0.0772567
0.0746021
0.0718288
0.068948
0.0659582
0.0628488
0.0596017
0.0561929
0.0525933
0.0487691
0.0446822
0.0402911
0.0355527
0.0304244
0.0248658
0.0188407
0.0123178
0.00527125
-0.002318
-0.0104615
-0.0191608
-0.028404
-0.0381605
-0.0483742
-0.0589562
-0.0697751
-0.0806488
-0.0913362
-0.101534
-0.110877
-0.118952
-0.125317
-0.129536
-0.131225
-0.130091
-0.125973
-0.118865
-0.108917
-0.096412
-0.0817271
-0.0652885
-0.0475304
-0.0288668
-0.0096793
0.0186755
0.0554634
0.0906565
0.123374
0.152917
0.178843
0.200954
0.219257
0.233914
0.245183
0.253368
0.258785
0.261735
0.262506
0.261369
0.258587
0.254416
0.249106
0.242887
0.235967
0.228511
0.220643
0.212435
0.203919
0.19509
0.185913
0.176333
0.16628
0.155667
0.144393
0.132345
0.1194
0.105427
0.0902995
0.073897
0.0561112
0.0368487
0.0160332
-0.00639322
-0.0304664
-0.0561939
-0.0835446
-0.112434
-0.142702
-0.174094
-0.206228
-0.238573
-0.270419
-0.300868
-0.328832
-0.353068
-0.372244
-0.385038
-0.390273
-0.387053
-0.374883
-0.353747
-0.324104
-0.286823
-0.243058
-0.194102
-0.141263
-0.0857776
-0.0287609
0.0309525
0.0919023
0.150128
0.204128
0.252739
0.29524
0.331338
0.361089
0.384803
0.402946
0.416046
0.424633
0.429209
0.430237
0.428158
0.423398
0.416378
0.40751
0.397184
0.385743
0.373467
0.360555
0.347128
0.333229
0.318841
0.303903
0.288322
0.27198
0.254736
0.236425
0.216858
0.195829
0.173123
0.148525
0.121834
0.0928725
0.0614853
0.0275465
-0.0090412
-0.0483418
-0.0903767
-0.135108
-0.182413
-0.232053
-0.283633
-0.336554
-0.389967
-0.442728
-0.493364
-0.540075
-0.580774
-0.6132
-0.635086
-0.64439
-0.639548
-0.619692
-0.584793
-0.535659
-0.473813
-0.40126
-0.320221
-0.232904
-0.141368
-0.0473953
0.0433399
0.128627
0.209933
0.285078
0.352418
0.410976
0.460412
0.500894
0.532948
0.557299
0.574732
0.586005
0.591813
0.592785
0.58951
0.582567
0.572538
0.56
0.545507
0.52955
0.512525
0.494711
0.476262
0.457226
0.437565
0.417182
0.395944
0.373687
0.350216
0.325305
0.298691
0.270083
0.239172
0.205656
0.169252
0.129709
0.0868147
0.0403936
-0.00969203
-0.0635397
-0.121195
-0.182632
-0.247713
-0.316152
-0.387451
-0.460838
-0.535192
-0.608971
-0.680158
-0.746238
-0.804247
-0.850912
-0.882903
-0.897181
-0.891387
-0.864204
-0.815583
-0.746757
-0.660033
-0.558415
-0.44517
-0.323474
-0.19621
-0.0657626
0.0560537
0.166261
0.271032
0.367426
0.45329
0.527422
0.589506
0.639917
0.679489
0.70928
0.730376
0.74378
0.750368
0.750912
0.746129
0.736732
0.723458
0.707062
0.688274
0.667749
0.646007
0.623405
0.600125
0.576201
0.551559
0.526056
0.499512
0.471719
0.442438
0.411383
0.378215
0.342552
0.303988
0.262124
0.216589
0.167062
0.113274
0.0550033
-0.0079286
-0.0756584
-0.14827
-0.225767
-0.308031
-0.394761
-0.485407
-0.579074
-0.674427
-0.769583
-0.862014
-0.948492
-1.02512
-1.08751
-1.13109
-1.15162
-1.14575
-1.11159
-1.04906
-0.959947
-0.847534
-0.716052
-0.570006
-0.413638
-0.250659
-0.0839722
0.0692984
0.205389
0.334316
0.452263
0.556535
0.645747
0.719709
0.779132
0.825281
0.859645
0.883665
0.8986
0.905489
0.90521
0.898572
0.886401
0.869589
0.84908
0.825808
0.800613
0.774156
0.74687
0.71895
0.690396
0.661073
0.630777
0.599279
0.566334
0.531663
0.494927
0.455713
0.413538
0.367888
0.318253
0.264173
0.205255
0.141177
0.0716778
-0.00345978
-0.0844168
-0.171328
-0.264253
-0.363121
-0.467665
-0.577328
-0.691161
-0.807686
-0.924748
-1.03936
-1.1476
-1.24458
-1.32465
-1.38176
-1.4102
-1.40535
-1.36456
-1.28772
-1.17729
-1.03787
-0.875222
-0.695359
-0.503728
-0.304862
-0.102063
0.0832778
0.246591
0.400654
0.540623
0.663228
0.766964
0.851909
0.91928
0.970934
1.00891
1.03506
1.05091
1.05762
1.05613
1.04728
1.03198
1.01129
0.986355
0.95835
0.928339
0.897146
0.865277
0.832922
0.800012
0.766321
0.731564
0.695458
0.657732
0.618086
0.576138
0.531397
0.483269
0.43111
0.374289
0.312245
0.244515
0.170736
0.0906141
0.00389978
-0.0896352
-0.190191
-0.297907
-0.412796
-0.534668
-0.663021
-0.79692
-0.934832
-1.07442
-1.21233
-1.34395
-1.46339
-1.56355
-1.63665
-1.67508
-1.67261
-1.62555
-1.5337
-1.40048
-1.23216
-1.03654
-0.821464
-0.593761
-0.358763
-0.120004
0.0982032
0.290463
0.470919
0.633519
0.774378
0.89197
0.986831
1.0609
1.11684
1.15736
1.18482
1.20098
1.20707
1.20401
1.1926
1.17382
1.14885
1.11912
1.08607
1.05106
1.01509
0.978749
0.942186
0.905219
0.867489
0.828604
0.788224
0.746072
0.701852
0.655159
0.605419
0.551909
0.493832
0.430411
0.360975
0.284995
0.202079
0.11192
0.0142451
-0.0912214
-0.204759
-0.326612
-0.456916
-0.595601
-0.74228
-0.896112
-1.05561
-1.21837
-1.38077
-1.53762
-1.68196
-1.8051
-1.89716
-1.94817
-1.94974
-1.89679
-1.78895
-1.63088
-1.43116
-1.20021
-0.948174
-0.683449
-0.412112
-0.1377
0.1143
0.337633
0.54602
0.731972
0.890955
1.02157
1.12505
1.20435
1.26318
1.30511
1.33303
1.34894
1.35405
1.34911
1.33484
1.31219
1.28252
1.24754
1.20909
1.16884
1.12805
1.08736
1.04686
1.00617
0.964754
0.92207
0.877727
0.831473
0.78306
0.732083
0.677883
0.619579
0.556185
0.48675
0.410478
0.326783
0.235266
0.135628
0.027593
-0.0891601
-0.215004
-0.350318
-0.495394
-0.650329
-0.814906
-0.988458
-1.16965
-1.35618
-1.54429
-1.72835
-1.90036
-2.04984
-2.16443
-2.2312
-2.23888
-2.18045
-2.05526
-1.86964
-1.63527
-1.36604
-1.07497
-0.77221
-0.464474
-0.15499
0.131815
0.388782
0.62692
0.83703
1.0139
1.15647
1.267
1.34982
1.40995
1.45206
1.47962
1.49481
1.49866
1.49165
1.47425
1.44735
1.41249
1.37176
1.32746
1.2817
1.23603
1.19117
1.14703
1.10301
1.05829
1.01213
0.964099
0.914021
0.861764
0.806956
0.748847
0.686359
0.618266
0.543402
0.460829
0.369918
0.270295
0.161706
0.0438922
-0.0835039
-0.220963
-0.369031
-0.528196
-0.698759
-0.880724
-1.07367
-1.27656
-1.48731
-1.70231
-1.91563
-2.11831
-2.29799
-2.43935
-2.52575
-2.54212
-2.47871
-2.33437
-2.11768
-1.84455
-1.53345
-1.20095
-0.859174
-0.515239
-0.171659
0.151019
0.444656
0.714659
0.949788
1.14416
1.29732
1.413
1.49731
1.55698
1.59796
1.62439
1.63849
1.64096
1.63181
1.61109
1.57955
1.53895
1.49187
1.44119
1.3896
1.339
1.29016
1.24279
1.19589
1.14827
1.09895
1.04746
0.993777
0.937979
0.879787
0.818339
0.752302
0.680147
0.600437
0.512072
0.4144
0.307118
0.190064
0.0630316
-0.0743646
-0.222731
-0.382816
-0.555343
-0.74085
-0.939597
-1.15149
-1.37587
-1.61115
-1.85404
-2.09865
-2.33524
-2.54947
-2.72259
-2.83331
-2.86162
-2.79386
-2.62803
-2.37575
-2.05872
-1.70145
-1.32488
-0.943205
-0.56364
-0.187435
0.172215
0.506078
0.810364
1.0714
1.28266
1.44469
1.56323
1.64669
1.70391
1.7424
1.76701
1.77983
1.78097
1.76975
1.7456
1.70904
1.66208
1.60794
1.55027
1.49246
1.43687
1.38434
1.33422
1.28496
1.23489
1.18272
1.12793
1.07077
1.01168
0.950544
0.886355
0.817441
0.741888
0.657916
0.564232
0.460197
0.345645
0.220566
0.084848
-0.0619066
-0.220451
-0.391783
-0.576906
-0.776618
-0.991448
-1.22167
-1.46716
-1.72699
-1.99856
-2.27637
-2.55026
-2.80387
-3.01454
-3.15531
-3.19963
-3.12841
-2.93809
-2.64445
-2.27713
-1.86862
-1.44513
-1.02292
-0.608774
-0.202009
0.195742
0.57396
0.915267
1.2031
1.43032
1.59906
1.71775
1.79765
1.85021
1.88481
1.90703
1.91859
1.91869
1.90566
1.87808
1.83608
1.78205
1.72004
1.65463
1.59014
1.52953
1.47367
1.42138
1.37039
1.31839
1.26365
1.20562
1.145
1.0828
1.01916
0.952867
0.881794
0.803542
0.715896
0.617323
0.507253
0.385753
0.253035
0.109132
-0.0463392
-0.214309
-0.396087
-0.593009
-0.806142
-1.03627
-1.28405
-1.55002
-1.83413
-2.13483
-2.44754
-2.76214
-3.06043
-3.31534
-3.49307
-3.55861
-3.48515
-3.26656
-2.92419
-2.49873
-2.03311
-1.55974
-1.09672
-0.649638
-0.215042
0.22198
0.649313
1.03071
1.34618
1.58806
1.76084
1.87649
1.94973
1.99519
2.0245
2.04395
2.05453
2.05411
2.03974
2.00885
1.96098
1.89904
1.8282
1.75418
1.68245
1.6168
1.55809
1.50437
1.45238
1.39902
1.34198
1.28065
1.21644
1.15123
1.08554
1.01783
0.945374
0.865166
0.77444
0.671353
0.555492
0.427289
0.287254
0.135634
-0.0279102
-0.204524
-0.395914
-0.603818
-0.829566
-1.07413
-1.33856
-1.62414
-1.9319
-2.26175
-2.6107
-2.96937
-3.31804
-3.62482
-3.84778
-3.9412
-3.86735
-3.61567
-3.2152
-2.722
-2.19258
-1.66644
-1.16286
-0.68517
-0.226182
0.251356
0.733251
1.15817
1.50203
1.75677
1.93031
2.03925
2.10235
2.13801
2.16064
2.17719
2.18738
2.18722
2.17224
2.1383
2.08405
2.01323
1.93245
1.84878
1.76916
1.69847
1.63753
1.58329
1.53115
1.47707
1.41799
1.35316
1.28502
1.21681
1.14953
1.08119
1.00819
0.926824
0.83363
0.726333
0.604822
0.470078
0.322981
0.16407
-0.00690012
-0.191338
-0.391472
-0.609535
-0.847094
-1.1052
-1.38521
-1.68927
-2.01969
-2.37818
-2.7642
-3.17013
-3.57522
-3.94244
-4.22049
-4.35032
-4.27881
-3.98799
-3.51748
-2.94487
-2.34422
-1.76265
-1.21948
-0.714298
-0.235084
0.284352
0.826995
1.29923
1.67215
1.9373
2.10765
2.20574
2.25478
2.27766
2.29227
2.3061
2.31687
2.31801
2.30342
2.26689
2.20567
2.12478
2.03284
1.9383
1.84997
1.77426
1.71191
1.65826
1.60695
1.55291
1.49205
1.42328
1.35062
1.27931
1.211
1.1429
1.07024
0.988592
0.893575
0.782279
0.655133
0.513926
0.359947
0.194121
0.0163829
-0.175011
-0.38298
-0.610385
-0.858992
-1.12974
-1.42414
-1.74531
-2.09699
-2.483
-2.9063
-3.36231
-3.83012
-4.26727
-4.61195
-4.78917
-4.72416
-4.38653
-3.83069
-3.16464
-2.4847
-1.84559
-1.2647
-0.735998
-0.241429
0.321515
0.93187
1.4556
1.85813
2.13044
2.29285
2.37557
2.4062
2.41301
2.4183
2.43003
2.44277
2.4465
2.43362
2.3952
2.32622
2.23384
2.1294
2.02256
1.92452
1.84386
1.78117
1.72946
1.68002
1.6269
1.5646
1.49119
1.41307
1.33842
1.26973
1.2029
1.13153
1.05056
0.954426
0.839214
0.706291
0.558626
0.397866
0.225441
0.0416072
-0.155808
-0.370652
-0.606609
-0.86558
-1.14807
-1.45557
-1.79231
-2.1635
-2.57518
-3.0351
-3.54353
-4.0805
-4.59788
-5.02252
-5.26122
-5.20898
-4.81483
-4.15405
-3.3778
-2.61019
-1.91234
-1.29672
-0.749356
-0.244944
0.363483
1.04929
1.6291
2.06174
2.33686
2.48571
2.54828
2.55571
2.54273
2.53755
2.54836
2.56495
2.57265
2.56318
2.52395
2.44614
2.34053
2.22221
2.1014
1.99238
1.90687
1.84522
1.79711
1.75064
1.69949
1.63617
1.55706
1.47212
1.39379
1.32554
1.26118
1.19204
1.11282
1.0164
0.89717
0.758133
0.603968
0.436438
0.257654
0.0684199
-0.133993
-0.354682
-0.598444
-0.867225
-1.16067
-1.47985
-1.83045
-2.21908
-2.65379
-3.14869
-3.71119
-4.32382
-4.93239
-5.45189
-5.77016
-5.74021
-5.27713
-4.4861
-3.57993
-2.71637
-1.95994
-1.31389
-0.753624
-0.245422
0.411019
1.18076
1.82164
2.28492
2.5571
2.68573
2.72342
2.70237
2.66538
2.64869
2.66047
2.6834
2.69639
2.69245
2.65405
2.56584
2.44484
2.31142
2.17467
2.05302
1.96282
1.90404
1.8615
1.81901
1.7711
1.70747
1.62111
1.52738
1.44492
1.3782
1.31778
1.25175
1.17547
1.07978
0.956179
0.810448
0.649752
0.475362
0.290354
0.0964482
-0.109824
-0.335236
-0.586107
-0.864337
-1.16805
-1.49738
-1.86003
-2.2639
-2.71808
-3.24509
-3.86246
-4.55722
-5.26838
-5.89888
-6.31982
-6.32653
-5.77851
-4.82446
-3.76553
-2.79851
-1.98552
-1.31484
-0.748276
-0.24274
0.46508
1.32778
2.03514
2.52993
2.79144
2.89204
2.90062
2.84524
2.77931
2.75027
2.76583
2.79832
2.81752
2.82177
2.78669
2.68573
2.54665
2.39729
2.24224
2.10581
2.01112
1.95759
1.92308
1.8853
1.84218
1.77942
1.68359
1.57838
1.49121
1.42753
1.37284
1.31053
1.2386
1.14502
1.01627
0.862954
0.695804
0.514344
0.3231
0.1253
-0.0835429
-0.312427
-0.569782
-0.85736
-1.17087
-1.50863
-1.88151
-2.29845
-2.76752
-3.32233
-3.99431
-4.77771
-5.60301
-6.36097
-6.91394
-6.97893
-6.32512
-5.16536
-3.92782
-2.85157
-1.98648
-1.29858
-0.733053
-0.236863
0.526927
1.49187
2.27145
2.7995
3.03987
3.10323
3.07976
2.98345
2.88269
2.84065
2.86403
2.91022
2.93562
2.95137
2.92351
2.80614
2.64557
2.48026
2.30404
2.14999
2.0511
2.00593
1.98246
1.9495
1.91313
1.85322
1.74476
1.62442
1.53192
1.47335
1.42665
1.36821
1.30225
1.21273
1.07746
0.915256
0.742011
0.553102
0.355408
0.154564
-0.0553789
-0.286308
-0.549599
-0.846766
-1.1699
-1.51408
-1.89539
-2.3236
-2.80183
-3.37847
-4.10356
-4.98223
-5.9332
-6.83385
-7.55586
-7.71149
-6.92432
-5.50312
-4.05864
-2.87035
-1.96064
-1.26456
-0.707991
-0.22786
0.598309
1.67442
2.53222
3.09705
3.30192
3.31718
3.26113
3.11623
2.97344
2.91803
2.95478
3.0201
3.04989
3.08135
3.06671
2.92726
2.74082
2.56112
2.36007
2.18461
2.0819
2.04916
2.04055
2.01137
1.98423
1.93051
1.80489
1.6646
1.56618
1.51552
1.47973
1.42441
1.36637
1.28381
1.1397
0.966799
0.788369
0.591381
0.386743
0.18381
-0.0255435
-0.256855
-0.525612
-0.833044
-1.16607
-1.51416
-1.90218
-2.34074
-2.82103
-3.41164
-4.18679
-5.1678
-6.25591
-7.31076
-8.24802
-8.54238
-7.585
-5.82932
-4.14832
-2.84977
-1.90641
-1.21276
-0.673433
-0.215893
0.681748
1.87659
2.81864
3.4271
3.57649
3.53079
3.44582
3.24294
3.04917
2.98038
3.03796
3.12966
3.15895
3.21146
3.21944
3.04902
2.83105
2.64114
2.41042
2.20852
2.10251
2.08746
2.09871
2.07029
2.05558
2.01352
1.86426
1.69773
1.5929
1.55397
1.53296
1.4785
1.43079
1.35956
1.20286
1.01679
0.835052
0.628955
0.416493
0.212594
0.00576446
-0.223953
-0.49778
-0.816686
-1.16049
-1.50918
-1.90229
-2.35184
-2.82545
-3.42001
-4.24036
-5.33171
-6.56871
-7.78167
-8.99121
-9.49519
-8.31773
-6.13182
-4.18572
-2.78514
-1.82301
-1.14375
-0.630019
-0.201217
0.78098
2.09915
3.13113
3.79578
3.86162
3.73959
3.63608
3.36304
3.10715
3.02538
3.11356
3.24165
3.26056
3.34104
3.38613
3.17095
2.9141
2.72238
2.45523
2.2203
2.1117
2.12104
2.15891
2.12504
2.12697
2.1053
1.92302
1.72228
1.61083
1.58867
1.58773
1.52944
1.49512
1.44189
1.26666
1.06409
0.882514
0.665624
0.443953
0.240461
0.0383512
-0.187389
-0.465951
-0.798163
-1.1546
-1.49929
-1.89586
-2.35968
-2.8157
-3.40192
-4.26026
-5.47161
-6.87062
-8.23239
-9.78348
-10.6008
-9.13502
-6.39337
-4.15843
-2.67262
-1.71057
-1.05863
-0.578658
-0.184161
0.901591
2.34224
3.46879
4.21165
4.15414
3.9373
3.83594
3.47607
3.14418
3.05045
3.18163
3.36029
3.35122
3.46869
3.57304
3.29197
2.98662
2.80805
2.49469
2.2182
2.10802
2.15013
2.22406
2.17362
2.19774
2.21005
1.98118
1.73632
1.61854
1.61962
1.64618
1.57563
1.55863
1.53352
1.33056
1.10711
0.931639
0.701198
0.468294
0.266967
0.0720134
-0.146838
-0.429837
-0.777887
-1.1502
-1.48433
-1.8826
-2.36801
-2.7926
-3.35585
-4.24196
-5.58556
-7.16326
-8.64338
-10.6187
-11.8993
-10.0515
-6.58992
-4.05314
-2.50961
-1.57028
-0.959076
-0.520483
-0.165114
1.05192
2.60506
3.82881
4.6867
4.44928
4.11518
4.05206
3.58146
3.15657
3.05267
3.24215
3.49189
3.42568
3.59203
3.78904
3.41004
3.04372
2.90301
2.52885
2.20012
2.08978
2.17488
2.29839
2.21287
2.26656
2.33355
2.03834
1.73746
1.61443
1.64675
1.71146
1.61463
1.62016
1.63834
1.39365
1.14362
0.983936
0.735457
0.48852
0.291702
0.106517
-0.101856
-0.389011
-0.756149
-1.14968
-1.46383
-1.8615
-2.38184
-2.75712
-3.28057
-4.18024
-5.67189
-7.45253
-8.98853
-11.4846
-13.4436
-11.0839
-6.68847
-3.85643
-2.29527
-1.40442
-0.84721
-0.456785
-0.1445
1.24432
2.88552
4.20543
5.23781
4.74007
4.26133
4.29477
3.67818
3.14004
3.02885
3.29469
3.64566
3.47633
3.70726
4.04652
3.52182
3.07838
3.01445
2.5575
2.16353
2.05507
2.19516
2.38795
2.23809
2.3312
2.48366
2.0935
1.72283
1.59677
1.66983
1.78817
1.64287
1.67789
1.76182
1.45447
1.17055
1.0418
0.768084
0.503433
0.31433
0.141564
-0.0518745
-0.342896
-0.733025
-1.1562
-1.43685
-1.83048
-2.40789
-2.71008
-3.17532
-4.06887
-5.7289
-7.75079
-9.23369
-12.3601
-15.3022
-12.2511
-6.64449
-3.55597
-2.03102
-1.21633
-0.725519
-0.388948
-0.122754
1.49678
3.17968
4.58885
5.88852
5.01661
4.35967
4.57942
3.76434
3.08972
2.97559
3.33805
3.83478
3.4924
3.8087
4.3626
3.62215
3.08084
3.1528
2.57981
2.10545
2.00177
2.21029
2.5013
2.24257
2.38822
2.67109
2.14468
1.68906
1.56378
1.68825
1.88284
1.6553
1.72914
1.91153
1.51072
1.18375
1.10886
0.79855
0.511589
0.33465
0.176752
0.00381297
-0.290786
-0.708238
-1.17396
-1.4019
-1.78595
-2.45506
-2.65193
-3.04004
-3.90041
-5.75417
-8.07959
-9.33526
-13.2122
-17.564
-13.5739
-6.39887
-3.14226
-1.72086
-1.0103
-0.596715
-0.318375
-0.100301
1.83505
3.48121
4.9636
6.67132
5.26517
4.38889
4.92812
3.83633
3.00016
2.88943
3.36958
4.07767
3.45907
3.88813
4.76055
3.70337
3.03785
3.33279
2.59386
2.0225
1.92773
2.21865
2.65034
2.21696
2.43259
2.91015
2.18838
1.63235
1.51377
1.70067
2.00459
1.64491
1.77013
2.09782
1.55906
1.17774
1.19039
0.825956
0.511257
0.352673
0.211514
0.066061
-0.231873
-0.680964
-1.20852
-1.35695
-1.72229
-2.53507
-2.58218
-2.87577
-3.66587
-5.74345
-8.4731
-9.23859
-13.9919
-20.3437
-15.0743
-5.87429
-2.61097
-1.37167
-0.791331
-0.463589
-0.246421
-0.0775382
2.29534
3.78063
5.30674
7.63039
5.46704
4.32113
5.37186
3.8879
2.86548
2.76709
3.38433
4.39962
3.35637
3.93412
5.27154
3.75455
2.93181
3.57479
2.59595
1.91097
1.83085
2.21714
2.85135
2.14858
2.45732
3.21984
2.21896
1.54855
1.44529
1.70464
2.16587
1.60218
1.79563
2.33453
1.59463
1.14536
1.29385
0.848796
0.500385
0.36873
0.245044
0.135896
-0.165322
-0.64958
-1.2672
-1.29931
-1.63117
-2.66335
-2.49881
-2.68512
-3.35454
-5.68912
-8.9822
-8.87654
-14.6294
-23.7875
-16.7749
-4.9713
-1.96608
-0.99317
-0.564864
-0.32886
-0.174334
-0.0548209
2.92746
4.06442
5.58557
8.82492
5.59718
4.12053
5.95288
3.90867
2.67956
2.60585
3.37382
4.83477
3.15795
3.93113
5.93666
3.76058
2.73979
3.90648
2.57979
1.76692
1.70937
2.20036
3.12622
2.02066
2.45291
3.62499
2.22777
1.43335
1.35739
1.69596
2.38347
1.5145
1.79866
2.63996
1.61068
1.07744
1.42948
0.864657
0.476587
0.38359
0.276205
0.214551
-0.09037
-0.611325
-1.35952
-1.22565
-1.50073
-2.86001
-2.39741
-2.47294
-2.95388
-5.57791
-9.67915
-8.16812
-15.0286
-28.0803
-18.6972
-3.56386
-1.22377
-0.597525
-0.336411
-0.195039
-0.103221
-0.0324555
3.79865
4.31407
5.75507
10.3328
5.62263
3.74164
6.72765
3.88246
2.43646
2.40408
3.3246
5.42827
2.82969
3.8586
6.80909
3.70102
2.4325
4.36462
2.53528
1.58646
1.5622
2.15973
3.50391
1.8114
2.40687
4.15768
2.20211
1.28257
1.24989
1.66792
2.67954
1.36547
1.77005
3.03777
1.59798
0.962426
1.61101
0.869831
0.437147
0.398612
0.303415
0.303518
-0.00648421
-0.561902
-1.49766
-1.1321
-1.31471
-3.15106
-2.27001
-2.24711
-2.44958
-5.38804
-10.6629
-7.01741
-15.0603
-33.4537
-20.8605
-1.49472
-0.417047
-0.198518
-0.111174
-0.0643178
-0.0340153
-0.0106997
)
;

boundaryField
{
    left
    {
        type            calculated;
        value           uniform 0;
    }
    right
    {
        type            calculated;
        value           uniform 0;
    }
    interface
    {
        type            calculated;
        value           nonuniform List<scalar> 
64
(
3.79865
4.31407
5.75507
10.3328
5.62263
3.74164
6.72765
3.88246
2.43646
2.40408
3.3246
5.42827
2.82969
3.8586
6.80909
3.70102
2.4325
4.36462
2.53528
1.58646
1.5622
2.15973
3.50391
1.8114
2.40687
4.15768
2.20211
1.28257
1.24989
1.66792
2.67954
1.36547
1.77005
3.03777
1.59798
0.962426
1.61101
0.869831
0.437147
0.398612
0.303415
0.303518
-0.00648421
-0.561902
-1.49766
-1.1321
-1.31471
-3.15106
-2.27001
-2.24711
-2.44958
-5.38804
-10.6629
-7.01741
-15.0603
-33.4537
-20.8605
-1.49472
-0.417047
-0.198518
-0.111174
-0.0643178
-0.0340153
-0.0106997
)
;
    }
    bottom
    {
        type            calculated;
        value           nonuniform List<scalar> 
64
(
0.00626763
0.0186148
0.030435
0.0414389
0.0513907
0.0601404
0.067619
0.0738243
0.0788054
0.0826451
0.0854431
0.0873038
0.088329
0.0886156
0.0882558
0.0873389
0.0859514
0.0841767
0.0820925
0.0797672
0.0772567
0.0746021
0.0718288
0.068948
0.0659582
0.0628488
0.0596017
0.0561929
0.0525933
0.0487691
0.0446822
0.0402911
0.0355527
0.0304244
0.0248658
0.0188407
0.0123178
0.00527125
-0.002318
-0.0104615
-0.0191608
-0.028404
-0.0381605
-0.0483742
-0.0589562
-0.0697751
-0.0806488
-0.0913362
-0.101534
-0.110877
-0.118952
-0.125317
-0.129536
-0.131225
-0.130091
-0.125973
-0.118865
-0.108917
-0.096412
-0.0817271
-0.0652885
-0.0475304
-0.0288668
-0.0096793
)
;
    }
    defaultFaces
    {
        type            empty;
    }
}


// ************************************************************************* //
