/*--------------------------------*- C++ -*----------------------------------*\
| =========                 |                                                 |
| \\      /  F ield         | OpenFOAM: The Open Source CFD Toolbox           |
|  \\    /   O peration     | Version:  5.x                                   |
|   \\  /    A nd           | Web:      www.OpenFOAM.org                      |
|    \\/     M anipulation  |                                                 |
\*---------------------------------------------------------------------------*/
FoamFile
{
    version     2.0;
    format      ascii;
    class       volScalarField;
    location    "2.4";
    object      T;
}
// * * * * * * * * * * * * * * * * * * * * * * * * * * * * * * * * * * * * * //

dimensions      [0 0 0 1 0 0 0];

internalField   nonuniform List<scalar> 
2048
(
9.8102
9.8104
9.81078
9.81135
9.81209
9.81297
9.81398
9.8151
9.8163
9.81758
9.81891
9.82027
9.82166
9.82306
9.82446
9.82585
9.82723
9.82858
9.8299
9.83119
9.83244
9.83365
9.83482
9.83595
9.83703
9.83807
9.83905
9.83999
9.84087
9.8417
9.84246
9.84316
9.84379
9.84435
9.84481
9.84519
9.84547
9.84564
9.8457
9.84563
9.84542
9.84508
9.84458
9.84392
9.8431
9.8421
9.84093
9.83959
9.83808
9.83641
9.8346
9.83267
9.83065
9.82858
9.82651
9.82448
9.82253
9.82072
9.81909
9.81768
9.81651
9.81561
9.815
9.8147
9.43873
9.43932
9.44048
9.44217
9.44436
9.44698
9.44998
9.4533
9.45689
9.46067
9.46461
9.46866
9.47278
9.47692
9.48107
9.48519
9.48926
9.49325
9.49716
9.50097
9.50467
9.50825
9.51172
9.51505
9.51825
9.52132
9.52424
9.52701
9.52963
9.53207
9.53434
9.53641
9.53828
9.53991
9.5413
9.54242
9.54325
9.54377
9.54394
9.54374
9.54315
9.54213
9.54067
9.53873
9.5363
9.53336
9.5299
9.52592
9.52145
9.5165
9.51112
9.50539
9.4994
9.49326
9.48709
9.48104
9.47525
9.46986
9.46501
9.4608
9.45732
9.45466
9.45285
9.45194
9.08307
9.08404
9.08596
9.08876
9.09238
9.09671
9.10166
9.10714
9.11303
9.11926
9.12573
9.13237
9.13913
9.14593
9.15272
9.15947
9.16613
9.17266
9.17906
9.18528
9.19133
9.19718
9.20284
9.20829
9.21352
9.21853
9.22331
9.22784
9.23212
9.23612
9.23983
9.24323
9.24629
9.24898
9.25127
9.25312
9.2545
9.25536
9.25566
9.25536
9.25441
9.25277
9.2504
9.24726
9.2433
9.23851
9.23286
9.22636
9.21902
9.2109
9.20206
9.19263
9.18275
9.17261
9.16242
9.15242
9.14285
9.13394
9.12592
9.11897
9.11323
9.10884
9.10587
9.10437
8.74229
8.74365
8.74633
8.75025
8.75529
8.76133
8.76822
8.77582
8.78399
8.7926
8.80155
8.81072
8.82003
8.82941
8.83876
8.84805
8.85721
8.86619
8.87497
8.88352
8.89182
8.89986
8.90762
8.91509
8.92227
8.92915
8.93571
8.94193
8.94781
8.95332
8.95843
8.96311
8.96733
8.97105
8.97422
8.9768
8.97872
8.97994
8.9804
8.98003
8.97878
8.97658
8.97337
8.96909
8.9637
8.95714
8.9494
8.94047
8.93037
8.91915
8.90693
8.89386
8.88013
8.86602
8.85183
8.83788
8.82453
8.81211
8.80093
8.79124
8.78327
8.77716
8.77304
8.77096
8.41555
8.41731
8.42077
8.42583
8.43232
8.44008
8.44891
8.45863
8.46905
8.48002
8.4914
8.50305
8.51486
8.52674
8.53859
8.55033
8.56191
8.57326
8.58434
8.59512
8.60558
8.61571
8.62548
8.6349
8.64395
8.65262
8.66089
8.66875
8.67617
8.68313
8.6896
8.69553
8.70089
8.70562
8.70967
8.71297
8.71546
8.71706
8.71771
8.71731
8.7158
8.7131
8.70913
8.7038
8.69706
8.68883
8.6791
8.66782
8.65504
8.64081
8.62525
8.60856
8.59099
8.57289
8.55465
8.53672
8.51954
8.50357
8.4892
8.47677
8.46655
8.45874
8.45347
8.45081
8.10208
8.10426
8.10853
8.11476
8.12275
8.13226
8.14305
8.1549
8.16757
8.18088
8.19465
8.20874
8.223
8.23732
8.2516
8.26573
8.27965
8.29329
8.30659
8.31952
8.33206
8.34419
8.3559
8.36718
8.37802
8.38842
8.39834
8.40777
8.41668
8.42505
8.43283
8.43999
8.44646
8.4522
8.45712
8.46115
8.46422
8.46623
8.4671
8.46673
8.46502
8.46189
8.45722
8.45093
8.44293
8.43314
8.4215
8.40798
8.39259
8.3754
8.35655
8.33624
8.31481
8.29267
8.27031
8.24829
8.2272
8.20759
8.18998
8.17477
8.1623
8.15278
8.14636
8.14313
7.80117
7.80378
7.80891
7.81637
7.8259
7.83722
7.85002
7.86401
7.87895
7.89458
7.91072
7.9272
7.94387
7.96058
7.97723
7.9937
8.00989
8.02574
8.04118
8.05618
8.07071
8.08476
8.09833
8.1114
8.12397
8.13602
8.14753
8.15848
8.16883
8.17857
8.18763
8.19598
8.20356
8.21029
8.21608
8.22086
8.22453
8.22698
8.22811
8.22781
8.22596
8.22247
8.21719
8.21003
8.20087
8.18961
8.17616
8.16049
8.14258
8.12249
8.10036
8.07644
8.05109
8.02481
7.99822
7.97199
7.94685
7.92351
7.90257
7.88454
7.86979
7.85856
7.851
7.84721
7.51215
7.51524
7.52128
7.53003
7.54118
7.55437
7.56922
7.5854
7.6026
7.62055
7.63905
7.65789
7.67692
7.69599
7.71495
7.73369
7.7521
7.77008
7.78759
7.80458
7.82102
7.83692
7.85226
7.86705
7.88127
7.89492
7.90796
7.92037
7.93212
7.94318
7.9535
7.96303
7.97169
7.9794
7.98608
7.99162
7.99591
7.99883
8.00026
8.00008
7.99817
7.99438
7.98858
7.98063
7.97041
7.95778
7.94264
7.9249
7.90455
7.88162
7.85624
7.82868
7.79935
7.76883
7.73785
7.70724
7.6779
7.65068
7.62633
7.60542
7.58836
7.57542
7.56674
7.56239
7.23441
7.238
7.24501
7.25515
7.26801
7.28315
7.30012
7.31852
7.338
7.35828
7.3791
7.40028
7.42163
7.44301
7.46424
7.4852
7.50576
7.52582
7.54533
7.56422
7.5825
7.60016
7.61721
7.63364
7.64945
7.66463
7.67914
7.69297
7.70608
7.71842
7.72996
7.74064
7.75038
7.75908
7.76665
7.77296
7.77789
7.78131
7.78309
7.78309
7.78116
7.77715
7.77091
7.76228
7.7511
7.73721
7.72047
7.70078
7.67808
7.65237
7.62377
7.59255
7.55915
7.52425
7.4887
7.45351
7.41977
7.38853
7.36065
7.3368
7.31743
7.30279
7.293
7.2881
6.96737
6.97151
6.97957
6.99119
7.00586
7.02304
7.04221
7.06288
7.08466
7.10724
7.13038
7.15386
7.17751
7.20114
7.22461
7.24774
7.2704
7.29248
7.3139
7.33463
7.35466
7.374
7.39268
7.41068
7.42802
7.44468
7.46062
7.47581
7.49022
7.50382
7.51655
7.52836
7.53916
7.54885
7.55732
7.56442
7.57002
7.57398
7.57614
7.57636
7.57448
7.57033
7.56373
7.55451
7.54247
7.52743
7.50922
7.48769
7.46273
7.43431
7.40252
7.36762
7.33007
7.29063
7.2503
7.21029
7.17193
7.13647
7.10495
7.07812
7.05644
7.04012
7.02925
7.02382
6.71047
6.71521
6.72443
6.73765
6.75425
6.77359
6.79501
6.818
6.8421
6.86699
6.89241
6.91816
6.94406
6.96993
6.99558
7.02084
7.04555
7.06958
7.09285
7.11534
7.13704
7.15799
7.17821
7.19773
7.21653
7.23461
7.25192
7.26843
7.28411
7.29892
7.31281
7.32574
7.33759
7.34828
7.35765
7.36556
7.37185
7.37638
7.37897
7.37946
7.37768
7.37346
7.36659
7.35687
7.34408
7.328
7.30843
7.28518
7.25808
7.22704
7.19211
7.1535
7.11171
7.06756
7.0222
6.97711
6.93386
6.89399
6.85871
6.82885
6.80487
6.78693
6.77502
6.76909
6.46321
6.46861
6.47909
6.49405
6.51273
6.53433
6.55811
6.58345
6.60988
6.63706
6.66473
6.69271
6.72083
6.74889
6.7767
6.80405
6.83076
6.85668
6.88174
6.9059
6.92919
6.95167
6.97337
6.99433
7.01454
7.03399
7.05263
7.07041
7.08731
7.10329
7.11832
7.13233
7.14524
7.15692
7.1672
7.17594
7.18295
7.18807
7.19112
7.19193
7.19032
7.1861
7.17903
7.16891
7.15547
7.13848
7.11768
7.09283
7.0637
7.03016
6.99214
6.94983
6.9037
6.85464
6.804
6.75349
6.70506
6.66055
6.6214
6.5885
6.56227
6.54277
6.5299
6.5235
6.22509
6.23123
6.2431
6.25995
6.28086
6.30486
6.33108
6.35883
6.38759
6.41703
6.44691
6.47709
6.50738
6.5376
6.56754
6.59694
6.62561
6.65337
6.68013
6.70589
6.73069
6.75461
6.77771
6.80005
6.82162
6.84239
6.86231
6.88132
6.89939
6.91651
6.93265
6.94774
6.96168
6.97435
6.98557
6.99515
7.0029
7.00864
7.01219
7.01336
7.01197
7.0078
7.00063
6.99019
6.97622
6.95842
6.93652
6.91021
6.87921
6.84326
6.80225
6.75625
6.70569
6.65154
6.5953
6.53901
6.48506
6.43567
6.39254
6.3566
6.3282
6.30724
6.29348
6.28668
5.99564
6.00261
6.01601
6.03495
6.05826
6.0848
6.11355
6.14375
6.17483
6.20649
6.23854
6.27086
6.30329
6.33564
6.36767
6.3991
6.42968
6.45922
6.48763
6.5149
6.54112
6.56639
6.59083
6.61449
6.63737
6.65942
6.68058
6.70077
6.71997
6.73818
6.75539
6.77153
6.78652
6.80019
6.81235
6.82278
6.83129
6.83768
6.84175
6.84332
6.8422
6.83816
6.83095
6.82029
6.80588
6.78741
6.76453
6.73691
6.70417
6.66598
6.62208
6.57242
6.51737
6.45791
6.39573
6.33326
6.27339
6.21886
6.17165
6.13272
6.10226
6.07997
6.06545
6.05829
5.77443
5.78232
5.79743
5.81865
5.84456
5.87379
5.90516
5.93784
5.97123
6.00507
6.03922
6.07362
6.10814
6.14259
6.1767
6.21013
6.24259
6.27386
6.30384
6.33254
6.36008
6.38663
6.41233
6.43725
6.46138
6.48468
6.50704
6.52837
6.54865
6.56791
6.58616
6.60334
6.61935
6.63403
6.64714
6.65846
6.66774
6.67479
6.67941
6.68142
6.68061
6.67676
6.66959
6.6588
6.64405
6.62501
6.6013
6.57251
6.53821
6.49793
6.45127
6.39802
6.33842
6.27345
6.20497
6.13584
6.06959
6.00964
5.95827
5.91644
5.88408
5.86065
5.84548
5.83804
5.56104
5.56995
5.58697
5.6107
5.63942
5.67149
5.70558
5.74076
5.77643
5.81237
5.84855
5.88497
5.92154
5.95806
5.99423
6.02966
6.06397
6.09692
6.12839
6.15843
6.1872
6.21493
6.24181
6.26794
6.2933
6.31781
6.34133
6.36376
6.38507
6.40533
6.42458
6.44278
6.45981
6.4755
6.48959
6.50179
6.51187
6.51961
6.5248
6.52726
6.52681
6.5232
6.51615
6.5053
6.49031
6.47082
6.4464
6.41661
6.38091
6.33874
6.2895
6.23275
6.16857
6.09788
6.02272
5.94636
5.87322
5.80754
5.75198
5.70737
5.67334
5.64895
5.6333
5.62566
5.35504
5.36512
5.38426
5.41077
5.44254
5.47761
5.5145
5.5522
5.59009
5.62805
5.66617
5.70455
5.74312
5.78168
5.81991
5.85733
5.89345
5.92802
5.96093
5.99221
6.0221
6.05092
6.07892
6.1062
6.13275
6.15845
6.18311
6.20659
6.22887
6.25008
6.27029
6.28949
6.30754
6.32426
6.33934
6.35245
6.36333
6.37176
6.37753
6.38048
6.38042
6.37711
6.37023
6.35941
6.34428
6.32443
6.29945
6.2688
6.2319
6.18805
6.13642
6.07632
6.00756
5.93097
5.84869
5.76448
5.68383
5.61209
5.55234
5.50517
5.46972
5.44464
5.42867
5.42092
5.15606
5.16746
5.18895
5.21854
5.25361
5.29184
5.33161
5.37184
5.41189
5.45176
5.49171
5.53198
5.5725
5.61308
5.65338
5.69278
5.7307
5.76685
5.80111
5.83353
5.86443
5.89424
5.9233
5.95169
5.97938
6.00626
6.03205
6.05652
6.07972
6.10181
6.12296
6.14313
6.1622
6.17996
6.19605
6.21007
6.22177
6.2309
6.23727
6.24072
6.24108
6.23811
6.23148
6.22076
6.20556
6.18547
6.16004
6.12869
6.09078
6.04548
5.99172
5.92844
5.85514
5.77248
5.68265
5.58986
5.50095
5.42282
5.35895
5.3095
5.27296
5.24745
5.23137
5.2236
4.96373
4.97661
5.00073
5.03372
5.07238
5.11392
5.15665
5.19941
5.24152
5.28317
5.32482
5.3669
5.40934
5.4519
5.49429
5.53571
5.57539
5.61307
5.64861
5.68206
5.71386
5.74455
5.7746
5.80406
5.83287
5.86093
5.88783
5.91325
5.93728
5.9602
5.98224
6.00338
6.02345
6.04227
6.0594
6.07435
6.08686
6.0967
6.10367
6.10762
6.10843
6.10586
6.09953
6.08899
6.0738
6.05355
6.0278
5.9959
5.95717
5.91068
5.85506
5.78885
5.71108
5.62222
5.5244
5.42218
5.32413
5.23924
5.1714
5.12004
5.08282
5.05719
5.04119
5.0335
4.77767
4.79225
4.81928
4.85604
4.8986
4.94358
4.98933
5.03462
5.07868
5.12195
5.16516
5.20899
5.2533
5.2978
5.34231
5.38579
5.42719
5.46636
5.50314
5.53749
5.57005
5.60152
5.6325
5.66299
5.69289
5.72214
5.75017
5.77648
5.80127
5.82493
5.84784
5.86991
5.89097
5.91089
5.92908
5.94496
5.95829
5.96886
5.97641
5.98087
5.98215
5.98001
5.97405
5.96375
5.94863
5.92832
5.90236
5.87005
5.83068
5.78329
5.72614
5.65728
5.57515
5.48002
5.37381
5.26113
5.15286
5.06089
4.98933
4.93654
4.89907
4.87366
4.85795
4.85045
4.59755
4.61407
4.6443
4.68525
4.73205
4.78057
4.82939
4.87722
4.92307
4.96779
5.0124
5.05792
5.10404
5.15044
5.19714
5.24274
5.28582
5.32644
5.36439
5.39952
5.4327
5.46482
5.49669
5.52819
5.55914
5.58961
5.61879
5.64592
5.67137
5.69569
5.71943
5.74243
5.76447
5.78551
5.80482
5.82161
5.83577
5.84706
5.85518
5.86015
5.8619
5.86025
5.85471
5.84471
5.82973
5.80941
5.78337
5.75077
5.71094
5.66295
5.60462
5.53346
5.44713
5.34572
5.23078
5.10647
4.98661
4.88724
4.81239
4.75876
4.72153
4.69669
4.68149
4.67428
4.42303
4.44178
4.47549
4.52112
4.57255
4.62464
4.6766
4.72697
4.77444
4.82039
4.86618
4.91336
4.96128
5.00948
5.05848
5.1063
5.15097
5.193
5.23209
5.26786
5.3015
5.33413
5.36687
5.39935
5.4313
5.46306
5.49343
5.5213
5.54731
5.57218
5.59675
5.62066
5.64363
5.66586
5.68634
5.70403
5.71901
5.73102
5.73969
5.74516
5.74739
5.74626
5.74121
5.73157
5.71677
5.6965
5.67049
5.63771
5.59756
5.54931
5.4902
5.41716
5.3268
5.21916
5.09531
4.95796
4.82481
4.7178
4.64025
4.58647
4.55004
4.52612
4.51164
4.50481
4.25377
4.27513
4.31255
4.36344
4.41995
4.47556
4.53068
4.58367
4.63249
4.67946
4.72619
4.77504
4.82473
4.87459
4.92602
4.97621
5.02236
5.06577
5.10601
5.14221
5.17617
5.20914
5.24276
5.27622
5.30907
5.34222
5.37387
5.40237
5.42882
5.45412
5.47951
5.50434
5.52817
5.55167
5.57339
5.59193
5.60773
5.62048
5.62966
5.6356
5.63831
5.63776
5.63326
5.62404
5.60943
5.58926
5.56341
5.53052
5.49017
5.442
5.38254
5.30814
5.21391
5.10019
4.96746
4.81542
4.66677
4.55205
4.47264
4.41954
4.38447
4.36182
4.34826
4.34188
4.08944
4.11391
4.15519
4.212
4.27413
4.33304
4.3914
4.44711
4.49697
4.54471
4.59207
4.64266
4.69413
4.74541
4.7995
4.85229
4.89969
4.94446
4.9859
5.02233
5.05644
5.08954
5.12409
5.15855
5.19216
5.22684
5.25991
5.28887
5.31565
5.3412
5.36747
5.39321
5.41781
5.44267
5.46576
5.48506
5.50167
5.51519
5.52481
5.53121
5.53438
5.53446
5.53057
5.52183
5.50744
5.48737
5.46182
5.42889
5.38838
5.3407
5.28132
5.20619
5.10822
4.98861
4.84744
4.67871
4.51172
4.38947
4.30931
4.25782
4.2247
4.20367
4.19118
4.18535
3.92972
3.95795
4.00307
4.06661
4.13503
4.19681
4.25849
4.31715
4.36759
4.4159
4.46348
4.51599
4.56926
4.62158
4.67866
4.73436
4.78266
4.82882
4.87158
4.90793
4.94205
4.97502
5.01063
5.04611
5.08025
5.11667
5.15137
5.18057
5.20755
5.23315
5.26039
5.28707
5.31224
5.33863
5.36323
5.38314
5.40057
5.41492
5.4249
5.43172
5.43532
5.43609
5.43289
5.42469
5.4105
5.39051
5.36545
5.3325
5.2918
5.24506
5.18619
5.11111
5.00943
4.8842
4.73558
4.54781
4.35872
4.22955
4.15009
4.10123
4.07064
4.05152
4.04028
4.03505
3.77425
3.80719
3.85582
3.92712
4.00266
4.06655
4.13168
4.19366
4.24409
4.29279
4.34003
4.39478
4.44995
4.5027
4.56323
4.6223
4.67096
4.71856
4.76289
4.79875
4.83277
4.86526
4.90214
4.93871
4.97301
5.01149
5.0481
5.07723
5.10432
5.12967
5.15804
5.18572
5.21116
5.23932
5.26563
5.28592
5.3042
5.31945
5.32965
5.3369
5.34086
5.34242
5.33997
5.33237
5.31837
5.29837
5.27407
5.24108
5.20003
5.15479
5.09678
5.02275
4.91725
4.78662
4.6324
4.42275
4.20663
4.07182
3.99487
3.94973
3.92221
3.90527
3.89539
3.89081
3.62267
3.66163
3.71302
3.79334
3.8771
3.94188
4.0107
4.07659
4.12613
4.1752
4.22132
4.27883
4.33607
4.38834
4.45298
4.51605
4.56423
4.61341
4.65969
4.6945
4.72841
4.75991
4.79842
4.83621
4.8701
4.91107
4.95001
4.97858
5.00576
5.03044
5.06023
5.089
5.11427
5.14451
5.17284
5.19312
5.2123
5.22861
5.23884
5.24652
5.25075
5.25319
5.25157
5.24466
5.2308
5.21065
5.18744
5.15438
5.11264
5.06958
5.01271
4.94105
4.83131
4.69539
4.53864
4.30374
4.05399
3.91587
3.84363
3.8033
3.77934
3.76479
3.75637
3.75248
3.47457
3.52142
3.57412
3.66514
3.75858
3.82233
3.89525
3.96596
4.01338
4.06298
4.10688
4.16797
4.22758
4.27798
4.34768
4.41566
4.46209
4.5131
4.56193
4.59489
4.6288
4.6586
4.6993
4.73852
4.77111
4.8152
4.85706
4.88436
4.9117
4.93514
4.96678
4.99679
5.02122
5.054
5.08476
5.10448
5.12466
5.14223
5.1522
5.16036
5.16473
5.1682
5.16745
5.16135
5.14757
5.12702
5.10541
5.07216
5.02919
4.98923
4.9335
4.866
4.75125
4.60984
4.45529
4.19114
3.899
3.76142
3.69643
3.66194
3.64195
3.62996
3.62306
3.61988
3.32948
3.38692
3.43846
3.54236
3.64743
3.70733
3.78502
3.86189
3.90539
3.9561
3.99618
4.06207
4.1245
4.17102
4.24711
4.32126
4.36408
4.41734
4.46962
4.49957
4.53386
4.56091
4.60462
4.64558
4.6756
4.7237
4.76924
4.79426
4.82205
4.84341
4.87753
4.90902
4.93162
4.9676
5.00135
5.01968
5.04105
5.06019
5.06949
5.07826
5.08253
5.08723
5.08742
5.08225
5.06847
5.04711
5.02782
4.99426
4.94915
4.91355
4.85863
4.79772
4.67666
4.529
4.38369
4.08553
3.73936
3.60836
3.55341
3.5257
3.50999
3.50065
3.4953
3.49285
3.18686
3.25869
3.3052
3.42487
3.54419
3.59616
3.67966
3.76463
3.80164
3.85461
3.88858
3.96103
4.02702
4.06674
4.15107
4.2331
4.26965
4.32583
4.38286
4.40812
4.44356
4.46637
4.51427
4.55745
4.58305
4.63637
4.68665
4.70791
4.73676
4.75482
4.79237
4.8257
4.84503
4.88513
4.92263
4.93838
4.96124
4.9824
4.99043
5.00005
5.0039
5.01011
5.01125
5.00719
4.99335
4.97057
4.95458
4.92055
4.87198
4.84249
4.78744
4.7365
4.60713
4.45154
4.32555
3.98779
3.57216
3.45685
3.4148
3.39461
3.38336
3.37672
3.37294
3.37121
3.04604
3.13764
3.17324
3.31255
3.44964
3.4879
3.57881
3.67459
3.70144
3.75873
3.7833
3.86482
3.93542
3.96426
4.05938
4.1516
4.17814
4.23827
4.30186
4.32005
4.35798
4.37442
4.42816
4.47426
4.49283
4.55304
4.60947
4.62486
4.65586
4.66891
4.71119
4.74689
4.76095
4.80642
4.84869
4.8602
4.88503
4.90883
4.91472
4.92562
4.92856
4.93668
4.93873
4.93602
4.92207
4.89695
4.88567
4.85096
4.79701
4.77611
4.71911
4.68281
4.54227
4.37564
4.28305
3.89913
3.3937
3.30743
3.2809
3.26869
3.26198
3.25804
3.2558
3.25478
2.90619
3.02505
3.04119
3.20526
3.36481
3.3814
3.4821
3.59239
3.6039
3.66889
3.6794
3.77343
3.85018
3.86252
3.97186
4.07739
4.08873
4.15434
4.22696
4.23471
4.27737
4.28437
4.34625
4.39627
4.4042
4.47358
4.53799
4.54457
4.57952
4.58509
4.63393
4.67274
4.67877
4.73135
4.77973
4.78468
4.81221
4.8395
4.84205
4.8549
4.85623
4.8668
4.86965
4.8686
4.85453
4.82578
4.8211
4.78551
4.72344
4.71469
4.6526
4.63736
4.48171
4.29887
4.25888
3.82123
3.19935
3.16118
3.15204
3.14798
3.14576
3.14446
3.14372
3.14338
)
;

boundaryField
{
    left
    {
        type            zeroGradient;
    }
    right
    {
        type            zeroGradient;
    }
    interface
    {
        type            fixedValue;
        value           nonuniform List<scalar> 
64
(
2.83469
2.97274
2.97274
3.15294
3.32713
3.32713
3.43458
3.55481
3.55481
3.62642
3.62642
3.72922
3.81022
3.81022
3.92918
4.0436
4.0436
4.11313
4.19208
4.19208
4.23892
4.23892
4.30653
4.35927
4.35927
4.43488
4.50459
4.50459
4.543
4.543
4.59646
4.63739
4.63739
4.69478
4.7472
4.7472
4.77665
4.80629
4.80629
4.82066
4.82066
4.83288
4.83602
4.83602
4.82195
4.79039
4.79039
4.75426
4.68611
4.68611
4.61889
4.61889
4.45287
4.25761
4.25761
3.78804
3.08894
3.08894
3.08894
3.08894
3.08894
3.08894
3.08894
3.08894
)
;
    }
    bottom
    {
        type            fixedValue;
        value           uniform 10;
    }
    defaultFaces
    {
        type            empty;
    }
}


// ************************************************************************* //
