/*--------------------------------*- C++ -*----------------------------------*\
| =========                 |                                                 |
| \\      /  F ield         | OpenFOAM: The Open Source CFD Toolbox           |
|  \\    /   O peration     | Version:  5.x                                   |
|   \\  /    A nd           | Web:      www.OpenFOAM.org                      |
|    \\/     M anipulation  |                                                 |
\*---------------------------------------------------------------------------*/
FoamFile
{
    version     2.0;
    format      ascii;
    class       volScalarField;
    location    "0.3";
    object      gradTy;
}
// * * * * * * * * * * * * * * * * * * * * * * * * * * * * * * * * * * * * * //

dimensions      [0 -1 0 1 0 0 0];

internalField   nonuniform List<scalar> 
6300
(
32284.7
32254.2
32223.6
32192.8
32161.8
32130.5
32098.8
32066.8
32034.3
32001.3
31967.8
31933.8
31899.2
31864.1
31828.5
0.0497518
0.148787
0.24636
0.341364
0.432551
0.518488
0.597535
0.667862
0.727512
0.774523
0.807103
0.823869
0.824119
0.808094
0.777191
0.0834527
0.249608
0.413423
0.573127
0.726685
0.871723
1.00549
1.12486
1.22644
1.30676
1.36258
1.39128
1.39143
1.36324
1.30899
0.117974
0.352924
0.584804
0.811285
1.02963
1.23656
1.4282
1.60005
1.74707
1.86399
1.94568
1.9878
1.98764
1.945
1.86297
0.153467
0.459263
0.761528
1.05752
1.34391
1.61662
1.87063
2.09997
2.29772
2.45636
2.56825
2.62651
2.62624
2.56601
2.44932
0.190099
0.569136
0.944533
1.31335
1.67189
2.01538
2.33776
2.63148
2.88751
3.09551
3.24447
3.32377
3.32486
3.24353
3.08264
0.227895
0.682652
1.13412
1.57948
2.01491
2.43526
2.83355
3.20072
3.52534
3.79372
3.99039
4.0993
4.10594
4.00066
3.78315
0.266723
0.799458
1.32983
1.85553
2.37305
2.87721
3.3605
3.81252
4.21944
4.56368
4.82411
4.97714
4.99901
4.87009
4.58159
0.306266
0.918627
1.53023
2.13976
2.74457
3.34004
3.91873
4.46945
4.97625
5.41747
5.7653
5.98619
6.04296
5.89917
5.52749
0.345982
1.03855
1.73272
2.42872
3.12545
3.81967
4.50495
5.17034
5.79867
6.36471
6.83346
7.15944
7.28752
7.15622
6.70362
0.38509
1.15689
1.93338
2.71696
3.50886
4.30825
5.11108
5.90831
6.68342
7.40925
8.04446
8.53063
8.79155
8.73468
8.24797
0.422574
1.27056
2.12695
2.9969
3.88478
4.7934
5.72284
6.66843
7.61749
8.54447
9.40455
10.1271
10.6134
10.743
10.3717
0.457222
1.37583
2.30695
3.25893
4.23997
5.25774
6.31848
7.42512
8.57366
9.74661
10.9022
11.9599
12.7921
13.2524
13.288
0.487704
1.4686
2.46612
3.49192
4.55846
5.67914
6.86825
8.13994
9.50548
10.9662
12.4977
14.0184
15.3425
16.1864
16.654
0.512702
1.54474
2.59703
3.68423
4.82285
6.0322
7.33553
8.76103
10.3422
12.1151
14.1041
16.2736
18.3733
19.4966
17.1069
31795.4
31764.9
31734.1
31703.1
31671.7
31640.1
31608.3
31576.3
31544.1
31511.8
31479.3
31446.6
31413.9
31381.1
31348.2
31315.3
31282.4
31249.5
31216.6
31183.8
31151
31118.2
31085.5
31052.8
31020.2
30987.6
30955.1
30922.6
30890.1
30857.7
30825.3
30793
30760.7
30728.5
30696.3
30664.2
30632.2
30600.2
30568.2
30536.3
30504.3
30472.4
30440.5
30408.7
30376.8
30344.9
30313.1
30281.2
30249.4
30217.6
30185.8
30154
30122.3
30090.5
30058.6
30026.8
29994.9
29963
29931.1
29899.1
29867.1
29835.1
29803
29771
29738.9
29706.8
29674.7
29642.5
29610.3
29578.1
29545.8
29513.5
29481.2
29448.8
29416.3
29383.9
29351.4
29318.9
29286.4
29253.9
29221.3
29188.7
29156.1
29123.4
29090.6
29057.7
29024.7
28991.5
28958.2
28924.8
0.737647
0.695376
0.648967
0.600589
0.552064
0.504635
0.458839
0.414521
0.371001
0.327346
0.282695
0.236561
0.189063
0.14101
0.0938519
0.0494672
0.00985966
-0.0231972
-0.0484823
-0.0655581
-0.0748652
-0.0776699
-0.075875
-0.0717286
-0.0674796
-0.0650341
-0.0656684
-0.069845
-0.0771641
-0.086462
-0.0960429
-0.104005
-0.108601
-0.108562
-0.103336
-0.0931866
-0.0791491
-0.0628608
-0.0462854
-0.0313864
-0.0198009
-0.0125657
-0.00994242
-0.0113723
-0.015574
-0.0207703
-0.0250063
-0.0265008
-0.0239648
-0.0168276
-0.00533529
0.00949441
0.0260461
0.0423794
0.0565545
0.0669577
0.072574
0.0731613
0.0692949
0.0622682
0.0538648
0.0460381
0.0405592
0.0386977
0.0409967
0.0471802
0.056205
0.0664472
0.0759903
0.0829681
0.0859097
0.0840298
0.0774177
0.067089
0.0548865
0.0432384
0.0348121
0.0321177
0.0371291
0.050977
0.0737551
0.104455
0.141027
0.180557
0.219535
0.254203
0.280945
0.296696
0.299317
0.287878
1.23954
1.16551
1.08471
1.00117
0.918318
0.838413
0.76232
0.689524
0.61846
0.547059
0.473398
0.396316
0.315856
0.233466
0.151881
0.0747253
0.00589662
-0.0511359
-0.0939721
-0.121731
-0.13523
-0.136881
-0.130317
-0.119833
-0.109722
-0.103617
-0.103937
-0.11153
-0.125574
-0.14376
-0.162745
-0.178787
-0.188456
-0.189268
-0.180139
-0.161574
-0.135577
-0.105309
-0.0745619
-0.0471277
-0.0261693
-0.0136928
-0.0102048
-0.0146195
-0.0244409
-0.0362018
-0.0460865
-0.0506215
-0.0472977
-0.0350092
-0.0142363
0.0130481
0.0437185
0.074024
0.100215
0.119168
0.128915
0.128983
0.120487
0.105947
0.0888419
0.0729881
0.0618427
0.0578791
0.0621506
0.0741136
0.0917342
0.111848
0.130716
0.144681
0.150829
0.147551
0.134915
0.114771
0.0905748
0.0669238
0.0488923
0.0412677
0.0478267
0.0707629
0.110337
0.164771
0.230369
0.301842
0.372792
0.436327
0.485776
0.515443
0.521323
0.501652
1.75793
1.64629
1.52529
1.40173
1.28131
1.16771
1.06208
0.963084
0.867474
0.77111
0.670128
0.562041
0.446546
0.325885
0.204658
0.089119
-0.0139276
-0.098396
-0.160058
-0.197329
-0.21156
-0.206838
-0.189335
-0.166347
-0.145161
-0.131933
-0.13074
-0.142959
-0.167075
-0.198991
-0.232795
-0.261888
-0.280236
-0.283491
-0.269764
-0.239931
-0.197453
-0.14778
-0.0974363
-0.0529471
-0.0197631
-0.00135217
0.00139962
-0.0096316
-0.0301033
-0.0539612
-0.0745347
-0.0857609
-0.0832792
-0.0651855
-0.0323273
0.011876
0.0620305
0.111673
0.154341
0.184644
0.199169
0.197079
0.180296
0.153198
0.121867
0.0929787
0.072577
0.0649688
0.0719708
0.0926201
0.123372
0.158724
0.192167
0.217299
0.228955
0.224173
0.202837
0.167897
0.125079
0.0821147
0.0475819
0.0295882
0.0345367
0.0661882
0.125124
0.208616
0.310863
0.423501
0.536355
0.638372
0.718733
0.768082
0.779763
0.750813
2.29938
2.14034
1.96938
1.79757
1.63427
1.48532
1.3521
1.23157
1.11737
1.00161
0.876886
0.738229
0.584474
0.418915
0.249038
0.0853207
-0.0607079
-0.1787
-0.261471
-0.306304
-0.315383
-0.295397
-0.256448
-0.210461
-0.169334
-0.14311
-0.13842
-0.15744
-0.19753
-0.251684
-0.309807
-0.360637
-0.393922
-0.402335
-0.382744
-0.33665
-0.26984
-0.19136
-0.112017
-0.0426175
0.00779238
0.0334199
0.0327399
0.00884461
-0.0309901
-0.076545
-0.116533
-0.140724
-0.14182
-0.116695
-0.0668215
0.00207404
0.0810257
0.159317
0.226231
0.272804
0.293315
0.286305
0.25493
0.206523
0.151352
0.10073
0.0648713
0.0510045
0.0621253
0.0965677
0.148374
0.208344
0.265581
0.309318
0.330753
0.324634
0.290355
0.232373
0.159806
0.0851763
0.02247
-0.0151113
-0.0171866
0.0223456
0.10457
0.225481
0.376419
0.544875
0.71555
0.871633
0.996376
1.07499
1.09672
1.05668
2.87365
2.65165
2.41478
2.18127
1.96667
1.78041
1.62396
1.49106
1.36966
1.24515
1.10385
0.936303
0.739542
0.518307
0.284696
0.0561933
-0.147719
-0.30958
-0.417377
-0.466629
-0.460926
-0.411135
-0.333573
-0.247453
-0.171931
-0.123167
-0.111854
-0.141483
-0.207639
-0.298575
-0.397242
-0.484579
-0.543355
-0.561444
-0.533831
-0.463152
-0.358985
-0.23614
-0.112242
-0.00490875
0.0710634
0.106099
0.097528
0.0502855
-0.0236343
-0.107147
-0.181286
-0.228956
-0.238141
-0.203867
-0.128738
-0.0222434
0.100933
0.2233
0.327366
0.398439
0.427032
0.410554
0.354019
0.269511
0.174204
0.0871305
0.0253994
0.000954327
0.0185878
0.0753976
0.161504
0.261778
0.358313
0.433328
0.472105
0.465522
0.411882
0.31773
0.197381
0.0709512
-0.0389369
-0.111051
-0.128933
-0.083079
0.028209
0.199009
0.416655
0.662967
0.915669
1.14994
1.34037
1.46374
1.50257
1.44856
3.49408
3.18448
2.85544
2.53787
2.25841
2.0327
1.86207
1.73414
1.62661
1.51301
1.3688
1.17661
0.930026
0.635693
0.31317
-0.00817119
-0.295114
-0.518144
-0.65742
-0.705927
-0.669797
-0.566707
-0.422867
-0.26904
-0.135852
-0.0491586
-0.0262032
-0.0728042
-0.181951
-0.334229
-0.500895
-0.649558
-0.751293
-0.78629
-0.746863
-0.637811
-0.474967
-0.282381
-0.0885623
0.0780057
0.193324
0.241604
0.218031
0.130161
-0.00245328
-0.151243
-0.284158
-0.372621
-0.397065
-0.349894
-0.235854
-0.0706195
0.121962
0.313591
0.475957
0.58519
0.625588
0.592412
0.49331
0.347962
0.185099
0.0369312
-0.0678807
-0.109813
-0.0814945
0.0119045
0.15409
0.320453
0.481887
0.609374
0.678627
0.674023
0.591599
0.440662
0.243569
0.0327629
-0.154878
-0.285222
-0.332592
-0.282855
-0.133972
0.104963
0.415498
0.77175
1.14223
1.49127
1.78083
1.97415
2.04201
1.96959
4.18204
3.74541
3.27974
2.83975
2.47289
2.20586
2.03887
1.94803
1.89249
1.82514
1.70306
1.49544
1.18948
0.79388
0.340147
-0.121863
-0.534339
-0.847112
-1.02797
-1.06691
-0.974898
-0.780772
-0.526362
-0.26073
-0.0326536
0.116795
0.159763
0.0860856
-0.0940193
-0.349039
-0.630359
-0.882008
-1.05524
-1.11822
-1.06008
-0.889857
-0.633705
-0.330334
-0.0255809
0.234775
0.412169
0.480622
0.431156
0.274495
0.0420347
-0.218198
-0.451046
-0.608491
-0.65914
-0.592248
-0.416728
-0.158421
0.144313
0.445966
0.701002
0.870994
0.930018
0.869121
0.699101
0.451528
0.174719
-0.0758297
-0.251847
-0.321891
-0.275451
-0.122006
0.111689
0.386054
0.654167
0.869099
0.991323
0.994407
0.869794
0.629886
0.309328
-0.0389538
-0.353493
-0.579038
-0.676239
-0.625553
-0.425974
-0.0923248
0.348375
0.859923
1.39952
1.91817
2.35973
2.66514
2.78333
2.68594
4.97584
4.3483
3.6672
3.0365
2.5438
2.23516
2.10624
2.11129
2.17564
2.21629
2.16075
1.95614
1.57823
1.03603
0.379286
-0.306646
-0.916897
-1.3658
-1.60266
-1.61623
-1.42682
-1.08143
-0.645805
-0.198136
0.183967
0.436271
0.513879
0.3984
0.101947
-0.325834
-0.802419
-1.22726
-1.51785
-1.62447
-1.53459
-1.26556
-0.860362
-0.380203
0.101403
0.511079
0.787948
0.889497
0.798684
0.528012
0.126532
-0.324582
-0.726528
-0.998168
-1.09051
-0.991071
-0.716863
-0.310251
0.168163
0.645406
1.04845
1.31652
1.40705
1.30288
1.01646
0.597074
0.126391
-0.296067
-0.58858
-0.701882
-0.623683
-0.371671
0.0105195
0.460452
0.902822
1.26211
1.47537
1.49847
1.31381
0.935037
0.414806
-0.15946
-0.680452
-1.05786
-1.23303
-1.18283
-0.911205
-0.443924
0.179081
0.907563
1.68683
2.45592
3.13458
3.62557
3.835
3.7038
5.95128
5.02847
3.98225
3.03475
2.34986
2.0059
1.98096
2.18942
2.49318
2.74623
2.83336
2.66666
2.20387
1.44338
0.460735
-0.600133
-1.53152
-2.18958
-2.4986
-2.45759
-2.10313
-1.51175
-0.782355
-0.0408904
0.587728
1.00753
1.14625
0.97151
0.487207
-0.232189
-1.04885
-1.7657
-2.24525
-2.41358
-2.26696
-1.83728
-1.19487
-0.432073
0.33205
0.978703
1.41626
1.57544
1.42526
0.96993
0.282526
-0.501768
-1.18966
-1.64607
-1.79808
-1.64162
-1.20772
-0.565541
0.193632
0.951634
1.59017
2.01763
2.16438
1.99896
1.5252
0.816351
0.00846522
-0.703597
-1.18357
-1.35784
-1.22242
-0.809022
-0.188434
0.545503
1.27087
1.86517
2.23302
2.30145
2.03711
1.44366
0.597861
-0.35691
-1.2144
-1.82812
-2.11454
-2.05917
-1.67837
-1.01995
-0.142269
0.881904
1.98866
3.12376
4.17953
4.9913
5.37702
5.20357
7.27083
5.88654
4.15537
2.65508
1.66524
1.3175
1.51988
2.13059
2.88405
3.51543
3.87178
3.80385
3.2585
2.17096
0.655135
-1.07976
-2.53943
-3.51568
-3.89829
-3.75001
-3.12031
-2.14055
-0.936008
0.279122
1.29245
1.9838
2.23023
1.99062
1.2112
0.00169729
-1.43883
-2.64573
-3.4207
-3.65613
-3.40683
-2.71524
-1.70264
-0.485757
0.731951
1.74752
2.44554
2.70694
2.49134
1.74608
0.578071
-0.817766
-1.98616
-2.73237
-2.94991
-2.69173
-1.99857
-0.989379
0.22072
1.42982
2.43578
3.12289
3.37116
3.13895
2.37234
1.1781
-0.247618
-1.44553
-2.21902
-2.45999
-2.22172
-1.54498
-0.550879
0.64262
1.82738
2.79407
3.42153
3.58336
3.23405
2.31538
0.937575
-0.694707
-2.09962
-3.06995
-3.48847
-3.40436
-2.8455
-1.9119
-0.674759
0.737153
2.2495
3.90564
5.57572
6.97036
7.72411
7.51586
9.30466
7.24428
3.99629
1.54069
0.0564076
-0.162688
0.471188
1.86655
3.45106
4.68103
5.52152
5.62887
5.09424
3.51562
1.16534
-1.95537
-4.24311
-5.6963
-6.06215
-5.73536
-4.64125
-3.09276
-1.10461
0.89002
2.4611
3.60103
4.0144
3.7873
2.55475
0.568461
-2.16509
-4.14757
-5.373
-5.59661
-5.18352
-4.05541
-2.50447
-0.540547
1.42302
2.97373
4.10365
4.52541
4.32023
3.13105
1.20173
-1.46128
-3.39066
-4.58004
-4.78688
-4.36836
-3.24461
-1.70263
0.249153
2.20043
3.74048
4.85999
5.26977
5.04841
3.83513
1.87304
-0.831931
-2.79887
-4.02157
-4.25254
-3.85274
-2.73828
-1.20078
0.752009
2.69758
4.21116
5.28026
5.60101
5.25058
3.84793
1.64344
-1.36021
-3.61095
-5.10667
-5.58644
-5.43344
-4.55249
-3.24114
-1.45912
0.447593
2.3031
4.66731
7.36836
9.87215
11.4563
11.3159
12.9083
10.3118
2.69598
-0.972387
-3.37397
-2.87072
-1.67352
1.33072
4.5292
6.40807
8.22758
8.37895
8.43392
5.9721
2.7856
-4.02985
-7.14791
-9.44205
-9.22275
-8.82504
-6.81585
-4.67744
-1.28191
2.11144
4.2512
6.26514
6.72143
7.03242
4.98427
2.21184
-3.97239
-6.73905
-8.76746
-8.45356
-7.98948
-6.0041
-3.9007
-0.594485
2.70895
4.8062
6.7819
7.24704
7.56645
5.58215
2.88222
-3.16098
-5.86045
-7.84241
-7.52425
-7.06051
-5.09288
-3.006
0.278332
3.56324
5.65075
7.61917
8.07723
8.3863
6.37621
3.63771
-2.47909
-5.22396
-7.25243
-6.95366
-6.51321
-4.5411
-2.44907
0.871414
4.18942
6.26791
8.21624
8.58474
8.78193
6.53472
3.4997
-3.11032
-6.20993
-8.60678
-8.59604
-8.51115
-6.87968
-5.24852
-2.4234
0.231441
1.62388
4.94359
9.44475
14.0979
17.6716
18.2149
19.7525
20.6044
-4.29286
-5.3148
-10.9928
-6.58388
-6.42629
0.508992
7.50128
8.21429
13.3293
11.2613
15.3911
9.4654
9.62472
-11.4354
-11.2461
-16.8141
-12.6471
-14.2421
-9.18334
-8.07917
-1.46276
5.1314
6.21584
11.1657
9.63121
13.6684
8.45047
8.76215
-10.707
-10.3991
-15.5402
-11.5318
-12.991
-8.12745
-7.03357
-0.648795
5.72749
6.80948
11.6313
10.1746
14.1263
9.06018
9.37374
-9.6788
-9.36595
-14.4192
-10.4731
-11.92
-7.11427
-6.03496
0.305652
6.64937
7.73165
12.5526
11.0987
15.0635
9.96599
10.2672
-8.9816
-8.67985
-13.8334
-9.85739
-11.3777
-6.51479
-5.46446
0.996457
7.4683
8.51428
13.4295
11.8175
15.8357
10.3585
10.5066
-9.91275
-9.81812
-15.571
-11.7096
-13.8131
-9.20371
-8.97254
-3.13987
1.8357
-1.82804
3.52098
11.3046
19.8805
28.2529
32.9613
29.4229
67.9756
-45.6619
-2.95233
-33.1365
-4.17514
-20.9389
-0.394916
19.5153
3.6814
28.7743
5.21868
36.828
4.19601
47.0196
-49.4404
-7.05386
-38.2046
-7.77469
-29.241
-5.85651
-19.4189
-1.61189
16.0851
2.61398
25.4037
4.51753
33.6314
3.95385
43.7966
-45.921
-6.21344
-35.4886
-6.73734
-27.098
-4.8229
-17.7857
-0.691244
16.3696
3.42719
25.5218
5.31374
33.672
4.79134
43.7524
-44.0832
-5.14482
-33.9556
-5.65655
-25.7836
-3.77003
-16.6405
0.328272
17.3119
4.42876
26.5221
6.31711
34.7905
5.78159
45.049
-43.6373
-4.28054
-33.5613
-4.84675
-25.4346
-2.99862
-16.2713
1.10555
18.5603
5.18888
28.0417
6.94282
36.5627
6.08173
47.1305
-46.2555
-5.00607
-36.3798
-6.23395
-28.7818
-5.22301
-20.7627
-2.62206
15.8806
-18.2582
-1.40726
12.0236
25.9561
44.1101
73.2783
28887.8
28847.4
28806.7
28766
28725.2
28684.4
28643.6
28602.9
28562.2
28521.7
28481.2
28440.8
28400.5
28360.3
28320.1
0.2603
0.213195
0.154052
0.0890406
0.0244693
-0.0340871
-0.0823482
-0.11756
-0.138457
-0.14506
-0.13839
-0.120189
-0.0926755
-0.0583598
-0.0199152
0.452747
0.368699
0.263304
0.147973
0.0341772
-0.0681671
-0.151666
-0.211768
-0.24659
-0.256472
-0.243433
-0.210645
-0.162013
-0.101859
-0.0347306
0.675651
0.545333
0.38229
0.205185
0.0322675
-0.12124
-0.244511
-0.331364
-0.379749
-0.390874
-0.368271
-0.316971
-0.242876
-0.152333
-0.05188
0.946869
0.754684
0.51533
0.258201
0.0109385
-0.204558
-0.373785
-0.489441
-0.55018
-0.559018
-0.52182
-0.446104
-0.340197
-0.212722
-0.0723386
1.29042
1.01115
0.666095
0.301302
-0.0422005
-0.334186
-0.556667
-0.702465
-0.772541
-0.77322
-0.713907
-0.605444
-0.459098
-0.286026
-0.0970936
1.74066
1.33333
0.836528
0.323048
-0.146916
-0.533373
-0.816281
-0.991257
-1.06434
-1.04745
-0.95517
-0.802688
-0.604739
-0.375202
-0.127106
2.34839
1.74489
1.02356
0.301199
-0.335209
-0.836174
-1.18389
-1.382
-1.44614
-1.39711
-1.25667
-1.04542
-0.781988
-0.482946
-0.163238
3.19127
2.27419
1.21151
0.193311
-0.659032
-1.2923
-1.70116
-1.90676
-1.94118
-1.83822
-1.629
-1.34038
-0.994864
-0.611368
-0.206144
4.39198
2.94898
1.35489
-0.0805352
-1.20203
-1.97293
-2.42178
-2.60279
-2.57364
-2.38563
-2.0808
-1.69225
-1.24575
-0.761531
-0.256121
6.15019
3.7747
1.33948
-0.668402
-2.09574
-2.9757
-3.41032
-3.50906
-3.36503
-3.04992
-2.61635
-2.10212
-1.53436
-0.932905
-0.312934
8.79388
4.65998
0.896554
-1.83687
-3.53693
-4.42391
-4.73484
-4.6582
-4.32757
-3.83273
-3.23261
-2.56556
-1.85671
-1.12281
-0.375652
12.8198
5.17438
-0.576887
-4.03891
-5.79132
-6.44828
-6.44702
-6.06142
-5.4544
-4.72091
-3.91585
-3.07086
-2.20412
-1.326
-0.442519
18.6072
3.7954
-4.33999
-7.95092
-9.14134
-9.13101
-8.54368
-7.68617
-6.7078
-5.68072
-4.63907
-3.59797
-2.56294
-1.53456
-0.510953
23.5472
-4.25814
-12.6275
-14.2837
-13.6924
-12.391
-10.9107
-9.43195
-8.01006
-6.65525
-5.36184
-4.11909
-2.91516
-1.7384
-0.5777
0.530087
1.59768
2.68797
3.81773
5.00642
6.27791
7.66282
9.20213
10.9525
12.9936
15.4354
18.4078
21.9421
25.2458
22.6426
0.540262
1.62855
2.74065
3.89432
5.11045
6.41523
7.84338
9.44362
11.2885
13.493
16.2554
19.9555
25.4413
35.0309
56.674
0.545054
1.6429
2.7645
3.92756
5.15297
6.46694
7.9045
9.51532
11.3747
13.6051
16.4245
20.2633
26.0907
36.4434
59.0825
0.544469
1.64076
2.75956
3.91751
5.13397
6.43283
7.8453
9.41444
11.2031
13.3082
15.8856
19.1901
23.598
29.3224
33.9019
0.53878
1.62298
2.72744
3.86683
5.05775
6.31983
7.6773
9.16111
10.8119
12.6832
14.8417
17.3508
20.1913
22.9965
24.5592
0.528482
1.59114
2.67106
3.78037
4.93211
6.14061
7.42157
8.79183
10.2676
11.8589
13.5543
15.2812
16.8092
17.5333
15.9833
0.514232
1.54731
2.59427
3.66444
4.76708
5.91106
7.10384
8.34931
9.64303
10.9622
12.245
13.3498
13.9854
13.6495
11.9489
0.496776
1.49385
2.50138
3.52597
4.57336
5.64764
6.74953
7.87329
9.00081
10.0909
11.0594
11.7441
11.8363
10.7132
6.74834
0.476876
1.43312
2.39666
3.37166
4.36097
5.36505
6.38006
7.39467
8.38462
9.30389
10.071
10.5499
10.5313
9.75042
8.1671
0.455244
1.36733
2.28399
3.20742
4.13833
5.07488
6.01089
6.9332
7.81755
8.62263
9.28268
9.70114
9.75575
9.34488
8.53703
0.432503
1.29838
2.16662
3.03798
3.9118
4.78509
5.65124
6.49812
7.30554
8.04212
8.66219
9.10513
9.30349
9.21501
8.91042
0.409159
1.22778
2.04709
2.86684
3.68564
4.50029
5.305
6.09045
6.84275
7.54255
8.16475
8.67902
9.05046
9.23521
9.15311
0.385609
1.1567
1.92726
2.69638
3.46238
4.22239
4.97214
5.70582
6.41644
7.09691
7.74229
8.35214
8.92715
9.44071
9.7567
0.362148
1.086
1.80842
2.52811
3.24328
3.95164
4.65046
5.33724
6.01108
6.67566
7.34455
8.04949
8.84657
9.7834
10.6031
0.338995
1.0163
1.69149
2.36297
3.02894
3.68751
4.33716
4.97766
5.61219
6.25144
6.92182
7.68289
8.66901
10.2074
13.2177
0.316319
0.948073
1.57715
2.20167
2.81973
3.42961
4.03023
4.62225
5.21005
5.80564
6.43614
7.16004
8.10794
9.60936
12.6825
0.294257
0.881711
1.46597
2.04485
2.61622
3.17814
3.72929
4.26978
4.80254
5.33561
5.88563
6.48169
7.16253
7.91978
8.29793
0.272933
0.817573
1.35852
1.89327
2.41929
2.93416
3.43576
3.92269
4.39482
4.85385
5.30317
5.74449
6.16411
6.49343
6.56011
0.25246
0.756002
1.25538
1.74775
2.23012
2.69941
3.15244
3.5859
3.99621
4.37886
4.7263
5.02238
5.22844
5.24946
4.83912
0.232945
0.697324
1.15713
1.60917
2.05003
2.47597
2.88271
3.26519
3.61684
3.92834
4.18511
4.36281
4.4213
4.30505
4.00259
0.214479
0.641824
1.06427
1.47836
1.88032
2.26585
2.62986
2.96591
3.26535
3.51585
3.69885
3.78605
3.73553
3.48994
2.96357
0.197136
0.589728
0.977219
1.35598
1.72202
2.0707
2.39643
2.69205
2.94788
3.15024
3.27912
3.30493
3.18525
2.86983
2.37464
0.180958
0.541177
0.896232
1.24245
1.57577
1.89149
2.18393
2.44583
2.66754
2.83567
2.93098
2.92486
2.77091
2.37457
1.43947
0.165962
0.496212
0.821385
1.13788
1.44175
1.72847
1.99263
2.22753
2.42443
2.57166
2.6533
2.64746
2.52489
2.25347
1.8542
0.152126
0.454776
0.752566
1.04208
1.31964
1.5811
1.82168
2.03562
2.21581
2.35322
2.43638
2.45114
2.38224
2.22114
1.9882
0.139405
0.416716
0.689493
0.954598
1.20871
1.44825
1.66922
1.86716
2.03689
2.17245
2.26697
2.31292
2.30362
2.2387
2.14311
0.127727
0.381806
0.63175
0.874747
1.10791
1.32828
1.53278
1.71829
1.88172
2.0202
2.13128
2.21308
2.26362
2.27757
2.23455
0.117002
0.34977
0.578832
0.801723
1.01601
1.21934
1.40952
1.58475
1.74388
1.88698
2.01593
2.13494
2.24905
2.35602
2.42601
0.107136
0.320309
0.5302
0.734677
0.931722
1.11952
1.29666
1.46239
1.61719
1.76357
1.90749
2.06021
2.23943
2.46014
2.65789
0.0980337
0.293128
0.485329
0.672795
0.853853
1.02712
1.19171
1.34763
1.49634
1.64189
1.79295
1.96708
2.20099
2.58022
3.34093
0.0896072
0.267958
0.443745
0.615366
0.781398
0.940736
1.0928
1.23787
1.37768
1.51637
1.66239
1.83244
2.06163
2.43538
3.2129
0.0817809
0.244568
0.405057
0.561819
0.713593
0.859407
0.99874
1.13178
1.25981
1.38578
1.51513
1.65672
1.82191
2.01013
2.10767
0.0744932
0.222773
0.368958
0.511735
0.649929
0.78258
0.909052
1.02917
1.14337
1.25283
1.35939
1.46461
1.56619
1.64785
1.66728
0.067696
0.202434
0.335227
0.464836
0.590114
0.710044
0.82378
0.930668
1.03021
1.1219
1.20458
1.27505
1.32429
1.32879
1.22585
0.0613531
0.183446
0.303707
0.420946
0.534014
0.641811
0.743263
0.837267
0.922527
0.997209
1.05826
1.10021
1.11348
1.08434
1.01002
0.0554364
0.165729
0.274285
0.379952
0.481576
0.577983
0.66792
0.749939
0.822184
0.881987
0.925214
0.945293
0.932112
0.871259
0.739905
0.0499225
0.14922
0.246871
0.341765
0.432762
0.51865
0.598074
0.669401
0.730483
0.778277
0.80824
0.813475
0.783851
0.707141
0.587262
0.044789
0.133853
0.221371
0.306285
0.387495
0.463805
0.533853
0.595976
0.648009
0.686949
0.708439
0.705865
0.668291
0.573
0.348051
0.0400122
0.119561
0.197678
0.273378
0.345631
0.41331
0.475134
0.529559
0.574627
0.60774
0.625348
0.622561
0.592813
0.528898
0.43603
0.0355653
0.106264
0.175662
0.242866
0.306942
0.366881
0.421552
0.469639
0.509548
0.539297
0.55642
0.55798
0.541063
0.504903
0.457139
0.0314181
0.0938709
0.155169
0.214526
0.271126
0.324109
0.372542
0.415398
0.451522
0.479622
0.4983
0.506228
0.502675
0.488965
0.472016
0.027537
0.0822791
0.136024
0.188099
0.237822
0.284495
0.327405
0.365831
0.399069
0.426489
0.447645
0.462449
0.47134
0.475276
0.475059
0.0238862
0.0713797
0.118037
0.163305
0.206634
0.247493
0.285381
0.319866
0.350654
0.377703
0.401401
0.422774
0.443444
0.464469
0.482115
0.0204289
0.0610603
0.101016
0.139856
0.177162
0.212553
0.245717
0.276467
0.304835
0.331241
0.356771
0.383585
0.415302
0.456007
0.4999
0.0171286
0.0512098
0.084768
0.117471
0.149018
0.179157
0.207729
0.23472
0.260376
0.285386
0.311246
0.340989
0.380916
0.44533
0.571341
0.0139503
0.041722
0.0691128
0.0958886
0.121849
0.146849
0.170835
0.193898
0.216362
0.238939
0.263022
0.291317
0.329522
0.391877
0.524032
0.0108612
0.0324979
0.0538836
0.0748708
0.0953446
0.115242
0.13458
0.153489
0.172266
0.191444
0.21187
0.234761
0.261354
0.289951
0.296531
0.00783119
0.0234473
0.0389299
0.0542077
0.0692382
0.084022
0.0986196
0.113168
0.12789
0.143077
0.159004
0.175629
0.19179
0.203315
0.201839
0.00483304
0.0144886
0.0241167
0.0337141
0.0433003
0.0529277
0.0626899
0.0727225
0.0831849
0.0941933
0.105647
0.116817
0.125441
0.125707
0.102847
0.00184187
0.00554771
0.00932315
0.0132259
0.0173307
0.0217362
0.0265682
0.0319742
0.0380964
0.0449957
0.0524813
0.0597679
0.0648926
0.0641563
0.0542754
-0.00116507
-0.00344275
-0.00556089
-0.0074056
-0.00885127
-0.0097557
-0.00995698
-0.00927652
-0.00753726
-0.00461466
-0.000551163
0.00421472
0.00840904
0.00895462
-0.00232203
-0.00420891
-0.0125454
-0.0206372
-0.0283175
-0.0354132
-0.0417407
-0.0470999
-0.0512684
-0.0539989
-0.0550236
-0.0540777
-0.0509475
-0.0455463
-0.038039
-0.02955
-0.00730973
-0.0218198
-0.036002
-0.049639
-0.0625135
-0.0744038
-0.0850758
-0.0942658
-0.101652
-0.106808
-0.109128
-0.107694
-0.100971
-0.0857167
-0.0514987
-0.0104872
-0.0313236
-0.0517485
-0.0714945
-0.0903025
-0.107919
-0.124088
-0.138524
-0.150862
-0.160571
-0.166794
-0.16812
-0.162326
-0.146567
-0.121214
-0.0137611
-0.0411154
-0.06797
-0.0940063
-0.118925
-0.142448
-0.164312
-0.184246
-0.201908
-0.216765
-0.227871
-0.233499
-0.230611
-0.214086
-0.173744
-0.0171526
-0.0512565
-0.0847639
-0.1173
-0.148523
-0.178136
-0.205887
-0.231557
-0.254912
-0.275574
-0.292763
-0.304803
-0.308374
-0.298151
-0.271644
-0.0206846
-0.0618147
-0.102237
-0.141512
-0.179248
-0.215126
-0.248916
-0.280488
-0.309798
-0.336807
-0.361244
-0.382002
-0.395728
-0.39353
-0.351922
-0.0243838
-0.0728676
-0.120512
-0.166798
-0.211272
-0.253578
-0.293498
-0.331003
-0.366296
-0.399842
-0.432294
-0.464098
-0.494154
-0.516284
-0.515591
-0.0282811
-0.0845068
-0.139736
-0.193352
-0.244813
-0.293698
-0.339772
-0.383069
-0.424024
-0.463654
-0.503811
-0.547426
-0.598099
-0.654898
-0.676749
-0.0324135
-0.0968418
-0.160088
-0.221411
-0.280153
-0.335784
-0.387989
-0.436778
-0.482689
-0.527119
-0.572948
-0.625872
-0.697811
-0.81779
-1.07489
-0.0368242
-0.110002
-0.181782
-0.251274
-0.317665
-0.380266
-0.438596
-0.492506
-0.542405
-0.589634
-0.63718
-0.691136
-0.764183
-0.885474
-1.13368
-0.0415632
-0.124139
-0.205073
-0.283302
-0.357824
-0.427732
-0.492291
-0.551042
-0.603999
-0.651954
-0.696987
-0.743169
-0.797076
-0.865027
-0.928603
-0.0466864
-0.139422
-0.230251
-0.317919
-0.401202
-0.478933
-0.550041
-0.613628
-0.669092
-0.716331
-0.756024
-0.789868
-0.820245
-0.847619
-0.863249
-0.0522542
-0.156035
-0.257634
-0.355594
-0.448455
-0.534756
-0.613041
-0.681882
-0.739926
-0.785981
-0.819155
-0.839009
-0.845534
-0.838373
-0.81355
-0.0583293
-0.174171
-0.287557
-0.396827
-0.500284
-0.596169
-0.682626
-0.757666
-0.81912
-0.864611
-0.891572
-0.897441
-0.880363
-0.841404
-0.79117
-0.064974
-0.19402
-0.320351
-0.442115
-0.557396
-0.664157
-0.760172
-0.84292
-0.909439
-0.956149
-0.978677
-0.97185
-0.930426
-0.852281
-0.747381
-0.0722479
-0.215764
-0.356329
-0.491926
-0.620449
-0.739637
-0.846967
-0.939483
-1.01356
-1.06453
-1.08621
-1.07033
-1.00603
-0.881755
-0.706244
-0.080205
-0.239567
-0.395774
-0.54667
-0.690013
-0.823388
-0.944088
-1.0489
-1.13377
-1.19329
-1.2199
-1.20248
-1.12334
-0.946827
-0.56159
-0.0888932
-0.265573
-0.438923
-0.606685
-0.76653
-0.91598
-1.05229
-1.17221
-1.27164
-1.34498
-1.38421
-1.37757
-1.30834
-1.15687
-0.929419
-0.0983536
-0.293902
-0.485971
-0.672226
-0.850299
-1.01774
-1.17191
-1.30982
-1.4277
-1.52043
-1.58044
-1.59619
-1.55052
-1.41975
-1.16845
-0.108623
-0.32466
-0.537076
-0.743477
-0.94149
-1.12876
-1.3029
-1.46138
-1.60129
-1.71867
-1.80749
-1.85756
-1.85187
-1.76637
-1.59411
-0.119736
-0.357945
-0.592381
-0.820585
-1.04018
-1.24894
-1.44481
-1.62593
-1.79059
-1.93684
-2.06154
-2.15777
-2.20874
-2.1733
-1.94627
-0.13173
-0.393863
-0.652038
-0.903702
-1.14645
-1.37813
-1.59702
-1.80199
-1.99277
-2.17009
-2.33547
-2.48953
-2.62575
-2.71334
-2.67601
-0.144651
-0.432544
-0.716242
-0.993045
-1.26044
-1.51627
-1.75897
-1.98799
-2.20438
-2.41173
-2.6174
-2.83381
-3.0767
-3.3402
-3.42552
-0.158553
-0.474155
-0.78526
-1.08896
-1.38252
-1.66358
-1.93049
-2.18284
-2.42238
-2.65467
-2.892
-3.15988
-3.51352
-4.09088
-5.32098
-0.173507
-0.518903
-0.859448
-1.19195
-1.51332
-1.82079
-2.11221
-2.38667
-2.64553
-2.89422
-3.14556
-3.42656
-3.79516
-4.38836
-5.58562
-0.189591
-0.567035
-0.939251
-1.3027
-1.65383
-1.98921
-2.30578
-2.60142
-2.87585
-3.13209
-3.37867
-3.63262
-3.92103
-4.26628
-4.56424
-0.206885
-0.618816
-1.02517
-1.42205
-1.80534
-2.17075
-2.51396
-2.831
-3.11893
-3.37679
-3.60683
-3.81495
-4.00768
-4.1769
-4.2581
-0.225463
-0.674486
-1.11769
-1.55086
-1.96932
-2.36778
-2.74039
-3.0809
-3.38299
-3.64096
-3.85037
-4.00818
-4.11092
-4.14863
-4.09141
-0.245369
-0.734211
-1.21721
-1.68994
-2.14722
-2.58281
-2.98921
-3.35757
-3.6778
-3.93898
-4.1299
-4.23982
-4.25959
-4.18623
-4.04106
-0.266596
-0.79801
-1.32388
-1.83979
-2.34024
-2.81818
-3.26451
-3.66774
-4.01374
-4.28592
-4.46583
-4.53425
-4.47315
-4.27369
-3.97602
-0.289063
-0.865676
-1.43749
-2.0004
-2.54895
-3.07555
-3.56981
-4.01773
-4.40104
-4.69706
-4.87931
-4.91878
-4.78301
-4.4293
-3.84758
-0.312587
-0.936691
-1.55729
-2.17104
-2.77293
-3.35543
-3.90737
-4.41267
-4.84905
-5.1873
-5.39208
-5.42513
-5.2444
-4.74323
-3.28008
-0.336857
-1.01015
-1.68188
-2.34993
-3.01041
-3.65657
-4.27737
-4.85554
-5.3653
-5.77033
-6.02421
-6.08008
-5.92846
-5.72518
-6.25227
-0.361421
-1.08471
-1.80904
-2.53412
-3.25788
-3.97538
-4.67703
-5.34597
-5.95435
-6.45839
-6.79395
-6.87921
-6.64856
-6.19999
-6.35161
-0.385681
-1.15855
-1.93571
-2.71923
-3.50972
-4.30523
-5.09944
-5.87853
-6.61591
-7.26352
-7.73759
-7.8978
-7.52007
-6.25794
-3.45532
-0.408897
-1.22942
-2.05799
-2.89953
-3.7581
-4.63603
-5.5324
-6.44008
-7.33988
-8.18921
-8.89927
-9.29002
-9.00584
-7.38556
-3.41188
-0.430225
-1.2947
-2.17126
-3.06803
-3.99305
-4.95404
-5.95755
-7.00713
-8.09894
-9.21166
-10.2827
-11.151
-11.4195
-10.1475
-5.34768
-0.448761
-1.35159
-2.27053
-3.21692
-4.20305
-5.24254
-6.35075
-7.54491
-8.84351
-10.2631
-11.807
-13.4285
-14.9031
-15.3591
-11.3776
-0.463612
-1.39731
-2.35075
-3.33826
-4.37604
-5.48339
-6.68432
-8.01023
-9.50414
-11.2282
-13.2776
-15.808
-19.0942
-23.6524
-30.4445
-11.5145
-27.2723
-25.8043
-22.015
-18.4964
-15.5526
-13.0931
-10.9929
-9.15262
-7.50026
-5.98394
-4.56555
-3.21605
-1.91225
-0.634583
-119.803
-62.1422
-39.9169
-28.9777
-22.4819
-18.0825
-14.8151
-12.2201
-10.0517
-8.16695
-6.47621
-4.91977
-3.45527
-2.05067
-0.679904
-133.233
-72.4037
-46.1922
-32.8551
-25.0116
-19.8263
-16.0705
-13.1511
-10.754
-8.69898
-6.87527
-5.21019
-3.65294
-2.1656
-0.717625
-72.6555
-58.6251
-43.5271
-32.9175
-25.6957
-20.5776
-16.7451
-13.7195
-11.2188
-9.07046
-7.16423
-5.42576
-3.80211
-2.2532
-0.746515
-50.9881
-45.5878
-37.7454
-30.6273
-24.919
-20.4362
-16.8594
-13.9236
-11.4389
-9.27389
-7.33675
-5.56163
-3.8994
-2.31151
-0.765927
-32.144
-34.2464
-31.4608
-27.3584
-23.2913
-19.6659
-16.5287
-13.8144
-11.4371
-9.31914
-7.39681
-5.61916
-3.94508
-2.34047
-0.775808
-23.6002
-26.2997
-26.0907
-24.0651
-21.357
-18.5566
-15.9045
-13.4713
-11.2553
-9.22859
-7.35645
-5.60481
-3.94256
-2.34169
-0.77664
-13.0758
-20.3727
-21.9823
-21.246
-19.4869
-17.3444
-15.1285
-12.9775
-10.9421
-9.03078
-7.23246
-5.52842
-3.89743
-2.31806
-0.769304
-15.6449
-18.3955
-19.5031
-19.1372
-17.8833
-16.1833
-14.3074
-12.4033