/*--------------------------------*- C++ -*----------------------------------*\
| =========                 |                                                 |
| \\      /  F ield         | OpenFOAM: The Open Source CFD Toolbox           |
|  \\    /   O peration     | Version:  5.x                                   |
|   \\  /    A nd           | Web:      www.OpenFOAM.org                      |
|    \\/     M anipulation  |                                                 |
\*---------------------------------------------------------------------------*/
FoamFile
{
    version     2.0;
    format      ascii;
    class       volScalarField;
    location    "12.5001";
    object      gradTy;
}
// * * * * * * * * * * * * * * * * * * * * * * * * * * * * * * * * * * * * * //

dimensions      [0 -1 0 1 0 0 0];

internalField   nonuniform List<scalar> 
6300
(
32284.1
32252.2
32220.2
32188
32155.6
32122.8
32089.7
32056.2
32022.1
31987.6
31952.5
31916.8
31880.5
31843.6
31806.1
0.0533939
0.159685
0.264449
0.366559
0.464724
0.557453
0.643036
0.719558
0.784966
0.837194
0.874347
0.894957
0.898261
0.884488
0.855046
0.089544
0.267842
0.44371
0.615329
0.780598
0.937053
1.08182
1.21164
1.32295
1.4121
1.47565
1.51084
1.51609
1.49158
1.43963
0.126485
0.378433
0.627224
0.870457
1.1053
1.32836
1.53558
1.72226
1.88313
2.01264
2.10536
2.15671
2.16375
2.12616
2.04709
0.164449
0.492185
0.816305
1.13399
1.44181
1.73552
2.00991
2.25872
2.47473
2.65001
2.77652
2.84696
2.8561
2.80231
2.6891
0.203579
0.609558
1.01184
1.4074
1.79245
2.16204
2.50986
2.82805
3.10712
3.33624
3.5038
3.59858
3.61147
3.53793
3.38075
0.243892
0.730642
1.21409
1.69136
2.15857
2.61036
3.03951
3.43655
3.78953
4.08408
4.30393
4.43212
4.45332
4.35719
4.14321
0.285241
0.855036
1.42254
1.98542
2.54015
3.08137
3.60133
4.08917
4.53044
4.90669
5.19573
5.37268
5.41246
5.29424
5.00858
0.327282
0.981736
1.63561
2.28767
2.93527
3.57371
4.1953
4.78842
5.33639
5.81653
6.19961
6.45033
6.52947
6.39856
6.02859
0.369435
1.10903
1.85054
2.59439
3.3396
4.08293
4.8178
5.53286
6.2102
6.8234
7.33575
7.6994
7.85634
7.74171
7.28998
0.41087
1.23441
2.06314
2.89979
3.74585
4.60064
5.46014
6.31502
7.14812
7.93104
8.62044
9.15501
9.45471
9.42209
8.93845
0.450509
1.35461
2.26784
3.19583
4.14338
5.1137
6.10711
7.11896
8.13615
9.13206
10.0598
10.8455
11.386
11.5554
11.2008
0.487071
1.4657
2.45779
3.47232
4.51818
5.60367
6.73565
7.91751
9.14535
10.4011
11.6412
12.7819
13.691
14.2202
14.3192
0.519153
1.56333
2.6253
3.71753
4.85335
6.04717
7.31431
8.67002
10.1265
11.6856
13.3222
14.9515
16.3833
17.3378
17.972
0.545368
1.64318
2.76256
3.91915
5.13055
6.41737
7.80438
9.32168
11.005
12.8926
15.0105
17.3216
19.5671
20.829
18.6177
31771.3
31739.2
31706.7
31673.9
31640.9
31607.5
31573.8
31539.9
31505.8
31471.4
31436.9
31402.3
31367.5
31332.5
31297.5
31262.5
31227.4
31192.2
31157.1
31122
31087
31051.9
31016.9
30982
30947.1
30912.2
30877.4
30842.7
30808
30773.4
30738.8
30704.4
30670
30635.8
30601.6
30567.6
30533.6
30499.8
30466.1
30432.4
30398.9
30365.4
30332.1
30298.8
30265.6
30232.6
30199.6
30166.7
30134
30101.4
30068.9
30036.5
30004.2
29972
29939.9
29907.9
29876
29844.2
29812.5
29780.8
29749.3
29717.8
29686.5
29655.2
29624.1
29593
29562.1
29531.2
29500.5
29469.8
29439.2
29408.6
29378.1
29347.7
29317.3
29287
29256.8
29226.6
29196.4
29166.4
29136.3
29106.3
29076.3
29046.3
29016.2
28986.1
28955.9
28925.7
28895.3
28864.9
0.816079
0.773848
0.727085
0.678005
0.628459
0.579686
0.532184
0.485727
0.439544
0.392607
0.343978
0.293135
0.240208
0.186078
0.132315
0.080953
0.0341611
-0.00613848
-0.0386179
-0.0627918
-0.0791199
-0.0889492
-0.0943096
-0.0975985
-0.101208
-0.107152
-0.116758
-0.130469
-0.147788
-0.167394
-0.187388
-0.205654
-0.220243
-0.229734
-0.233482
-0.231729
-0.225559
-0.216706
-0.207264
-0.199332
-0.194668
-0.194392
-0.198802
-0.207324
-0.218616
-0.230807
-0.241829
-0.249791
-0.253305
-0.251728
-0.245263
-0.23491
-0.222291
-0.209369
-0.198112
-0.190165
-0.186568
-0.187584
-0.192647
-0.200467
-0.209246
-0.217007
-0.221931
-0.222683
-0.218627
-0.209928
-0.1975
-0.182838
-0.167743
-0.154001
-0.14306
-0.135757
-0.132142
-0.131427
-0.132076
-0.13202
-0.128978
-0.120808
-0.105849
-0.083202
-0.0528941
-0.0159388
0.0257255
0.0693975
0.11186
0.149696
0.179644
0.198969
0.205794
0.199352
1.37108
1.29707
1.21561
1.13086
1.0463
0.964212
0.885382
0.80916
0.7338
0.657042
0.576807
0.491847
0.402225
0.309512
0.216671
0.127623
0.0465839
-0.0226897
-0.0775917
-0.11715
-0.142223
-0.15538
-0.160505
-0.162186
-0.165
-0.172798
-0.188105
-0.21174
-0.242705
-0.278392
-0.315077
-0.348609
-0.375182
-0.392024
-0.397887
-0.393247
-0.380207
-0.362128
-0.343055
-0.327046
-0.317493
-0.31656
-0.32482
-0.341154
-0.362944
-0.386542
-0.407918
-0.423388
-0.430266
-0.427318
-0.414952
-0.395122
-0.370976
-0.346312
-0.324939
-0.310039
-0.303629
-0.306217
-0.316708
-0.332589
-0.350366
-0.366183
-0.376514
-0.378775
-0.371757
-0.355804
-0.33272
-0.305423
-0.27743
-0.25223
-0.232668
-0.22042
-0.215649
-0.2169
-0.221265
-0.224801
-0.223133
-0.21215
-0.188648
-0.150853
-0.098723
-0.0340412
0.0397033
0.117613
0.193827
0.262078
0.316345
0.351535
0.36413
0.352677
1.94301
1.83111
1.70895
1.58352
1.46067
1.34411
1.23489
1.13141
1.03012
0.926524
0.81647
0.697298
0.568709
0.43314
0.295572
0.162764
0.0420683
-0.0599337
-0.138658
-0.192367
-0.222483
-0.233376
-0.231658
-0.225141
-0.221615
-0.227627
-0.24746
-0.282455
-0.330819
-0.387954
-0.447305
-0.501585
-0.544131
-0.570123
-0.577414
-0.566858
-0.54211
-0.508978
-0.474434
-0.445461
-0.427902
-0.425489
-0.439211
-0.467123
-0.504669
-0.545475
-0.582509
-0.609357
-0.621376
-0.616469
-0.595388
-0.561549
-0.520404
-0.478513
-0.442445
-0.417688
-0.407732
-0.413468
-0.433007
-0.461982
-0.494305
-0.523259
-0.542718
-0.548227
-0.53775
-0.51195
-0.474004
-0.429012
-0.383095
-0.342339
-0.311742
-0.294316
-0.290485
-0.297889
-0.311649
-0.325073
-0.330704
-0.321517
-0.29203
-0.239147
-0.162627
-0.0651944
0.0476826
0.168272
0.287259
0.394596
0.480516
0.536639
0.557097
0.539421
2.5399
2.38001
2.20708
2.03256
1.86608
1.71355
1.5762
1.45059
1.32982
1.20536
1.06931
0.916343
0.745266
0.559665
0.36763
0.180471
0.0106366
-0.130695
-0.235749
-0.301555
-0.330427
-0.329534
-0.309721
-0.283789
-0.264495
-0.262558
-0.284981
-0.333921
-0.406303
-0.494323
-0.586837
-0.671458
-0.73692
-0.775152
-0.782643
-0.760905
-0.716088
-0.657861
-0.59779
-0.547441
-0.516502
-0.511186
-0.533167
-0.579221
-0.641698
-0.709842
-0.771765
-0.816682
-0.836861
-0.828908
-0.794197
-0.738496
-0.670907
-0.602329
-0.543662
-0.504022
-0.48924
-0.500843
-0.535718
-0.586554
-0.643095
-0.694008
-0.729007
-0.7407
-0.72581
-0.685584
-0.625436
-0.553933
-0.481326
-0.417818
-0.371852
-0.348635
-0.34914
-0.369725
-0.402518
-0.436567
-0.459611
-0.460115
-0.429104
-0.361476
-0.256643
-0.118588
0.0445562
0.221239
0.397465
0.557958
0.687592
0.773103
0.804976
0.779084
3.17178
2.94779
2.70759
2.47012
2.25146
2.06124
1.9007
1.76291
1.6349
1.50097
1.34655
1.16151
0.942773
0.695475
0.432679
0.17324
-0.0618338
-0.253696
-0.389354
-0.463928
-0.481232
-0.452937
-0.396596
-0.332882
-0.282381
-0.262409
-0.28432
-0.351631
-0.459271
-0.594222
-0.737734
-0.86892
-0.96892
-1.02445
-1.02996
-0.988188
-0.909378
-0.809401
-0.707146
-0.621473
-0.568205
-0.557574
-0.592458
-0.66767
-0.770569
-0.883167
-0.985511
-1.05963
-1.09286
-1.07988
-1.02323
-0.93256
-0.822834
-0.711875
-0.617478
-0.554561
-0.532751
-0.554706
-0.615443
-0.702912
-0.799986
-0.887675
-0.948857
-0.971453
-0.950351
-0.887906
-0.793216
-0.680446
-0.566452
-0.468037
-0.3992
-0.368796
-0.378879
-0.42398
-0.491576
-0.563907
-0.620977
-0.644093
-0.618908
-0.537379
-0.3985
-0.208108
0.0219337
0.274866
0.530326
0.765759
0.958203
1.08681
1.13604
1.0988
3.85264
3.53892
3.20419
2.88063
2.59596
2.36626
2.19251
2.06125
1.94857
1.82619
1.66793
1.45528
1.18144
0.853629
0.492916
0.130936
-0.196523
-0.457624
-0.63092
-0.708768
-0.697701
-0.616728
-0.494089
-0.362949
-0.256307
-0.201951
-0.218284
-0.311266
-0.472914
-0.681792
-0.906385
-1.11129
-1.26496
-1.34578
-1.34536
-1.26881
-1.13315
-0.964223
-0.792624
-0.648845
-0.558511
-0.538423
-0.593676
-0.716248
-0.885476
-1.07126
-1.2399
-1.36145
-1.41539
-1.39373
-1.30126
-1.15406
-0.976537
-0.79757
-0.645964
-0.545907
-0.513241
-0.552722
-0.656674
-0.805438
-0.970393
-1.11951
-1.22427
-1.26513
-1.23443
-1.13666
-0.987033
-0.808718
-0.629145
-0.475663
-0.371203
-0.330657
-0.35819
-0.445842
-0.573816
-0.713221
-0.831237
-0.897621
-0.889848
-0.795865
-0.614535
-0.354722
-0.0336513
0.324854
0.692025
1.03546
1.32074
1.51482
1.5916
1.53826
4.60473
4.16018
3.68458
3.2351
2.86126
2.59072
2.42317
2.33288
2.27627
2.20313
2.06773
1.83719
1.49788
1.05919
0.555003
0.0389367
-0.426757
-0.787988
-1.00993
-1.08165
-1.01484
-0.840518
-0.603823
-0.357739
-0.154943
-0.0397042
-0.0418738
-0.172023
-0.418549
-0.746736
-1.10338
-1.42745
-1.66588
-1.78412
-1.7704
-1.63455
-1.40481
-1.1229
-0.838041
-0.599257
-0.447662
-0.41078
-0.497957
-0.697645
-0.976546
-1.28402
-1.56213
-1.76063
-1.8468
-1.80953
-1.65812
-1.41924
-1.13231
-0.843867
-0.600217
-0.44021
-0.389841
-0.457898
-0.633376
-0.884647
-1.16361
-1.41522
-1.59169
-1.66186
-1.61508
-1.46008
-1.22217
-0.9388
-0.654265
-0.412698
-0.251169
-0.194483
-0.250927
-0.40964
-0.639595
-0.893334
-1.11585
-1.25794
-1.28493
-1.18013
-0.943585
-0.589547
-0.143142
0.362366
0.887899
1.38892
1.81462
2.11173
2.23455
2.1581
5.46792
4.82576
4.12701
3.48046
2.97767
2.66676
2.54251
2.556
2.62784
2.66978
2.60459
2.37581
1.95746
1.35913
0.634214
-0.12558
-0.807408
-1.31892
-1.60525
-1.654
-1.48678
-1.15413
-0.72708
-0.290198
0.0725033
0.291609
0.318826
0.1348
-0.246592
-0.770696
-1.34731
-1.86691
-2.23989
-2.41246
-2.3713
-2.13549
-1.75162
-1.28581
-0.817115
-0.42412
-0.171628
-0.104494
-0.240224
-0.564976
-1.02648
-1.53905
-1.99899
-2.32155
-2.45596
-2.38972
-2.14091
-1.7536
-1.29028
-0.825658
-0.434023
-0.176634
-0.0959059
-0.208386
-0.500938
-0.923981
-1.39621
-1.81912
-2.11218
-2.22701
-2.15157
-1.90288
-1.52275
-1.07057
-0.617508
-0.234478
0.01984
0.104602
0.00360077
-0.270846
-0.671124
-1.11841
-1.51627
-1.78399
-1.86979
-1.75411
-1.44183
-0.957378
-0.337741
0.371042
1.11907
1.85084
2.49364
2.95965
3.16443
3.05543
6.52132
5.57199
4.49341
3.51834
2.81766
2.47387
2.46333
2.695
3.02246
3.29073
3.37707
3.18744
2.67624
1.84139
0.763679
-0.402346
-1.4333
-2.17411
-2.5427
-2.53736
-2.19693
-1.6037
-0.864489
-0.115836
0.506724
0.899243
0.983711
0.725828
0.130867
-0.719043
-1.67333
-2.51753
-3.10248
-3.34858
-3.25252
-2.84962
-2.21642
-1.45288
-0.687186
-0.0466581
0.371319
0.493916
0.289699
-0.235389
-1.00286
-1.8699
-2.63368
-3.15339
-3.35406
-3.23282
-2.82313
-2.19742
-1.4501
-0.702355
-0.0745134
0.341332
0.476251
0.300428
-0.180592
-0.892489
-1.69982
-2.41003
-2.8893
-3.06615
-2.93754
-2.53497
-1.92708
-1.2036
-0.479908
0.129087
0.535012
0.671186
0.507893
0.049143
-0.634956
-1.41467
-2.10409
-2.57201
-2.74477
-2.61119
-2.18799
-1.51988
-0.660709
0.323208
1.37365
2.4409
3.42724
4.18374
4.54614
4.39492
7.93572
6.50318
4.70863
3.15936
2.1437
1.80116
2.03529
2.69594
3.50226
4.17368
4.54697
4.46219
3.86113
2.67342
1.02034
-0.8736
-2.47696
-3.56531
-4.01859
-3.90323
-3.27111
-2.26349
-1.0155
0.240096
1.2722
1.95047
2.14158
1.80225
0.875453
-0.517086
-2.1579
-3.54144
-4.45304
-4.77738
-4.57562
-3.89536
-2.86893
-1.62303
-0.377026
0.651275
1.33961
1.56294
1.28167
0.443224
-0.835856
-2.34943
-3.61983
-4.44466
-4.71573
-4.49126
-3.81645
-2.81634
-1.61056
-0.406387
0.590272
1.26383
1.49588
1.24873
0.47222
-0.723578
-2.14326
-3.3335
-4.10191
-4.34516
-4.11799
-3.46273
-2.49786
-1.33692
-0.17715
0.785075
1.43863
1.669
1.43764
0.693637
-0.461105
-1.84095
-3.01085
-3.78507
-4.06088
-3.8853
-3.28683
-2.35751
-1.16331
0.179584
1.60401
3.14746
4.69181
5.97534
6.66747
6.47806
10.1065
7.95846
4.56689
2.02465
0.498829
0.298425
0.993302
2.4872
4.17636
5.48593
6.37652
6.48044
5.89085
4.1756
1.62388
-1.76326
-4.26223
-5.87101
-6.31332
-6.01324
-4.886
-3.2694
-1.17745
0.917843
2.54722
3.70318
4.0633
3.7246
2.29071
0.0423814
-3.01293
-5.24497
-6.64924
-6.96379
-6.58774
-5.43959
-3.83749
-1.79335
0.246631
1.83875
2.97753
3.35855
3.076
1.75634
-0.331186
-3.17913
-5.24759
-6.53336
-6.79098
-6.39818
-5.2782
-3.73143
-1.76868
0.188395
1.72032
2.82211
3.20554
2.9593
1.72881
-0.232273
-2.91709
-4.86442
-6.07073
-6.3016
-5.91486
-4.83635
-3.35097
-1.46855
0.410072
1.88555
2.95161
3.33173
3.10561
1.92959
0.0368903
-2.56953
-4.48741
-5.71583
-6.027
-5.76839
-4.86209
-3.57655
-1.88004
-0.0814473
1.663
3.85271
6.33197
8.61857
10.0582
9.92042
13.9728
11.243
3.21647
-0.594025
-3.06609
-2.4967
-1.20004
1.99709
5.39702
7.40154
9.33889
9.49742
9.54156
6.88233
3.43048
-3.93188
-7.32936
-9.85641
-9.6771
-9.31437
-7.20559
-4.95981
-1.34423
2.26651
4.50395
6.60188
6.99135
7.224
4.87877
1.7639
-5.05347
-8.14051
-10.4146
-10.1447
-9.71168
-7.63753
-5.44257
-1.95768
1.5152
3.67905
5.70659
6.10973
6.36375
4.1752
1.26848
-5.13129
-8.00245
-10.1026
-9.80284
-9.35224
-7.35452
-5.24554
-1.91863
1.39539
3.46976
5.41484
5.82193
6.08717
4.03747
1.30121
-4.75291
-7.46242
-9.44419
-9.14737
-8.70789
-6.79584
-4.77585
-1.59469
1.57781
3.57561
5.45235
5.86743
6.14142
4.19757
1.56264
-4.28959
-6.95679
-8.96742
-8.8136
-8.58417
-6.98343
-5.38739
-2.74377
-0.264509
1.08082
4.141
8.24954
12.4814
15.7206
16.1913
21.4603
22.3946
-3.98815
-5.10367
-11.0136
-6.34084
-6.13063
1.21477
8.62705
9.41389
14.8628
12.6791
17.0852
10.7305
10.8682
-11.8099
-11.6499
-17.739
-13.305
-15.1298
-9.72245
-8.62273
-1.50405
5.59274
6.66158
11.9608
10.1452
14.4356
8.5751
8.817
-12.4657
-12.2067
-17.8435
-13.5603
-15.1989
-10.0094
-8.90514
-2.10474
4.66878
5.71563
10.7748
9.07563
13.1688
7.62821
7.89814
-12.1646
-11.8676
-17.1276
-13.032
-14.5341
-9.59106
-8.51347
-2.05001
4.38748
5.40537
10.2223
8.64258
12.5486
7.33478
7.6124
-11.405
-11.1083
-16.0988
-12.1986
-13.6214
-8.91077
-7.87278
-1.70838
4.43713
5.43999
10.0579
8.60632
12.3709
7.4607
7.72129
-10.5961
-10.3717
-15.3358
-11.7091
-13.3746
-9.098
-8.70674
-3.37084
1.18529
-1.97074
2.91967
9.98956
17.7736
25.3695
29.62
32.4893
72.9151
-47.551
-2.6842
-34.1905
-3.75638
-21.3352
0.336295
21.3977
4.71277
31.3775
6.37163
40.1241
5.22952
51.1608
-52.5749
-6.97185
-40.7747
-7.92014
-31.3597
-6.0363
-20.9529
-1.63233
17.5992
2.72751
27.565
4.50643
36.2644
3.48403
46.8655
-50.8978
-7.78278
-39.5571
-8.44879
-30.5183
-6.49873
-20.5701
-2.21307
16.0688
1.97449
25.575
3.7006
33.8465
2.71408
43.8069
-48.5161
-7.73065
-37.6246
-8.20027
-28.9972
-6.26128
-19.537
-2.14399
15.1838
1.87042
24.2408
3.56382
32.1425
2.72445
41.7084
-45.8691
-7.14087
-35.5561
-7.58463
-27.3671
-5.7371
-18.3517
-1.79489
14.7019
2.09871
23.4034
3.83391
31.0922
3.27784
40.6322
-43.6028
-6.31492
-34.0752
-6.98358
-26.7219
-5.61765
-19.1464
-2.87504
13.7406
-16.6092
-1.44015
10.7012
23.3368
39.8356
66.3804
28831.3
28794.5
28757.6
28720.7
28683.8
28646.8
28609.9
28573.1
28536.4
28499.8
28463.3
28426.9
28390.6
28354.3
28318.1
0.178168
0.139156
0.0889435
0.0332798
-0.0219852
-0.0716967
-0.111907
-0.140082
-0.155066
-0.156883
-0.146483
-0.125473
-0.0959003
-0.0600735
-0.0204487
0.31455
0.244335
0.154292
0.0550475
-0.04277
-0.130001
-0.199833
-0.248084
-0.273037
-0.275022
-0.255908
-0.218627
-0.166776
-0.10434
-0.0354945
0.479552
0.369344
0.228843
0.0753874
-0.0741416
-0.205704
-0.309341
-0.379385
-0.413977
-0.41426
-0.383502
-0.326349
-0.248239
-0.155014
-0.052684
0.689452
0.524645
0.316349
0.091801
-0.12348
-0.309332
-0.452441
-0.546135
-0.589228
-0.584537
-0.537491
-0.455028
-0.344817
-0.214792
-0.0729119
0.966378
0.723435
0.420106
0.0989477
-0.202246
-0.455704
-0.644956
-0.763488
-0.812263
-0.797168
-0.726897
-0.611454
-0.46121
-0.286427
-0.097083
1.34178
0.982612
0.541693
0.0861299
-0.328747
-0.66628
-0.908191
-1.0506
-1.09917
-1.06497
-0.961477
-0.802679
-0.602142
-0.372621
-0.126077
1.86203
1.32354
0.677926
0.0326255
-0.53259
-0.972479
-1.27093
-1.43154
-1.46884
-1.40208
-1.25136
-1.03564
-0.77206
-0.475837
-0.160679
2.59779
1.77158
0.813849
-0.100963
-0.861762
-1.42011
-1.77153
-1.93578
-1.94257
-1.82316
-1.60623
-1.31648
-0.974616
-0.597988
-0.201483
3.6605
2.35114
0.906856
-0.388563
-1.39338
-2.07467
-2.45928
-2.59747
-2.54252
-2.34176
-2.03391
-1.64942
-1.21194
-0.740016
-0.248749
5.2314
3.06561
0.851003
-0.96676
-2.24854
-3.02592
-3.39347
-3.45229
-3.28827
-2.96744
-2.53823
-2.03536
-1.48371
-0.901387
-0.302247
7.6081
3.82892
0.398301
-2.08094
-3.60808
-4.38699
-4.63637
-4.52997
-4.19081
-3.70151
-3.11621
-2.4701
-1.78613
-1.07958
-0.3611
11.2415
4.24364
-1.00577
-4.14723
-5.71586
-6.27758
-6.23507
-5.84041
-5.2435
-4.53157
-3.75499
-2.94268
-2.11114
-1.2697
-0.423674
16.4728
2.90996
-4.51779
-7.78637
-8.83052
-8.77242
-8.1859
-7.35311
-6.4112
-5.42629
-4.42951
-3.4345
-2.44605
-1.46441
-0.487569
20.9245
-4.55881
-12.189
-13.6499
-13.0474
-11.7957
-10.383
-8.97492
-7.6219
-6.33289
-5.10226
-3.91976
-2.77413
-1.65432
-0.549761
0.5635
1.69838
2.85738
4.05833
5.32193
6.67355
8.14575
9.78212
11.6428
13.8123
16.4065
19.5611
23.3042
26.8144
24.324
0.573989
1.7302
2.91166
4.1372
5.429
6.81486
8.33162
10.031
11.9899
14.3304
17.2621
21.1842
26.9783
37.0402
59.7037
0.578762
1.74447
2.93532
4.17004
5.47076
6.86527
8.39069
10.0997
12.072
14.4377
17.428
21.4989
27.6695
38.5672
62.144
0.577845
1.74129
2.9285
4.15704
5.44737
6.82478
8.32228
9.98553
11.8811
14.1117
16.8431
20.3473
25.0287
31.1116
35.8767
0.571539
1.7216
2.89297
4.10111
5.3635
6.70086
8.13879
9.71007
11.4578
13.4386
15.7235
18.3807
21.3951
24.3904
26.0571
0.56038
1.6871
2.8319
4.00748
5.22753
6.50709
7.8627
9.31213
10.8725
12.5547
14.3469
16.1727
17.7905
18.5668
16.9258
0.545078
1.64003
2.74943
3.88294
5.05022
6.26047
7.52144
8.83713
10.2028
11.5945
12.9469
14.1107
14.7792
14.4254
12.6306
0.526438
1.58293
2.65018
3.73492
4.84303
5.9786
7.14216
8.32743
9.5151
10.6615
11.6778
12.3926
12.4802
11.2858
7.09859
0.505281
1.51835
2.53876
3.57064
4.61673
5.67723
6.74778
7.81606
8.85611
9.81897
10.6182
11.1098
11.0722
10.2248
8.51811
0.482375
1.44867
2.41936
3.39645
4.38039
5.36885
6.35491
7.32424
8.25071
9.09012
9.77235
10.1947
10.2268
9.76075
8.87018
0.458392
1.37593
2.29548
3.21748
4.14087
5.06207
5.97361
6.86215
7.70572
8.47041
9.10703
9.55037
9.72758
9.59154
9.2105
0.433882
1.30178
2.16988
3.03753
3.90283
4.76194
5.60823
6.43122
7.21546
7.93959
8.57591
9.09089
9.44584
9.59249
9.44547
0.409273
1.2275
2.04458
2.85918
3.66905
4.47069
5.25898
6.02713
6.76688
7.4697
8.12899
8.74249
9.30871
9.79732
10.064
0.384886
1.154
1.921
2.6841
3.44097
4.18865
4.92368
5.6427
6.34387
7.02996
7.71381
8.42684
9.22539
10.1562
10.948
0.360958
1.08195
1.80012
2.51334
3.21926
3.91538
4.59947
5.2706
5.93129
6.59172
7.2783
8.05173
9.05014
10.6116
13.69
0.337668
1.01188
1.68266
2.34764
3.00434
3.65043
4.28422
4.90574
5.51884
6.13525
6.78241
7.52032
8.4838
10.0135
13.1604
0.315161
0.944175
1.56924
2.18768
2.79677
3.39401
3.97747
4.54668
5.10407
5.6574
6.22345
6.8322
7.52418
8.2923
8.67106
0.29356
0.879211
1.46043
2.03419
2.59744
3.14715
3.68061
4.19582
4.69209
5.17068
5.63479
6.08625
6.51162
6.8414
6.89795
0.27298
0.817325
1.35679
1.88801
2.40749
2.91156
3.39642
3.8581
4.29236
4.69401
5.0549
5.35839
5.56541
5.58021
5.15462
0.253521
0.758827
1.25887
1.74999
2.22824
2.68932
3.12831
3.53942
3.91527
4.24562
4.51483
4.69752
4.75265
4.62481
4.30619
0.235268
0.70398
1.16716
1.6209
2.06093
2.4824
2.87957
3.24522
3.56977
3.83966
4.03486
4.12521
4.06693
3.8019
3.24855
0.218281
0.652976
1.082
1.50132
1.90649
2.29236
2.65271
2.97957
3.26222
3.48558
3.62767
3.65613
3.52477
3.17919
2.63884
0.202589
0.605909
1.00358
1.39158
1.76546
2.12005
2.4491
2.7446
2.99585
3.18794
3.29938
3.29801
3.13138
2.69174
1.63925
0.188188
0.562765
0.931875
1.29164
1.63781
1.96548
2.26879
2.54037
2.77056
2.9463
3.04944
3.05466
2.92759
2.62986
2.18552
0.175038
0.523417
0.866658
1.20115
1.523
1.82782
2.11051
2.36487
2.58309
2.75507
2.86748
2.90319
2.84229
2.6698
2.39597
0.163064
0.487638
0.807513
1.11945
1.42002
1.70554
1.9719
2.21446
2.42774
2.6052
2.7388
2.81879
2.83449
2.78011
2.68131
0.152171
0.455121
0.753883
1.04563
1.3275
1.59655
1.84983
2.08437
2.29727
2.48579
2.64735
2.77903
2.87536
2.92126
2.86928
0.142244
0.425511
0.705123
0.978681
1.24387
1.49852
1.74078
1.96931
2.18372
2.3851
2.57666
2.76382
2.95125
3.13037
3.25346
0.133166
0.398441
0.660566
0.917543
1.16755
1.40909
1.64125
1.86406
2.07923
2.29123
2.50902
2.74841
3.03291
3.3784
3.67198
0.124823
0.373556
0.619586
0.861245
1.09711
1.32619
1.5482
1.76411
1.97695
2.19333
2.42637
2.70167
3.07223
3.66247
4.8245
0.117115
0.350549
0.581639
0.80897
1.03139
1.24819
1.4594
1.6663
1.87219
2.08388
2.31437
2.58877
2.95899
3.54947
4.72909
0.109959
0.32917
0.546303
0.760107
0.969567
1.17406
1.3736
1.56918
1.76342
1.96136
2.17189
2.40932
2.6928
3.02733
3.26543
0.103293
0.309235
0.513278
0.71426
0.911196
1.10338
1.29053
1.47301
1.65206
1.83009
2.01074
2.19789
2.39117
2.57216
2.68578
0.0970734
0.290619
0.482379
0.671224
0.856124
1.03619
1.21071
1.37922
1.54142
1.69701
1.84506
1.9822
2.09806
2.16379
2.09862
0.0912716
0.273243
0.453503
0.630928
0.80441
0.972843
1.13508
1.28981
1.43536
1.56917
1.68697
1.7813
1.83977
1.84631
1.80491
0.085867
0.257054
0.426596
0.593371
0.756203
0.913802
1.06465
1.20678
1.33745
1.45244
1.54517
1.60529
1.61754
1.56212
1.41321
0.0808419
0.242009
0.401611
0.558552
0.71163
0.859451
1.00027
1.13173
1.25041
1.35117
1.42601
1.46254
1.44229
1.34288
1.17446
0.0761757
0.22805
0.378475
0.526415
0.670707
0.809962
0.942391
1.06554
1.17583
1.26791
1.33346
1.3592
1.32203
1.17154
0.743553
0.0718408
0.215098
0.357064
0.49681
0.633284
0.765214
0.89096
1.00827
1.11391
1.20307
1.26856
1.29956
1.28046
1.19292
1.04814
0.0678004
0.203043
0.337196
0.469479
0.599016
0.72476
0.845387
0.959111
1.06342
1.15468
1.2276
1.2747
1.28643
1.25405
1.17688
0.0640088
0.191745
0.318626
0.444055
0.567381
0.687862
0.804609
0.916491
1.022
1.11903
1.20458
1.2744
1.32303
1.34629
1.35551
0.0604131
0.181039
0.301066
0.420093
0.537722
0.653558
0.767209
0.878297
0.986463
1.09135
1.19248
1.28882
1.37725
1.44829
1.47248
0.0569563
0.170751
0.284199
0.397102
0.50931
0.620771
0.73159
0.842135
0.953207
1.06628
1.18372
1.30873
1.44356
1.58282
1.70067
0.0535817
0.160703
0.267713
0.374592
0.481418
0.588432
0.696162
0.805608
0.918567
1.03817
1.16971
1.32182
1.50679
1.73222
1.93584
0.0502363
0.150732
0.251318
0.352122
0.453394
0.555597
0.659543
0.766643
0.879318
1.00176
1.14141
1.31209
1.54192
1.89678
2.56417
0.0468748
0.1407
0.234771
0.329326
0.424727
0.521551
0.620736
0.723807
0.833287
0.953417
1.09157
1.2613
1.49023
1.8443
2.51912
0.043461
0.130496
0.21789
0.305943
0.395071
0.485868
0.57923
0.676522
0.779862
0.89256
1.01979
1.16941
1.35164
1.56908
1.7433
0.0399687
0.120045
0.200549
0.281816
0.364256
0.448406
0.534997
0.625039
0.71994
0.821614
0.932472
1.05486
1.18862
1.32387
1.43188
0.0363804
0.109296
0.182681
0.256875
0.332254
0.409251
0.488368
0.570184
0.655316
0.744292
0.83715
0.93242
1.02456
1.09758
1.10634
0.032685
0.0982201
0.164252
0.231111
0.29913
0.368624
0.439867
0.513027
0.588026
0.664275
0.740157
0.812159
0.873773
0.915926
0.93999
0.028875
0.0868005
0.145247
0.204544
0.264982
0.326783
0.390036
0.454593
0.519871
0.584517
0.64586
0.699115
0.736508
0.746838
0.712431
0.0249432
0.075019
0.125654
0.177185
0.229889
0.283934
0.339302
0.395662
0.452156
0.507054
0.557183
0.597089
0.618039
0.60882
0.573986
0.0208799
0.0628498
0.105438
0.149012
0.193866
0.240169
0.287881
0.336638
0.385553
0.432904
0.475608
0.50823
0.520523
0.488592
0.332071
0.0166709
0.0502519
0.0845373
0.119951
0.156839
0.195425
0.235735
0.277507
0.320039
0.361983
0.401036
0.433491
0.453722
0.454889
0.442671
0.0122959
0.0371652
0.0628541
0.0898664
0.118635
0.149484
0.182577
0.217849
0.254935
0.293073
0.331048
0.367244
0.400162
0.430482
0.467075
0.0077284
0.0235095
0.0402526
0.0585628
0.0789874
0.101987
0.127905
0.156935
0.189101
0.224278
0.262298
0.303276
0.34841
0.401722
0.473072
0.00293585
0.00918603
0.0165634
0.0257918
0.0375523
0.0524652
0.0710747
0.0938442
0.12118
0.153511
0.191496
0.236426
0.290981
0.36044
0.454819
-0.00211942
-0.00591984
-0.00841056
-0.00873668
-0.0060708
0.000377375
0.0113567
0.0275847
0.0497903
0.0788216
0.115873
0.162896
0.223204
0.301856
0.40296
-0.00747899
-0.0219349
-0.0348871
-0.0453421
-0.0523194
-0.0548557
-0.0520046
-0.042824
-0.026337
-0.001435
0.0333283
0.0801416
0.142693
0.227685
0.349597
-0.0131871
-0.0389937
-0.0630973
-0.0843618
-0.101651
-0.113829
-0.11976
-0.118305
-0.108306
-0.0885372
-0.0575815
-0.0135381
0.0466016
0.12788
0.235062
-0.0192893
-0.0572349
-0.0932785
-0.126141
-0.154531
-0.177139
-0.192642
-0.199717
-0.197057
-0.183406
-0.157577
-0.118392
-0.0641654
0.0100905
0.1287
-0.0258309
-0.0767967
-0.125668
-0.171026
-0.211425
-0.24538
-0.271376
-0.287887
-0.293439
-0.286728
-0.266845
-0.233689
-0.188837
-0.138494
-0.109283
-0.0328558
-0.0978127
-0.160496
-0.219355
-0.272793
-0.319148
-0.356695
-0.383667
-0.398335
-0.399194
-0.385327
-0.357104
-0.317318
-0.272399
-0.228162
-0.0404046
-0.120408
-0.197978
-0.271448
-0.339078
-0.399032
-0.449356
-0.487988
-0.51282
-0.521883
-0.513777
-0.488545
-0.449361
-0.405827
-0.382616
-0.0485131
-0.144691
-0.238308
-0.327596
-0.410694
-0.485601
-0.550135
-0.601891
-0.638253
-0.656493
-0.654118
-0.629671
-0.584423
-0.525137
-0.464197
-0.0572104
-0.170753
-0.281643
-0.388041
-0.487995
-0.579374
-0.659786
-0.726484
-0.776267
-0.805418
-0.809784
-0.78524
-0.72923
-0.645593
-0.560009
-0.0665171
-0.198658
-0.328097
-0.452961
-0.571251
-0.680761
-0.778958
-0.862822
-0.928608
-0.971553
-0.985525
-0.962657
-0.893221
-0.767398
-0.592579
-0.0764441
-0.228437
-0.377728
-0.522446
-0.660604
-0.790002
-0.908084
-1.01171
-1.09681
-1.15781
-1.18685
-1.17241
-1.09637
-0.923226
-0.545176
-0.0869924
-0.260094
-0.430533
-0.596487
-0.756039
-0.907099
-1.04725
-1.17347
-1.28174
-1.36625
-1.41836
-1.42495
-1.36694
-1.22135
-0.992427
-0.0981541
-0.293599
-0.486453
-0.674971
-0.857372
-1.03177
-1.19607
-1.3477
-1.48316
-1.59721
-1.68147
-1.72234
-1.69834
-1.57734
-1.3036
-0.109915
-0.328904
-0.545382
-0.757703
-0.964258
-1.16346
-1.3537
-1.53316
-1.69945
-1.84885
-1.97472
-2.06476
-2.09711
-2.03938
-1.87976
-0.122259
-0.365953
-0.607198
-0.844439
-1.07625
-1.30138
-1.51881
-1.72775
-1.92748
-2.11683
-2.29284
-2.44725
-2.55844
-2.57219
-2.34822
-0.135176
-0.404703
-0.671793
-0.934946
-1.19288
-1.44464
-1.68982
-1.92874
-2.1627
-2.39408
-2.62595
-2.85976
-3.08743
-3.27008
-3.31493
-0.148665
-0.445145
-0.739121
-1.02908
-1.31378
-1.59247
-1.86518
-2.13318
-2.39971
-2.67099
-2.95771
-3.27653
-3.64768
-4.06366
-4.27315
-0.162743
-0.487326
-0.809239
-1.12686
-1.43886
-1.74446
-2.0438
-2.33864
-2.63341
-2.93717
-3.26719
-3.65695
-4.17681
-5.00062
-6.6681
-0.17745
-0.531361
-0.882337
-1.22854
-1.56839
-1.90079
-2.22556
-2.54414
-2.86088
-3.1851
-3.53518
-3.94702
-4.49485
-5.35171
-6.99467
-0.192843
-0.577433
-0.958747
-1.33464
-1.7031
-2.06242
-2.41159
-2.75093
-3.08315
-3.41507
-3.76029
-4.14266
-4.59827
-5.15688
-5.68944
-0.208995
-0.62578
-1.03892
-1.4459
-1.84415
-2.2311
-2.60446
-2.96266
-3.30562
-3.63582
-3.95958
-4.28745
-4.63018
-4.98012
-5.26388
-0.225985
-0.676659
-1.12337
-1.56323
-1.99304
-2.40921
-2.80786
-3.18499
-3.53695
-3.86103
-4.15601
-4.4219
-4.65708
-4.84933
-4.95415
-0.243875
-0.73029
-1.21257
-1.68754
-2.1514
-2.5995
-3.02619
-3.42478
-3.78764
-4.10645
-4.37265
-4.57769
-4.71377
-4.77926
-4.8066
-0.262692
-0.78679
-1.30685
-1.81957
-2.3207
-2.80464
-3.26404
-3.6894
-4.06891
-4.38841
-4.63176
-4.78136
-4.8195
-4.73566
-4.5625
-0.282401
-0.846094
-1.40623
-1.95965
-2.50194
-3.02684
-3.52551
-3.98586
-4.39185
-4.72326
-4.95596
-5.06244
-5.00993
-4.75411
-4.29961
-0.302879
-0.907867
-1.51027
-2.10745
-2.69526
-3.26724
-3.81361
-4.32006
-4.76658
-5.12665
-5.36781
-5.45392
-5.34156
-4.91051
-3.45746
-0.323893
-0.971433
-1.61795
-2.26177
-2.89958
-3.52543
-4.12942
-4.69589
-5.20135
-5.61261
-5.88734
-5.98323
-5.89449
-5.77664
-6.40826
-0.345079
-1.03571
-1.72749
-2.42025
-3.11219
-3.7988
-4.47128
-5.11408
-5.70153
-6.19339
-6.53105
-6.64076
-6.46765
-6.12229
-6.44102
-0.365935
-1.09919
-1.83636
-2.57931
-3.3285
-4.082
-4.83375
-5.57071
-6.26808
-6.88126
-7.33307
-7.49469
-7.16041
-6.00678
-3.38393
-0.385833
-1.15994
-1.94122
-2.73403
-3.54182
-4.36641
-5.20648
-6.05484
-6.8931
-7.6812
-8.33661
-8.69298
-8.42218
-6.91156
-3.20533
-0.40404
-1.2157
-2.03808
-2.87834
-3.74348
-4.64007
-5.57345
-6.54598
-7.55294
-8.57329
-9.54781
-10.3268
-10.5449
-9.34107
-4.90481
-0.419764
-1.26401
-2.12253
-3.00537
-3.92329
-4.88817
-5.91325
-7.01321
-8.20349
-9.4972
-10.8948
-12.3501
-13.6552
-14.0153
-10.3358
-0.432215
-1.30239
-2.1901
-3.10803
-4.07049
-5.09447
-6.20104
-7.41772
-8.7822
-10.349
-12.2017
-14.4779
-17.4215
-21.4949
-27.5668
-11.2755
-25.7642
-24.3487
-20.7931
-17.4911
-14.7232
-12.4058
-10.4229
-8.68257
-7.11781
-5.6804
-4.33481
-3.05392
-1.816
-0.602666
-111.082
-57.9105
-37.3685
-27.2229
-21.1752
-17.064
-14.0004
-11.5601
-9.51621
-7.73622
-6.13715
-4.66354
-3.27596
-1.94448
-0.644736
-123.506
-67.3972
-43.1686
-30.807
-23.5145
-18.6773
-15.1623
-12.4221
-10.1666
-8.22897
-6.50677
-4.93254
-3.45905
-2.05093
-0.679671
-67.8414
-54.7449
-40.7277
-30.871
-24.1486
-19.3723
-15.7861
-12.9476
-10.5961
-8.57216
-6.77365
-5.13157
-3.59673
-2.13178
-0.70633
-47.8849
-42.732
-35.3976
-28.7584
-23.4313
-19.241
-15.8905
-13.1348
-10.7981
-8.75883
-6.93188
-5.25613
-3.68588
-2.18519
-0.724109
-30.4025
-32.2341
-29.5845
-25.7347
-21.9246
-18.5263
-15.5821
-13.031
-10.7936
-8.79804
-6.9851
-5.30743
-3.72672
-2.2111
-0.732956
-22.4237
-24.8482
-24.605
-22.6834
-20.1318
-17.4965
-15.0006
-12.7093
-10.6213
-8.71041
-6.94438
-5.2914
-3.72235
-2.21099
-0.733307
-12.4553
-19.3149
-20.791
-20.0698
-18.397
-16.3698
-14.2769
-12.2466
-10.3259
-8.5222
-6.82517
-5.21708
-3.67793
-2.18749
-0.725971
-15.0223
-17.5202
-18.5029
-18.1169
-16.9083
-15.2889
-13.5097
-11.7077
-9.94916
-8.25994
-6.64418
-5.09487
-3.59968
-2.14391
-0.711983
-15.675
-16.7777
-17.1654
-16.7351
-15.705
-14.3188
-12.7584
-11.1387
-9.52431
-7.94667
-6.41705
-4.93509
-3.49405
-2.08378
-0.692463
-16.2888
-16.5318
-16.3959
-15.7699
-14.749
-13.4697
-12.0482
-10.566
-9.07394
-7.60005