/*--------------------------------*- C++ -*----------------------------------*\
| =========                 |                                                 |
| \\      /  F ield         | OpenFOAM: The Open Source CFD Toolbox           |
|  \\    /   O peration     | Version:  5.x                                   |
|   \\  /    A nd           | Web:      www.OpenFOAM.org                      |
|    \\/     M anipulation  |                                                 |
\*---------------------------------------------------------------------------*/
FoamFile
{
    version     2.0;
    format      ascii;
    class       volScalarField;
    location    "7.1";
    object      gradTy;
}
// * * * * * * * * * * * * * * * * * * * * * * * * * * * * * * * * * * * * * //

dimensions      [0 -1 0 1 0 0 0];

internalField   nonuniform List<scalar> 
2048
(
-26.4235
-26.3959
-26.3416
-26.2619
-26.1591
-26.0357
-25.8944
-25.7382
-25.5696
-25.3914
-25.2059
-25.0153
-24.8215
-24.6261
-24.4308
-24.2367
-24.0451
-23.8568
-23.6726
-23.4931
-23.3187
-23.1498
-22.9866
-22.8294
-22.6783
-22.5337
-22.3959
-22.265
-22.1417
-22.0262
-21.9192
-21.8213
-21.7333
-21.656
-21.5903
-21.5372
-21.4979
-21.4735
-21.4653
-21.4744
-21.5022
-21.55
-21.6189
-21.71
-21.8244
-21.9628
-22.1256
-22.3128
-22.5236
-22.7566
-23.0096
-23.2793
-23.5613
-23.8504
-24.1406
-24.4252
-24.6976
-24.9511
-25.1795
-25.3777
-25.5412
-25.6666
-25.7515
-25.7943
-26.4459
-26.4176
-26.362
-26.2806
-26.1758
-26.0502
-25.9066
-25.7481
-25.5774
-25.3973
-25.2101
-25.0179
-24.8227
-24.6261
-24.4297
-24.2348
-24.0424
-23.8535
-23.6688
-23.489
-23.3143
-23.1452
-22.9818
-22.8244
-22.6731
-22.5283
-22.3902
-22.259
-22.1353
-22.0194
-21.9119
-21.8134
-21.7247
-21.6466
-21.58
-21.5261
-21.4858
-21.4605
-21.4512
-21.4593
-21.4861
-21.5329
-21.6008
-21.6912
-21.805
-21.9431
-22.106
-22.2936
-22.5056
-22.7405
-22.9961
-23.2693
-23.5555
-23.8495
-24.145
-24.4352
-24.7129
-24.9713
-25.2041
-25.4058
-25.572
-25.6994
-25.7855
-25.829
-26.4886
-26.4591
-26.401
-26.3163
-26.2075
-26.0775
-25.9296
-25.7668
-25.5921
-25.4083
-25.2178
-25.0227
-24.8249
-24.626
-24.4276
-24.231
-24.0372
-23.8471
-23.6616
-23.4811
-23.3059
-23.1364
-22.9726
-22.8149
-22.6633
-22.518
-22.3794
-22.2477
-22.1232
-22.0065
-21.898
-21.7984
-21.7084
-21.6288
-21.5607
-21.505
-21.463
-21.4358
-21.4246
-21.4308
-21.4556
-21.5004
-21.5666
-21.6555
-21.7681
-21.9055
-22.0683
-22.257
-22.471
-22.7094
-22.97
-23.2498
-23.5442
-23.8476
-24.1534
-24.4541
-24.7421
-25.01
-25.251
-25.4595
-25.6309
-25.7619
-25.8504
-25.8949
-26.5498
-26.5184
-26.4568
-26.3671
-26.2524
-26.1161
-25.9618
-25.7928
-25.6125
-25.4235
-25.2284
-25.0291
-24.8277
-24.6256
-24.4244
-24.2253
-24.0296
-23.838
-23.6512
-23.4698
-23.294
-23.1239
-22.9598
-22.8016
-22.6495
-22.5037
-22.3643
-22.2318
-22.1063
-21.9884
-21.8786
-21.7773
-21.6855
-21.6039
-21.5336
-21.4755
-21.4309
-21.4011
-21.3871
-21.3905
-21.4126
-21.4547
-21.5183
-21.6048
-21.7156
-21.8519
-22.0146
-22.2043
-22.4211
-22.6643
-22.9319
-23.221
-23.5271
-23.8441
-24.1648
-24.481
-24.784
-25.0656
-25.3184
-25.5364
-25.715
-25.8512
-25.9428
-25.9889
-26.6282
-26.5943
-26.5278
-26.4316
-26.3091
-26.1645
-26.0018
-25.825
-25.6374
-25.442
-25.2411
-25.0367
-24.8307
-24.6247
-24.4199
-24.2179
-24.0197
-23.8261
-23.6379
-23.4554
-23.2789
-23.1083
-22.9437
-22.785
-22.6323
-22.4858
-22.3456
-22.212
-22.0854
-21.9661
-21.8545
-21.7513
-21.6572
-21.573
-21.4998
-21.4388
-21.391
-21.3577
-21.3404
-21.3402
-21.3587
-21.3973
-21.4575
-21.541
-21.6493
-21.7839
-21.9461
-22.1369
-22.3568
-22.6056
-22.8819
-23.1828
-23.5038
-23.8385
-24.1787
-24.515
-24.8376
-25.137
-25.4049
-25.6349
-25.8224
-25.9646
-26.06
-26.1078
-26.7228
-26.6856
-26.613
-26.5083
-26.3761
-26.2212
-26.0484
-25.862
-25.6659
-25.4628
-25.2552
-25.045
-24.8337
-24.623
-24.4142
-24.2086
-24.0075
-23.8117
-23.6219
-23.4383
-23.261
-23.0899
-22.9248
-22.7656
-22.6123
-22.465
-22.3239
-22.1892
-22.0612
-21.9402
-21.8266
-21.7211
-21.6243
-21.5371
-21.4606
-21.3959
-21.3443
-21.3071
-21.2857
-21.2813
-21.2955
-21.3299
-21.386
-21.4657
-21.5707
-21.7029
-21.864
-22.0555
-22.2786
-22.5337
-22.8199
-23.1347
-23.4737
-23.8299
-24.1941
-24.5555
-24.9023
-25.2234
-25.5095
-25.7536
-25.9513
-26.1003
-26.1996
-26.2493
-26.833
-26.7917
-26.7114
-26.5964
-26.4522
-26.2848
-26.1
-25.9026
-25.6967
-25.4851
-25.2701
-25.0534
-24.8363
-24.6203
-24.4069
-24.1974
-23.9931
-23.7948
-23.6033
-23.4186
-23.2407
-23.0691
-22.9037
-22.744
-22.5901
-22.4419
-22.2997
-22.1638
-22.0343
-21.9115
-21.7958
-21.6876
-21.5878
-21.4971
-21.4168
-21.348
-21.2921
-21.2504
-21.2243
-21.2151
-21.2245
-21.2539
-21.3052
-21.3802
-21.4812
-21.6101
-21.7694
-21.9611
-22.187
-22.4485
-22.7454
-23.076
-23.4358
-23.8175
-24.2105
-24.6019
-24.9776
-25.3245
-25.6317
-25.8916
-26.1003
-26.2562
-26.3594
-26.4108
-26.9583
-26.9119
-26.8222
-26.6946
-26.5362
-26.3542
-26.1555
-25.9456
-25.7289
-25.5082
-25.2853
-25.0616
-24.8383
-24.6166
-24.3981
-24.1842
-23.9763
-23.7754
-23.5821
-23.3965
-23.2181
-23.0464
-22.8806
-22.7206
-22.5659
-22.4169
-22.2736
-22.1363
-22.0053
-21.8806
-21.7626
-21.6516
-21.5484
-21.4539
-21.3693
-21.296
-21.2353
-21.1886
-21.1574
-21.1429
-21.1468
-21.1706
-21.2163
-21.286
-21.382
-21.5068
-21.6633
-21.8542
-22.0823
-22.3498
-22.658
-23.0057
-23.3891
-23.8002
-24.2269
-24.6538
-25.0637
-25.4404
-25.7713
-26.0484
-26.2682
-26.4307
-26.5373
-26.5901
-27.0985
-27.046
-26.9449
-26.8023
-26.6269
-26.4279
-26.2134
-25.9899
-25.7615
-25.5312
-25.3001
-25.0693
-24.8394
-24.6117
-24.3876
-24.1689
-23.9571
-23.7535
-23.5586
-23.3722
-23.1936
-23.0219
-22.8561
-22.6957
-22.5404
-22.3904
-22.2459
-22.1073
-21.9747
-21.8482
-21.7277
-21.6137
-21.5068
-21.4081
-21.3189
-21.2406
-21.1747
-21.1227
-21.086
-21.0658
-21.0637
-21.0813
-21.1208
-21.1842
-21.2744
-21.394
-21.5466
-21.7355
-21.9647
-22.2376
-22.5569
-22.9229
-23.3322
-23.7768
-24.2426
-24.711
-25.1606
-25.5715
-25.9286
-26.2236
-26.4542
-26.6223
-26.7313
-26.7849
-27.2538
-27.1939
-27.079
-26.9184
-26.7232
-26.5047
-26.2726
-26.0341
-25.7936
-25.5534
-25.3143
-25.0762
-24.8396
-24.6055
-24.3754
-24.1514
-23.9355
-23.7291
-23.5326
-23.3457
-23.1674
-22.9961
-22.8305
-22.6699
-22.5139
-22.3628
-22.2171
-22.0772
-21.9431
-21.8146
-21.6917
-21.5746
-21.4638
-21.3605
-21.2662
-21.1826
-21.1112
-21.0536
-21.0109
-20.9847
-20.9762
-20.9872
-21.0197
-21.0762
-21.1595
-21.2729
-21.4202
-21.6058
-21.8346
-22.1116
-22.4414
-22.8261
-23.2637
-23.7458
-24.2566
-24.7732
-25.2689
-25.7185
-26.104
-26.4171
-26.6573
-26.8293
-26.9393
-26.9928
-27.4245
-27.3555
-27.2242
-27.0423
-26.8239
-26.5832
-26.3316
-26.0771
-25.8242
-25.5744
-25.3274
-25.0823
-24.8389
-24.5981
-24.3615
-24.1318
-23.9114
-23.702
-23.5042
-23.3173
-23.1397
-22.9693
-22.8042
-22.6434
-22.4867
-22.3344
-22.1874
-22.0462
-21.9107
-21.7805
-21.6552
-21.5348
-21.4198
-21.3116
-21.2119
-21.1226
-21.0454
-20.9818
-20.9332
-20.9005
-20.8853
-20.8891
-20.9141
-20.9629
-21.0385
-21.1445
-21.2852
-21.4658
-21.6923
-21.9717
-22.3107
-22.7141
-23.1818
-23.7057
-24.2679
-24.8405
-25.3894
-25.8826
-26.2986
-26.6291
-26.8768
-27.0502
-27.1591
-27.2114
-27.611
-27.5312
-27.3801
-27.173
-26.9279
-26.662
-26.389
-26.1177
-25.8524
-25.5935
-25.3393
-25.0876
-24.8374
-24.5895
-24.3459
-24.1099
-23.8846
-23.6722
-23.4733
-23.287
-23.1108
-22.9418
-22.7776
-22.6168
-22.4592
-22.3055
-22.1571
-22.0146
-21.8779
-21.7463
-21.6186
-21.4949
-21.3755
-21.262
-21.1565
-21.0611
-20.9779
-20.9082
-20.8533
-20.8142
-20.792
-20.7882
-20.8051
-20.8454
-20.9125
-21.01
-21.1427
-21.3164
-21.5384
-21.8177
-22.164
-22.5853
-23.0845
-23.6544
-24.2752
-24.9128
-25.5234
-26.0657
-26.5134
-26.8597
-27.1117
-27.2832
-27.3885
-27.4383
-27.814
-27.7211
-27.5466
-27.3098
-27.0336
-26.7396
-26.4434
-26.1547
-25.8774
-25.6104
-25.3499
-25.0921
-24.8353
-24.58
-24.3287
-24.0855
-23.855
-23.6396
-23.44
-23.2549
-23.0809
-22.9141
-22.751
-22.5902
-22.4316
-22.2763
-22.1262
-21.9826
-21.8451
-21.7122
-21.5825
-21.4553
-21.3313
-21.2122
-21.1003
-20.9986
-20.9091
-20.8332
-20.7721
-20.7264
-20.697
-20.6853
-20.6936
-20.7249
-20.7826
-20.8706
-20.9937
-21.1585
-21.3735
-21.6498
-22.0005
-22.4382
-22.9696
-23.5898
-24.277
-24.9903
-25.6727
-26.2698
-26.7502
-27.1093
-27.3612
-27.5266
-27.625
-27.6706
-28.0343
-27.9257
-27.7234
-27.4517
-27.1399
-26.8145
-26.4934
-26.1869
-25.8984
-25.6247
-25.3592
-25.0961
-24.8329
-24.5698
-24.3098
-24.0588
-23.8224
-23.6039
-23.404
-23.221
-23.0503
-22.8865
-22.7251
-22.5643
-22.4043
-22.2469
-22.0948
-21.9502
-21.8123
-21.6788
-21.5471
-21.4166
-21.2877
-21.1624
-21.0438
-20.9354
-20.8394
-20.7574
-20.6901
-20.6378
-20.6011
-20.5812
-20.5805
-20.6022
-20.6498
-20.7272
-20.8394
-20.9934
-21.1985
-21.4682
-21.8197
-22.2711
-22.8348
-23.509
-24.2715
-25.0731
-25.8394
-26.498
-27.0107
-27.3783
-27.6243
-27.7783
-27.8662
-27.9057
-28.2729
-28.1457
-27.9103
-27.5977
-27.2451
-26.885
-26.5374
-26.213
-25.9147
-25.6362
-25.3675
-25.1001
-24.8305
-24.5592
-24.2895
-24.0294
-23.7867
-23.565
-23.3653
-23.1854
-23.0193
-22.8594
-22.7
-22.5392
-22.3776
-22.2173
-22.0629
-21.9175
-21.7799
-21.6463
-21.5131
-21.3791
-21.2451
-21.113
-20.9871
-20.8717
-20.7692
-20.681
-20.6077
-20.5491
-20.5051
-20.4767
-20.4665
-20.4781
-20.5151
-20.5812
-20.6811
-20.8222
-21.0145
-21.2734
-21.621
-22.0824
-22.6774
-23.4092
-24.2562
-25.1614
-26.0266
-26.7537
-27.2973
-27.667
-27.8997
-28.0362
-28.1094
-28.1408
-28.5311
-28.3815
-28.1073
-27.7468
-27.3475
-26.9496
-26.574
-26.232
-25.9256
-25.6449
-25.3752
-25.1043
-24.8286
-24.5487
-24.2679
-23.9971
-23.7475
-23.5226
-23.3235
-23.1481
-22.9881
-22.8334
-22.6764
-22.5154
-22.3517
-22.1877
-22.0303
-21.8844
-21.7479
-21.6152
-21.4806
-21.3432
-21.2038
-21.0643
-20.9304
-20.8077
-20.6987
-20.6045
-20.5255
-20.4608
-20.4096
-20.3724
-20.3523
-20.3534
-20.3794
-20.4335
-20.52
-20.6464
-20.8228
-21.0661
-21.4041
-21.8704
-22.4947
-23.2865
-24.228
-25.2552
-26.2381
-27.0414
-27.6124
-27.9754
-28.1857
-28.2977
-28.3518
-28.373
-28.8104
-28.6339
-28.3144
-27.8979
-27.4452
-27.0065
-26.6019
-26.2424
-25.9305
-25.6509
-25.3828
-25.1093
-24.8276
-24.5388
-24.245
-23.9617
-23.7047
-23.4766
-23.2785
-23.1091
-22.9571
-22.8091
-22.6547
-22.4932
-22.3269
-22.158
-21.9966
-21.8507
-21.7166
-21.5857
-21.4502
-21.3094
-21.1644
-21.0165
-20.8737
-20.7437
-20.6281
-20.528
-20.4438
-20.3735
-20.3152
-20.2691
-20.2386
-20.2287
-20.2435
-20.2852
-20.3573
-20.4674
-20.6251
-20.8474
-21.1689
-21.6337
-22.2839
-23.137
-24.1826
-25.3545
-26.479
-27.3665
-27.9586
-28.3032
-28.4805
-28.5604
-28.5909
-28.5998
-29.1122
-28.9034
-28.5315
-28.0494
-27.5359
-27.0542
-26.6196
-26.2429
-25.9289
-25.6543
-25.3912
-25.1158
-24.8281
-24.5304
-24.2211
-23.9227
-23.6581
-23.4266
-23.2298
-23.0684
-22.9267
-22.7871
-22.6352
-22.473
-22.3037
-22.1281
-21.9613
-21.8161
-21.686
-21.5585
-21.4222
-21.2778
-21.1272
-20.9699
-20.817
-20.6795
-20.5575
-20.4516
-20.3629
-20.2876
-20.2225
-20.1671
-20.1258
-20.1046
-20.1082
-20.1375
-20.1941
-20.2868
-20.4231
-20.6187
-20.9158
-21.3707
-22.0423
-22.9561
-24.1144
-25.4588
-26.7559
-27.7356
-28.3385
-28.6498
-28.7817
-28.8215
-28.8237
-28.8185
-29.4384
-29.1906
-28.7591
-28.2001
-27.617
-27.0914
-26.6261
-26.2322
-25.9202
-25.6555
-25.4013
-25.1242
-24.8304
-24.5244
-24.1962
-23.8793
-23.6076
-23.3726
-23.1768
-23.0259
-22.8973
-22.7682
-22.6186
-22.4548
-22.2827
-22.098
-21.9237
-21.7804
-21.6562
-21.534
-21.3969
-21.2488
-21.0928
-20.9245
-20.7599
-20.6154
-20.4871
-20.3755
-20.2832
-20.2036
-20.1322
-20.067
-20.0142
-19.9815
-19.9743
-19.9912
-20.0316
-20.1063
-20.2193
-20.3816
-20.6452
-21.0802
-21.7675
-22.7391
-24.0158
-25.5672
-27.0779
-28.1563
-28.7543
-29.0136
-29.0865
-29.0779
-29.0479
-29.0267
-29.7912
-29.4956
-28.9977
-28.3482
-27.685
-27.1171
-26.6206
-26.2085
-25.9042
-25.6548
-25.4148
-25.1349
-24.8346
-24.5223
-24.1705
-23.8303
-23.5532
-23.3144
-23.1188
-22.9815
-22.8692
-22.7536
-22.6049
-22.4389
-22.2646
-22.0675
-21.8826
-21.743
-21.6274
-21.5131
-21.3745
-21.2223
-21.062
-20.8804
-20.7021
-20.5513
-20.417
-20.2996
-20.2048
-20.1218
-20.0447
-19.9693
-19.9041
-19.8596
-19.8421
-19.8474
-19.8705
-19.9272
-20.0161
-20.138
-20.3581
-20.7607
-21.4579
-22.4813
-23.8764
-25.6776
-27.4568
-28.6377
-29.2079
-29.3923
-29.3914
-29.3268
-29.2608
-29.2223
-30.1732
-29.8179
-29.2487
-28.492
-27.7359
-27.1308
-26.6026
-26.1696
-25.8805
-25.6528
-25.4336
-25.1483
-24.8404
-24.5262
-24.1442
-23.7741
-23.4953
-23.2523
-23.0546
-22.9354
-22.8428
-22.7445
-22.5945
-22.4249
-22.2507
-22.0364
-21.8365
-21.7037
-21.5997
-21.4967
-21.3551
-21.1981
-21.0356
-20.8378
-20.6427
-20.4876
-20.3473
-20.2236
-20.128
-20.0428
-19.9608
-19.8743
-19.7958
-19.7389
-19.7123
-19.7071
-19.7114
-19.7511
-19.8168
-19.8903
-20.056
-20.4108
-21.1126
-22.1788
-23.6822
-25.7865
-27.9091
-29.19
-29.6999
-29.7826
-29.6928
-29.565
-29.4603
-29.4037
-30.5874
-30.1556
-29.5146
-28.6295
-27.7638
-27.1333
-26.5722
-26.1126
-25.8493
-25.6497
-25.4607
-25.1643
-24.8469
-24.5391
-24.1174
-23.7077
-23.4351
-23.1866
-22.9824
-22.8875
-22.8183
-22.7429
-22.5872
-22.4122
-22.2429
-22.0047
-21.7833
-21.6621
-21.5731
-21.4864
-21.3387
-21.1759
-21.0153
-20.7966
-20.5804
-20.4246
-20.2784
-20.1471
-20.0531
-19.9668
-19.8811
-19.7823
-19.6892
-19.6193
-19.5852
-19.5717
-19.5543
-19.579
-19.625
-19.6406
-19.7409
-20.0283
-20.7321
-21.8291
-23.4141
-25.8883
-28.4571
-29.8243
-30.2293
-30.1797
-29.9863
-29.7897
-29.6445
-29.5693
-31.038
-30.505
-29.7996
-28.7585
-27.7611
-27.1268
-26.5303
-26.0334
-25.8115
-25.6453
-25.5
-25.1822
-24.8519
-24.5658
-24.0902
-23.6271
-23.3744
-23.1182
-22.8996
-22.8386
-22.7957
-22.7515
-22.5827
-22.3994
-22.2441
-21.9723
-21.7198
-21.6183
-21.5473
-21.4841
-21.325
-21.1543
-21.0031
-20.7569
-20.5132
-20.3632
-20.2107
-20.0692
-19.9805
-19.894
-19.8066
-19.6936
-19.5843
-19.5005
-19.461
-19.4426
-19.3987
-19.4118
-19.4454
-19.391
-19.4159
-19.61
-20.3186
-21.4331
-23.0461
-25.974
-29.1321
-30.5521
-30.7931
-30.5777
-30.2675
-29.9982
-29.8119
-29.7182
-31.5302
-30.8593
-30.1107
-28.8769
-27.7168
-27.1162
-26.4787
-25.9261
-25.7688
-25.6388
-25.5573
-25.2008
-24.8517
-24.6131
-24.0627
-23.5259
-23.3166
-23.0483
-22.8024
-22.7896
-22.7743
-22.774
-22.5801
-22.3839
-22.2586
-21.9391
-21.6418
-21.5729
-21.5219
-21.4929
-21.3133
-21.1315
-21.0024
-20.7187
-20.4382
-20.3047
-20.1445
-19.9887
-19.9108
-19.8245
-19.7382
-19.6083
-19.4811
-19.3817
-19.3398
-19.3221
-19.2434
-19.2494
-19.2835
-19.1432
-19.0855
-19.1508
-19.8761
-20.9967
-22.5433
-26.0296
-29.977
-31.3838
-31.3851
-30.9694
-30.5317
-30.188
-29.9612
-29.8497
-32.0715
-31.2066
-30.459
-28.9823
-27.6158
-27.1096
-26.4202
-25.782
-25.725
-25.6275
-25.641
-25.2178
-24.84
-24.6909
-24.0351
-23.3948
-23.2675
-22.9791
-22.685
-22.743
-22.7524
-22.8158
-22.5779
-22.3618
-22.2927
-21.905
-21.5433
-21.5275
-21.4953
-21.5171
-21.3023
-21.1042
-21.0178
-20.6818
-20.3512
-20.2514
-20.0808
-19.9035
-19.8449
-19.7579
-19.6774
-19.5265
-19.3794
-19.262
-19.2214
-19.2131
-19.086
-19.0913
-19.1469
-18.8975
-18.7563
-18.6422
-19.4111
-20.5339
-21.859
-26.0348
-31.0516
-32.3275
-31.9954
-31.3466
-30.7746
-30.3573
-30.0919
-29.9638
-32.6723
-31.5279
-30.8621
-29.0726
-27.4367
-27.1207
-26.3593
-25.5884
-25.6868
-25.6062
-25.7628
-25.2298
-24.807
-24.8138
-24.0071
-23.2202
-23.2357
-22.9135
-22.539
-22.7031
-22.7262
-22.8847
-22.5738
-22.3265
-22.3559
-21.8699
-21.4159
-21.4856
-21.4647
-21.563
-21.2902
-21.0674
-21.0566
-20.646
-20.2458
-20.2072
-20.0205
-19.8106
-19.7846
-19.6937
-19.626
-19.4478
-19.2793
-19.1402
-19.105
-19.1203
-18.9228
-18.9352
-19.0455
-18.6521
-18.4386
-18.0709
-18.932
-20.0711
-20.931
-25.9593
-32.4382
-33.385
-32.6101
-31.7
-30.992
-30.5045
-30.2036
-30.0605
-33.3475
-31.7938
-31.346
-29.1455
-27.1497
-27.17
-26.3017
-25.327
-25.6657
-25.5651
-25.9396
-25.2317
-24.7379
-25.0026
-23.9786
-22.983
-23.2349
-22.8552
-22.3521
-22.6771
-22.6895
-22.9917
-22.5643
-22.2687
-22.4614
-21.8335
-21.2482
-21.4534
-21.4252
-21.6394
-21.2744
-21.0137
-21.1286
-20.6108
-20.1133
-20.1779
-19.9649
-19.7057
-19.7326
-19.6303
-19.5864
-19.3718
-19.1809
-19.0146
-18.9892
-19.0501
-18.7484
-18.7773
-18.9926
-18.4016
-18.1479
-17.4167
-18.449
-19.652
-19.6778
-25.7601
-34.2495
-34.5486
-33.2102
-32.0203
-31.1805
-30.6287
-30.2965
-30.1403
-34.1181
-31.9599
-31.9492
-29.1987
-26.7136
-27.288
-26.255
-24.9718
-25.6805
-25.4878
-26.1955
-25.2164
-24.6112
-25.2864
-23.9491
-22.6562
-23.2845
-22.8093
-22.1071
-22.6772
-22.6314
-23.1526
-22.5447
-22.1744
-22.6281
-21.7952
-21.0245
-21.4413
-21.3681
-21.759
-21.2509
-20.9324
-21.2481
-20.5756
-19.9415
-20.172
-19.9153
-19.5824
-19.6931
-19.565
-19.5623
-19.2972
-19.0848
-18.8832
-18.8716
-19.012
-18.555
-18.6115
-19.0066
-18.1352
-17.9079
-16.6494
-17.9731
-19.3444
-17.9932
-25.377
-36.6386
-35.7942
-33.7726
-32.2986
-31.3375
-30.7299
-30.371
-30.204
-35.0135
-31.962
-32.7267
-29.23
-26.0723
-27.5183
-26.2286
-24.4859
-25.7603
-25.3482
-26.5638
-25.1744
-24.3963
-25.7053
-23.9177
-22.2028
-23.4126
-22.782
-21.7795
-22.7223
-22.5344
-23.3892
-22.5086
-22.0238
-22.8818
-21.7541
-20.7235
-21.4654
-21.2796
-21.9392
-21.2146
-20.8081
-21.4349
-20.5391
-19.7139
-20.202
-19.8735
-19.432
-19.6728
-19.4933
-19.5584
-19.222
-18.9921
-18.7435
-18.748
-19.0192
-18.3325
-18.4282
-19.1127
-17.8334
-17.7534
-15.7263
-17.5143
-19.2484
-15.741
-24.7266
-39.8114
-37.0735
-34.2707
-32.527
-31.4615
-30.8082
-30.4281
-30.2525
-36.0746
-31.7088
-33.7559
-29.2372
-25.1502
-27.9217
-26.2336
-23.819
-25.9493
-25.1059
-27.0905
-25.0933
-24.0511
-26.3134
-23.8827
-21.5731
-23.6583
-22.7808
-21.3359
-22.8409
-22.3721
-23.7318
-22.4476
-21.7899
-23.2574
-21.7082
-20.3168
-21.5504
-21.1386
-22.2044
-21.1587
-20.6201
-21.7155
-20.4995
-19.4082
-20.2854
-19.8411
-19.2424
-19.6814
-19.4085
-19.5815
-19.1429
-18.9046
-18.5929
-18.612
-19.0903
-18.0671
-18.2134
-19.3458
-17.4646
-17.7358
-14.5875
-17.079
-19.5067
-12.7484
-23.6959
-44.0413
-38.3036
-34.6761
-32.6998
-31.5524
-30.8646
-30.4689
-30.287
-37.3573
-31.0742
-35.1425
-29.2174
-23.8476
-28.5804
-26.283
-22.9024
-26.3118
-24.7012
-27.8384
-24.9571
-23.5184
-27.1828
-23.8418
-20.7013
-24.0747
-22.8145
-20.7308
-23.0752
-22.1051
-24.2215
-22.3509
-21.436
-23.8016
-21.6548
-19.7668
-21.7324
-20.9134
-22.5875
-21.0741
-20.3403
-22.1256
-20.454
-18.995
-20.446
-19.8196
-18.9975
-19.7332
-19.3001
-19.6411
-19.055
-18.8253
-18.4285
-18.4538
-19.2503
-17.7416
-17.9477
-19.7534
-16.9803
-17.9279
-13.1525
-16.6668
-20.3155
-8.79938
-22.1341
-49.6869
-39.3532
-34.9624
-32.8138
-31.6108
-30.9004
-30.4947
-30.3088
-38.9366
-29.8875
-37.0289
-29.1673
-22.0353
-29.6044
-26.391
-21.6453
-26.9395
-24.0488
-28.8912
-24.7461
-22.723
-28.407
-23.7916
-19.5024
-24.7327
-22.893
-19.9036
-23.4844
-21.6768
-24.9132
-22.2048
-20.9138
-24.5754
-21.5892
-19.0244
-22.062
-20.5582
-23.1323
-20.9494
-19.9314
-22.7117
-20.3986
-18.4367
-20.716
-19.8101
-18.676
-19.8484
-19.1533
-19.7504
-18.9512
-18.7589
-18.2476
-18.2595
-19.5327
-17.3343
-17.6042
-20.4002
-16.3095
-18.4323
-11.3154
-16.2656
-21.9382
-3.62725
-19.8434
-57.2122
-40.0268
-35.1103
-32.8697
-31.639
-30.9176
-30.507
-30.3193
)
;

boundaryField
{
    left
    {
        type            calculated;
        value           nonuniform List<scalar> 
32
(
-26.4235
-26.4459
-26.4886
-26.5498
-26.6282
-26.7228
-26.833
-26.9583
-27.0985
-27.2538
-27.4245
-27.611
-27.814
-28.0343
-28.2729
-28.5311
-28.8104
-29.1122
-29.4384
-29.7912
-30.1732
-30.5874
-31.038
-31.5302
-32.0715
-32.6723
-33.3475
-34.1181
-35.0135
-36.0746
-37.3573
-38.9366
)
;
    }
    right
    {
        type            calculated;
        value           nonuniform List<scalar> 
32
(
-25.7943
-25.829
-25.8949
-25.9889
-26.1078
-26.2493
-26.4108
-26.5901
-26.7849
-26.9928
-27.2114
-27.4383
-27.6706
-27.9057
-28.1408
-28.373
-28.5998
-28.8185
-29.0267
-29.2223
-29.4037
-29.5693
-29.7182
-29.8497
-29.9638
-30.0605
-30.1403
-30.204
-30.2525
-30.287
-30.3088
-30.3193
)
;
    }
    interface
    {
        type            calculated;
        value           nonuniform List<scalar> 
64
(
-39.8112
-29.1317
-38.1173
-29.1341
-20.9834
-30.2234
-26.4617
-20.9187
-27.3331
-23.6481
-29.5059
-24.6191
-22.2489
-29.1211
-23.7636
-18.8091
-25.1322
-22.9447
-19.4257
-23.7414
-21.414
-25.3173
-22.1175
-20.6038
-25.0283
-21.5526
-18.5981
-22.2709
-20.3413
-23.4512
-20.8755
-19.6896
-23.0554
-20.3679
-18.1159
-20.883
-19.8084
-18.4932
-19.9248
-19.0682
-19.8193
-18.8943
-18.7297
-18.1528
-18.1512
-19.7093
-17.1071
-17.4091
-20.7927
-15.9169
-18.7774
-10.2813
-16.0654
-22.9905
-0.698714
-18.4878
-61.5101
-40.2407
-35.1477
-32.8834
-31.6459
-30.9218
-30.5101
-30.3219
)
;
    }
    bottom
    {
        type            calculated;
        value           nonuniform List<scalar> 
64
(
-26.4177
-26.3903
-26.3362
-26.257
-26.1548
-26.0319
-25.8913
-25.7356
-25.5676
-25.3899
-25.2048
-25.0146
-24.8211
-24.6261
-24.431
-24.2372
-24.0458
-23.8577
-23.6736
-23.4942
-23.3199
-23.151
-22.9879
-22.8307
-22.6797
-22.5352
-22.3974
-22.2666
-22.1434
-22.028
-21.9212
-21.8234
-21.7356
-21.6584
-21.5929
-21.5401
-21.5011
-21.4769
-21.469
-21.4784
-21.5065
-21.5544
-21.6236
-21.7149
-21.8295
-21.968
-22.1308
-22.3177
-22.5282
-22.7608
-23.0131
-23.2818
-23.5627
-23.8506
-24.1394
-24.4226
-24.6936
-24.9458
-25.1732
-25.3704
-25.5332
-25.6581
-25.7426
-25.7853
)
;
    }
    defaultFaces
    {
        type            empty;
    }
}


// ************************************************************************* //
