/*--------------------------------*- C++ -*----------------------------------*\
| =========                 |                                                 |
| \\      /  F ield         | OpenFOAM: The Open Source CFD Toolbox           |
|  \\    /   O peration     | Version:  5.x                                   |
|   \\  /    A nd           | Web:      www.OpenFOAM.org                      |
|    \\/     M anipulation  |                                                 |
\*---------------------------------------------------------------------------*/
FoamFile
{
    version     2.0;
    format      ascii;
    class       volScalarField;
    location    "7.1";
    object      T;
}
// * * * * * * * * * * * * * * * * * * * * * * * * * * * * * * * * * * * * * //

dimensions      [0 0 0 1 0 0 0];

internalField   nonuniform List<scalar> 
2048
(
9.81021
9.8104
9.81079
9.81136
9.8121
9.81298
9.81399
9.81511
9.81632
9.81759
9.81892
9.82029
9.82168
9.82308
9.82448
9.82587
9.82725
9.8286
9.82992
9.83121
9.83246
9.83368
9.83485
9.83598
9.83706
9.8381
9.83909
9.84003
9.84092
9.84174
9.84251
9.84321
9.84385
9.8444
9.84487
9.84525
9.84553
9.8457
9.84576
9.84569
9.84549
9.84515
9.84465
9.84399
9.84317
9.84218
9.84101
9.83966
9.83815
9.83648
9.83467
9.83274
9.83072
9.82865
9.82658
9.82454
9.82259
9.82078
9.81915
9.81773
9.81656
9.81567
9.81506
9.81475
9.43876
9.43935
9.44051
9.4422
9.44439
9.44701
9.45002
9.45334
9.45692
9.46071
9.46465
9.46871
9.47282
9.47698
9.48113
9.48525
9.48932
9.49332
9.49723
9.50105
9.50475
9.50834
9.51181
9.51514
9.51835
9.52142
9.52435
9.52713
9.52975
9.53221
9.53448
9.53656
9.53843
9.54007
9.54147
9.5426
9.54344
9.54396
9.54413
9.54394
9.54335
9.54234
9.54088
9.53894
9.53651
9.53358
9.53012
9.52614
9.52166
9.51671
9.51133
9.5056
9.4996
9.49345
9.48728
9.48122
9.47543
9.47004
9.46518
9.46096
9.45749
9.45482
9.45301
9.4521
9.08311
9.08409
9.086
9.08881
9.09243
9.09676
9.10172
9.10719
9.11309
9.11932
9.1258
9.13245
9.1392
9.14601
9.15281
9.15956
9.16622
9.17277
9.17917
9.1854
9.19146
9.19732
9.20299
9.20844
9.21369
9.21871
9.22349
9.22804
9.23233
9.23634
9.24006
9.24347
9.24654
9.24924
9.25154
9.25341
9.25479
9.25566
9.25597
9.25568
9.25474
9.25311
9.25075
9.24761
9.24365
9.23886
9.23322
9.22671
9.21937
9.21124
9.2024
9.19297
9.18308
9.17293
9.16273
9.15272
9.14314
9.13423
9.1262
9.11924
9.1135
9.1091
9.10613
9.10463
8.74235
8.74371
8.74639
8.75031
8.75536
8.7614
8.76829
8.7759
8.78407
8.79269
8.80164
8.81082
8.82014
8.82952
8.83888
8.84818
8.85734
8.86634
8.87513
8.88369
8.892
8.90004
8.90781
8.9153
8.9225
8.92939
8.93596
8.9422
8.94809
8.95362
8.95874
8.96344
8.96768
8.97141
8.9746
8.97719
8.97913
8.98037
8.98084
8.98048
8.97924
8.97705
8.97384
8.96957
8.96418
8.95763
8.94989
8.94096
8.93085
8.91963
8.9074
8.89432
8.88058
8.86646
8.85225
8.83829
8.82493
8.8125
8.80131
8.79161
8.78363
8.77752
8.77339
8.77131
8.41563
8.41739
8.42085
8.42591
8.43241
8.44017
8.449
8.45872
8.46916
8.48013
8.49151
8.50317
8.51499
8.52688
8.53874
8.55049
8.56208
8.57344
8.58453
8.59533
8.6058
8.61594
8.62573
8.63517
8.64423
8.65292
8.66121
8.66909
8.67653
8.68351
8.68999
8.69595
8.70132
8.70608
8.71014
8.71346
8.71597
8.71759
8.71825
8.71788
8.71638
8.71369
8.70973
8.70441
8.69767
8.68945
8.67971
8.66844
8.65565
8.64141
8.62584
8.60914
8.59156
8.57345
8.55519
8.53724
8.52004
8.50406
8.48967
8.47723
8.467
8.45919
8.45391
8.45125
8.10217
8.10435
8.10863
8.11486
8.12285
8.13236
8.14316
8.15501
8.1677
8.18101
8.19479
8.20888
8.22316
8.23749
8.25177
8.26592
8.27985
8.2935
8.30682
8.31976
8.33232
8.34446
8.35619
8.3675
8.37836
8.38877
8.39872
8.40817
8.41711
8.4255
8.4333
8.44048
8.44698
8.45274
8.45769
8.46174
8.46483
8.46687
8.46775
8.4674
8.46571
8.46259
8.45794
8.45166
8.44367
8.43388
8.42224
8.40872
8.39332
8.37612
8.35726
8.33694
8.31549
8.29333
8.27095
8.24891
8.2278
8.20817
8.19054
8.17532
8.16283
8.1533
8.14688
8.14365
7.80127
7.80389
7.80902
7.81648
7.82602
7.83734
7.85015
7.86415
7.87909
7.89473
7.91088
7.92737
7.94405
7.96078
7.97743
7.99391
8.01012
8.02598
8.04144
8.05646
8.07101
8.08508
8.09867
8.11176
8.12435
8.13643
8.14796
8.15893
8.16932
8.17908
8.18817
8.19655
8.20416
8.21091
8.21674
8.22154
8.22524
8.22771
8.22886
8.22859
8.22676
8.22328
8.21802
8.21087
8.20172
8.19046
8.17702
8.16134
8.14343
8.12332
8.10118
8.07724
8.05188
8.02558
7.99895
7.9727
7.94754
7.92417
7.90322
7.88517
7.8704
7.85916
7.8516
7.8478
7.51227
7.51535
7.5214
7.53015
7.54131
7.5545
7.56936
7.58555
7.60276
7.62072
7.63923
7.65808
7.67712
7.6962
7.71518
7.73393
7.75236
7.77036
7.78789
7.80489
7.82136
7.83728
7.85264
7.86746
7.88171
7.89537
7.90844
7.92089
7.93267
7.94376
7.95411
7.96367
7.97236
7.98011
7.98682
7.99239
7.99671
7.99966
8.00112
8.00096
7.99907
7.9953
7.98952
7.98159
7.97137
7.95875
7.94361
7.92587
7.90551
7.88257
7.85717
7.82959
7.80024
7.76969
7.73868
7.70804
7.67868
7.65143
7.62705
7.60612
7.58905
7.5761
7.5674
7.56304
7.23454
7.23813
7.24515
7.25529
7.26815
7.28329
7.30027
7.31868
7.33817
7.35846
7.37929
7.40049
7.42185
7.44324
7.46449
7.48547
7.50605
7.52613
7.54565
7.56457
7.58287
7.60055
7.61763
7.63408
7.64993
7.66513
7.67968
7.69354
7.70668
7.71906
7.73063
7.74135
7.75112
7.75986
7.76746
7.77381
7.77878
7.78223
7.78404
7.78406
7.78216
7.77818
7.77196
7.76334
7.75217
7.73828
7.72155
7.70186
7.67915
7.65342
7.6248
7.59356
7.56014
7.5252
7.48962
7.4544
7.42063
7.38935
7.36144
7.33757
7.31819
7.30353
7.29373
7.28882
6.96751
6.97165
6.97972
6.99134
7.00601
7.0232
7.04237
7.06305
7.08484
7.10744
7.13059
7.15408
7.17774
7.2014
7.22488
7.24803
7.27071
7.29281
7.31425
7.33501
7.35506
7.37443
7.39313
7.41117
7.42854
7.44522
7.4612
7.47643
7.49088
7.50451
7.51728
7.52913
7.53997
7.5497
7.55821
7.56535
7.57099
7.57498
7.57718
7.57743
7.57558
7.57145
7.56488
7.55567
7.54364
7.52861
7.5104
7.48887
7.4639
7.43547
7.40366
7.36872
7.33115
7.29167
7.2513
7.21126
7.17286
7.13737
7.10582
7.07896
7.05725
7.04092
7.03003
7.0246
6.71062
6.71536
6.72458
6.7378
6.75442
6.77375
6.79519
6.81818
6.8423
6.8672
6.89263
6.91839
6.94431
6.9702
6.99587
7.02115
7.04588
7.06993
7.09323
7.11574
7.13747
7.15845
7.1787
7.19825
7.21709
7.2352
7.25255
7.2691
7.28481
7.29966
7.3136
7.32656
7.33847
7.34919
7.35861
7.36656
7.3729
7.37746
7.38009
7.38061
7.37887
7.37467
7.36783
7.35812
7.34535
7.32928
7.30972
7.28646
7.25935
7.22829
7.19334
7.1547
7.11287
7.06868
7.02328
6.97814
6.93486
6.89494
6.85963
6.82975
6.80574
6.78778
6.77586
6.76992
6.46336
6.46877
6.47925
6.49421
6.5129
6.5345
6.5583
6.58365
6.61009
6.63728
6.66496
6.69296
6.7211
6.74918
6.77701
6.80438
6.83111
6.85706
6.88214
6.90633
6.92965
6.95215
6.97389
6.99488
7.01513
7.03462
7.05329
7.07112
7.08806
7.10408
7.11916
7.13322
7.14617
7.15789
7.16823
7.17701
7.18407
7.18923
7.19232
7.19317
7.1916
7.1874
7.18036
7.17026
7.15684
7.13986
7.11906
7.0942
7.06507
7.0315
6.99346
6.95112
6.90495
6.85585
6.80515
6.7546
6.70612
6.66157
6.62238
6.58945
6.56319
6.54367
6.53078
6.52438
6.22525
6.23139
6.24326
6.26012
6.28104
6.30504
6.33128
6.35904
6.38781
6.41726
6.44716
6.47735
6.50766
6.5379
6.56786
6.59729
6.62598
6.65376
6.68056
6.70634
6.73117
6.75512
6.77826
6.80064
6.82224
6.84306
6.86301
6.88207
6.90019
6.91735
6.93353
6.94867
6.96267
6.97539
6.98666
6.99629
7.00409
7.00987
7.01346
7.01468
7.01332
7.00919
7.00205
6.99163
6.97768
6.95989
6.93799
6.91168
6.88066
6.8447
6.80366
6.75762
6.70702
6.65282
6.59652
6.54018
6.48618
6.43674
6.39356
6.35759
6.32916
6.30818
6.29441
6.2876
5.99581
6.00277
6.01618
6.03512
6.05844
6.08499
6.11375
6.14396
6.17506
6.20673
6.2388
6.27113
6.30358
6.33595
6.36801
6.39946
6.43007
6.45964
6.48807
6.51538
6.54162
6.56693
6.59141
6.6151
6.63802
6.66011
6.68131
6.70155
6.7208
6.73906
6.75632
6.77252
6.78755
6.80128
6.81349
6.82398
6.83255
6.83898
6.8431
6.84472
6.84363
6.83963
6.83245
6.82182
6.80743
6.78897
6.7661
6.73847
6.70572
6.66751
6.62357
6.57387
6.51877
6.45926
6.39702
6.33449
6.27456
6.21998
6.17272
6.13375
6.10326
6.08095
6.06641
6.05924
5.7746
5.78249
5.79761
5.81883
5.84475
5.87398
5.90537
5.93806
5.97147
6.00531
6.03948
6.0739
6.10844
6.14291
6.17705
6.21051
6.243
6.27429
6.3043
6.33303
6.36061
6.38719
6.41292
6.43788
6.46206
6.48541
6.50781
6.52919
6.54952
6.56883
6.58713
6.60437
6.62044
6.63517
6.64834
6.65972
6.66906
6.67616
6.68083
6.68288
6.68212
6.67831
6.67117
6.66041
6.64568
6.62665
6.60295
6.57416
6.53984
6.49954
6.45285
6.39955
6.3399
6.27486
6.20632
6.13712
6.07081
6.0108
5.95938
5.9175
5.88511
5.86166
5.84647
5.83902
5.56121
5.57013
5.58715
5.61089
5.63962
5.67169
5.7058
5.74099
5.77667
5.81263
5.84882
5.88527
5.92186
5.9584
5.9946
6.03005
6.06439
6.09736
6.12887
6.15894
6.18774
6.21551
6.24243
6.2686
6.294
6.31856
6.34213
6.36461
6.38597
6.40629
6.42559
6.44385
6.46095
6.4767
6.49085
6.50311
6.51325
6.52104
6.52628
6.5288
6.52839
6.52482
6.5178
6.50699
6.49203
6.47254
6.44814
6.41834
6.38263
6.34044
6.29115
6.23436
6.17012
6.09937
6.02412
5.9477
5.87448
5.80874
5.75312
5.70847
5.6744
5.64999
5.63432
5.62667
5.35522
5.3653
5.38444
5.41095
5.44274
5.47781
5.51472
5.55243
5.59034
5.62831
5.66645
5.70485
5.74344
5.78203
5.82029
5.85773
5.89388
5.92849
5.96142
5.99273
6.02266
6.05151
6.07956
6.10689
6.13347
6.15922
6.18394
6.20746
6.22981
6.25107
6.27134
6.2906
6.30872
6.3255
6.34064
6.35381
6.36476
6.37325
6.37908
6.38208
6.38207
6.3788
6.37196
6.36118
6.34607
6.32624
6.30126
6.27061
6.2337
6.18982
6.13815
6.078
6.00918
5.93251
5.85015
5.76587
5.68513
5.61332
5.55351
5.5063
5.47081
5.4457
5.42972
5.42196
5.15624
5.16764
5.18914
5.21873
5.25381
5.29205
5.33184
5.37208
5.41215
5.45203
5.492
5.53228
5.57284
5.61343
5.65376
5.6932
5.73114
5.76732
5.80162
5.83407
5.86501
5.89486
5.92395
5.95239
5.98013
6.00706
6.0329
6.05743
6.08068
6.10283
6.12404
6.14428
6.16341
6.18124
6.1974
6.21149
6.22325
6.23244
6.23887
6.24237
6.24279
6.23987
6.23327
6.2226
6.20742
6.18735
6.16193
6.13058
6.09265
6.04733
5.99353
5.9302
5.85682
5.77408
5.68416
5.59128
5.50229
5.42408
5.36014
5.31064
5.27407
5.24854
5.23243
5.22466
4.96391
4.97679
5.00092
5.03391
5.07258
5.11413
5.15687
5.19964
5.24178
5.28344
5.32511
5.36722
5.40968
5.45226
5.49468
5.53613
5.57584
5.61355
5.64913
5.68262
5.71445
5.74518
5.77527
5.80478
5.83364
5.86175
5.88871
5.91418
5.93828
5.96125
5.98336
6.00456
6.0247
6.0436
6.06079
6.07581
6.08839
6.0983
6.10532
6.10934
6.1102
6.10768
6.10139
6.09089
6.07573
6.05551
6.02977
5.99787
5.95912
5.91261
5.85694
5.79067
5.71282
5.62388
5.52597
5.42364
5.32549
5.24053
5.17262
5.12121
5.08394
5.05829
5.04227
5.03458
4.77786
4.79243
4.81947
4.85623
4.8988
4.94379
4.98956
5.03486
5.07894
5.12223
5.16546
5.20931
5.25364
5.29817
5.34271
5.38622
5.42766
5.46686
5.50367
5.53806
5.57066
5.60216
5.63319
5.66373
5.69368
5.72298
5.75107
5.77743
5.80228
5.82601
5.84898
5.87112
5.89226
5.91225
5.93052
5.94647
5.95987
5.9705
5.97812
5.98264
5.98397
5.98189
5.97597
5.96571
5.95063
5.93034
5.9044
5.87209
5.8327
5.78529
5.72809
5.65916
5.57696
5.48174
5.37542
5.26263
5.15425
5.06219
4.99056
4.93772
4.90021
4.87477
4.85905
4.85154
4.59774
4.61425
4.64449
4.68544
4.73226
4.78078
4.82963
4.87746
4.92334
4.96807
5.01269
5.05824
5.10439
5.15081
5.19755
5.24318
5.28629
5.32694
5.36493
5.4001
5.43332
5.46547
5.49739
5.52894
5.55994
5.59047
5.6197
5.64689
5.67241
5.69679
5.7206
5.74367
5.76578
5.78691
5.80629
5.82316
5.8374
5.84875
5.85694
5.86197
5.86378
5.86218
5.85669
5.84674
5.8318
5.81151
5.78548
5.75288
5.71303
5.66502
5.60664
5.53542
5.449
5.34748
5.23243
5.108
4.98802
4.88856
4.81363
4.75995
4.72268
4.69781
4.6826
4.67538
4.42321
4.44196
4.47568
4.52132
4.57277
4.62486
4.67683
4.72722
4.7747
4.82067
4.86648
4.91369
4.96163
5.00986
5.05889
5.10674
5.15145
5.19351
5.23264
5.26844
5.30213
5.33479
5.36758
5.40011
5.43211
5.46394
5.49436
5.5223
5.54837
5.5733
5.59794
5.62193
5.64497
5.66729
5.68785
5.70562
5.72068
5.73276
5.7415
5.74702
5.74932
5.74825
5.74325
5.73366
5.71889
5.69866
5.67267
5.63988
5.59972
5.55144
5.49228
5.41918
5.32872
5.22098
5.097
4.95952
4.82623
4.71913
4.6415
4.58767
4.5512
4.52726
4.51276
4.50592
4.25395
4.2753
4.31275
4.36363
4.42016
4.47577
4.53092
4.58392
4.63275
4.67974
4.72649
4.77536
4.82508
4.87497
4.92644
4.97666
5.02285
5.06629
5.10657
5.14281
5.17681
5.20982
5.24348
5.27699
5.3099
5.34311
5.37482
5.40338
5.4299
5.45526
5.48073
5.50562
5.52954
5.55312
5.57494
5.59356
5.60944
5.62226
5.63151
5.63751
5.64028
5.63979
5.63535
5.62618
5.61162
5.59148
5.56564
5.53276
5.4924
5.4442
5.38469
5.31022
5.21589
5.10205
4.96919
4.817
4.66821
4.55338
4.47388
4.42074
4.38563
4.36297
4.34938
4.343
4.08963
4.11408
4.15538
4.21219
4.27434
4.33326
4.39164
4.44736
4.49723
4.54499
4.59237
4.64299
4.69449
4.74579
4.79992
4.85275
4.90018
4.94499
4.98647
5.02293
5.05708
5.09023
5.12482
5.15933
5.193
5.22774
5.26088
5.2899
5.31674
5.34236
5.3687
5.39452
5.4192
5.44416
5.46733
5.48672
5.50341
5.51701
5.52671
5.53316
5.5364
5.53654
5.53272
5.52402
5.50968
5.48965
5.46412
5.4312
5.39067
5.34296
5.28353
5.20833
5.11025
4.99053
4.84921
4.68032
4.51316
4.3908
4.31056
4.25902
4.22587
4.20481
4.19231
4.18648
3.9299
3.95813
4.00326
4.06681
4.13524
4.19703
4.25873
4.31739
4.36786
4.41618
4.46378
4.51631
4.56962
4.62196
4.67908
4.73482
4.78316
4.82936
4.87216
4.90854
4.9427
4.97572
5.01137
5.0469
5.0811
5.11758
5.15235
5.18162
5.20866
5.23432
5.26164
5.2884
5.31365
5.34014
5.36483
5.38483
5.40235
5.41678
5.42683
5.43372
5.43738
5.43822
5.43508
5.42693
5.4128
5.39285
5.36781
5.33487
5.29416
5.24739
5.18846
5.11331
5.01153
4.88616
4.73739
4.54943
4.36017
4.23087
4.15133
4.10244
4.07181
4.05267
4.04141
4.03618
3.77443
3.80736
3.85601
3.92731
4.00287
4.06677
4.13192
4.19391
4.24435
4.29308
4.34034
4.3951
4.45031
4.50309
4.56366
4.62276
4.67146
4.7191
4.76347
4.79937
4.83343
4.86596
4.90289
4.93951
4.97387
5.01241
5.0491
5.07828
5.10544
5.13085
5.1593
5.18707
5.2126
5.24085
5.26727
5.28764
5.30601
5.32135
5.33162
5.33894
5.34296
5.34459
5.34221
5.33467
5.32072
5.30077
5.27649
5.24351
5.20245
5.15718
5.09912
5.02502
4.91939
4.78863
4.63425
4.4244
4.20806
4.07313
3.99611
3.95093
3.92338
3.90642
3.89653
3.89195
3.62285
3.6618
3.71321
3.79353
3.87732
3.9421
4.01094
4.07684
4.1264
4.17548
4.22163
4.27915
4.33643
4.38873
4.45341
4.51653
4.56474
4.61396
4.66028
4.69513
4.72907
4.76061
4.79917
4.83702
4.87096
4.912
4.95102
4.97965
5.00689
5.03164
5.06151
5.09036
5.11573
5.14607
5.17451
5.19488
5.21415
5.23055
5.24085
5.24859
5.25289
5.2554
5.25385
5.247
5.2332
5.21311
5.18992
5.15687
5.11512
5.07204
5.01511
4.94338
4.83351
4.69745
4.54053
4.3054
4.05541
3.91717
3.84486
3.80449
3.78051
3.76594
3.75751
3.75362
3.47474
3.52159
3.5743
3.66533
3.75879
3.82255
3.89549
3.96622
4.01365
4.06327
4.10719
4.1683
4.22793
4.27837
4.34811
4.41614
4.46261
4.51366
4.56253
4.59552
4.62947
4.6593
4.70006
4.73933
4.77198
4.81615
4.85808
4.88544
4.91285
4.93635
4.96807
4.99817
5.02269
5.05558
5.08646
5.10626
5.12655
5.14421
5.15425
5.16248
5.1669
5.17045
5.16978
5.16373
5.15002
5.12953
5.10794
5.07471
5.03172
4.99174
4.93596
4.86839
4.75351
4.61194
4.45722
4.19281
3.9004
3.7627
3.69765
3.66313
3.64312
3.63112
3.6242
3.62103
3.32965
3.38709
3.43864
3.54255
3.64764
3.70755
3.78526
3.86215
3.90566
3.95638
3.99649
4.0624
4.12486
4.17141
4.24755
4.32174
4.3646
4.4179
4.47022
4.5002
4.53453
4.56161
4.60538
4.64641
4.67648
4.72465
4.77028
4.79534
4.82321
4.84462
4.87884
4.91043
4.9331
4.9692
5.00308
5.02149
5.04296
5.06221
5.07157
5.08041
5.08473
5.08952
5.08979
5.08467
5.07098
5.04968
5.03041
4.99687
4.95175
4.91612
4.86116
4.80018
4.67898
4.53115
4.38568
4.08722
3.74074
3.60962
3.55461
3.52688
3.51115
3.50181
3.49645
3.494
3.18703
3.25886
3.30538
3.42506
3.54441
3.59638
3.6799
3.76489
3.80191
3.85489
3.88888
3.96136
4.02738
4.06712
4.15151
4.23359
4.27018
4.32639
4.38347
4.40876
4.44423
4.46707
4.51504
4.55829
4.58392
4.63733
4.6877
4.709
4.73792
4.75603
4.79368
4.82712
4.84651
4.88675
4.92439
4.94021
4.96319
4.98447
4.99254
5.00224
5.00613
5.01244
5.01366
5.00965
4.9959
4.9732
4.95723
4.92322
4.87463
4.84512
4.79003
4.73903
4.6095
4.45373
4.3276
3.98949
3.57349
3.45808
3.41599
3.39578
3.38452
3.37788
3.37409
3.37236
3.0462
3.13781
3.17341
3.31274
3.44986
3.48812
3.57905
3.67486
3.70171
3.75902
3.7836
3.86515
3.93578
3.96464
4.05982
4.15211
4.17867
4.23883
4.30247
4.32068
4.35866
4.37511
4.42893
4.47511
4.4937
4.55401
4.61054
4.62596
4.65703
4.67011
4.71252
4.74832
4.76243
4.80806
4.85049
4.86205
4.887
4.91094
4.91687
4.92784
4.93082
4.93905
4.94119
4.93851
4.92467
4.89964
4.88837
4.85368
4.79971
4.77881
4.72175
4.68541
4.54469
4.37786
4.28517
3.90085
3.39498
3.30864
3.28208
3.26987
3.26315
3.2592
3.25696
3.25593
2.90635
3.02522
3.04136
3.20545
3.36503
3.38162
3.48234
3.59266
3.60418
3.66918
3.6797
3.77376
3.85054
3.86289
3.9723
4.0779
4.08926
4.15491
4.22758
4.23533
4.27804
4.28505
4.34702
4.39712
4.40507
4.47455
4.53907
4.54567
4.5807
4.58629
4.63527
4.6742
4.68025
4.733
4.78157
4.78654
4.81421
4.84165
4.84422
4.85716
4.85851
4.8692
4.87215
4.87112
4.85718
4.82852
4.82384
4.78829
4.7262
4.71744
4.65529
4.64004
4.48419
4.30112
4.26108
3.82296
3.20056
3.16236
3.15321
3.14914
3.14692
3.14562
3.14488
3.14454
)
;

boundaryField
{
    left
    {
        type            zeroGradient;
    }
    right
    {
        type            zeroGradient;
    }
    interface
    {
        type            fixedValue;
        value           nonuniform List<scalar> 
64
(
2.83484
2.9729
2.9729
3.15312
3.32734
3.32734
3.43481
3.55508
3.55508
3.6267
3.6267
3.72954
3.81059
3.81059
3.92961
4.04411
4.04411
4.11369
4.19271
4.19271
4.2396
4.2396
4.30729
4.3601
4.3601
4.43584
4.50569
4.50569
4.54418
4.54418
4.59777
4.63883
4.63883
4.69642
4.74904
4.74904
4.77863
4.80842
4.80842
4.8229
4.8229
4.83526
4.83851
4.83851
4.82457
4.79311
4.79311
4.75701
4.68884
4.68884
4.62156
4.62156
4.45533
4.25982
4.25982
3.78975
3.09007
3.09007
3.09007
3.09007
3.09007
3.09007
3.09007
3.09007
)
;
    }
    bottom
    {
        type            fixedValue;
        value           uniform 10;
    }
    defaultFaces
    {
        type            empty;
    }
}


// ************************************************************************* //
