/*--------------------------------*- C++ -*----------------------------------*\
| =========                 |                                                 |
| \\      /  F ield         | OpenFOAM: The Open Source CFD Toolbox           |
|  \\    /   O peration     | Version:  5.x                                   |
|   \\  /    A nd           | Web:      www.OpenFOAM.org                      |
|    \\/     M anipulation  |                                                 |
\*---------------------------------------------------------------------------*/
FoamFile
{
    version     2.0;
    format      ascii;
    class       volScalarField;
    location    "2.7";
    object      T;
}
// * * * * * * * * * * * * * * * * * * * * * * * * * * * * * * * * * * * * * //

dimensions      [0 0 0 1 0 0 0];

internalField   nonuniform List<scalar> 
3200
(
2.09255
2.44197
2.46189
2.60575
2.61486
2.68647
2.69123
2.73251
2.73534
2.7614
2.76313
2.77816
2.77948
2.79588
2.79722
2.81288
2.81414
2.82857
2.82971
2.84278
2.84382
2.8555
2.85642
2.86675
2.86756
2.87666
2.87738
2.88557
2.88629
2.89496
2.90255
2.90309
2.90799
2.90836
2.91211
2.91239
2.91539
2.91562
2.91807
2.91826
2.92026
2.92042
2.92206
2.92219
2.92353
2.92363
2.92469
2.92477
2.92556
2.92561
2.92608
2.92612
2.92659
2.92662
2.92697
2.92699
2.92716
2.92716
2.92709
2.92707
2.92666
2.9266
2.92565
2.92554
2.92368
2.92345
2.91982
2.91932
2.91139
2.91
2.88755
2.84839
2.84403
2.78041
2.77291
2.65384
2.64889
2.64827
2.64814
2.64811
2.26709
2.53443
2.57605
2.69115
2.71057
2.76784
2.77799
2.8109
2.81692
2.83763
2.84131
2.85337
2.85617
2.86916
2.87199
2.88439
2.88705
2.89849
2.90092
2.91128
2.91346
2.92272
2.92467
2.93286
2.93458
2.9418
2.94333
2.94984
2.95139
2.95857
2.96495
2.96612
2.97004
2.97081
2.97378
2.97438
2.97677
2.97725
2.97919
2.97959
2.98118
2.9815
2.98281
2.98307
2.98414
2.98435
2.98519
2.98535
2.98598
2.98609
2.98647
2.98655
2.98692
2.98699
2.98727
2.98731
2.98744
2.98745
2.98739
2.98735
2.98702
2.9869
2.98614
2.98589
2.98441
2.98392
2.981
2.97993
2.97348
2.97042
2.95079
2.91875
2.90941
2.85869
2.84291
2.75041
2.73997
2.73825
2.73789
2.73781
2.43094
2.63592
2.68727
2.78037
2.80477
2.8511
2.86385
2.89037
2.89791
2.91454
2.91916
2.92894
2.93246
2.94283
2.94637
2.95629
2.95962
2.96877
2.9718
2.98009
2.98283
2.99024
2.99267
2.99923
3.00138
3.00716
3.00908
3.01432
3.01627
3.02221
3.02756
3.02904
3.0322
3.03317
3.03556
3.03631
3.03822
3.03882
3.04038
3.04087
3.04215
3.04255
3.0436
3.04393
3.04478
3.04504
3.04572
3.04592
3.04642
3.04657
3.04687
3.04697
3.04727
3.04736
3.04757
3.04763
3.04774
3.04775
3.0477
3.04764
3.04738
3.04722
3.04662
3.0463
3.04511
3.04448
3.04211
3.04076
3.03542
3.03149
3.01454
2.98819
2.97644
2.93558
2.91598
2.8437
2.8307
2.82817
2.82762
2.8275
2.58659
2.74355
2.79682
2.87234
2.89809
2.9357
2.94915
2.97059
2.97853
2.99194
2.9968
3.00476
3.00847
3.01678
3.0205
3.02845
3.03195
3.03929
3.04248
3.04913
3.05201
3.05795
3.06051
3.06577
3.06803
3.07268
3.0747
3.07892
3.08099
3.08588
3.09032
3.0919
3.09446
3.09548
3.0974
3.09819
3.09972
3.10036
3.10161
3.10212
3.10315
3.10357
3.10441
3.10476
3.10544
3.10572
3.10626
3.10648
3.10688
3.10703
3.10728
3.10739
3.10762
3.10771
3.10789
3.10795
3.10803
3.10804
3.108
3.10795
3.10773
3.10757
3.10708
3.10674
3.10577
3.10511
3.10318
3.10174
3.09732
3.09309
3.07866
3.05705
3.04464
3.01162
2.99115
2.93461
2.92101
2.91802
2.91734
2.91718
2.73596
2.85533
2.90548
2.9663
2.99094
3.02126
3.03413
3.05136
3.05894
3.06967
3.07432
3.08076
3.0843
3.09092
3.09445
3.1008
3.10412
3.10998
3.11302
3.11832
3.12106
3.1258
3.12824
3.13244
3.13459
3.1383
3.14023
3.14361
3.14559
3.14956
3.15319
3.15471
3.15677
3.15775
3.15928
3.16003
3.16126
3.16186
3.16286
3.16336
3.16418
3.16458
3.16525
3.16558
3.16613
3.16639
3.16682
3.16703
3.16735
3.16749
3.16769
3.16779
3.16798
3.16807
3.16821
3.16826
3.16833
3.16834
3.16831
3.16825
3.16808
3.16792
3.16753
3.16721
3.16643
3.1658
3.16423
3.16284
3.1592
3.1551
3.14307
3.12554
3.11366
3.08716
3.06777
3.02381
3.0109
3.00777
3.00703
3.00686
2.88055
2.96988
3.01372
3.06171
3.08356
3.10752
3.11893
3.1325
3.13922
3.14765
3.15177
3.15687
3.16
3.16518
3.1683
3.17326
3.1762
3.18078
3.18346
3.18762
3.19003
3.19375
3.1959
3.19919
3.20109
3.20399
3.2057
3.20836
3.21011
3.21326
3.21615
3.2175
3.21913
3.21999
3.2212
3.22186
3.22282
3.22336
3.22414
3.22458
3.22522
3.22558
3.2261
3.22639
3.22682
3.22705
3.22739
3.22757
3.22782
3.22795
3.22811
3.2282
3.22834
3.22842
3.22853
3.22858
3.22863
3.22864
3.22861
3.22856
3.22843
3.22829
3.22798
3.2277
3.22708
3.22652
3.22528
3.22404
3.2211
3.21742
3.2077
3.19381
3.18327
3.16241
3.14537
3.11177
3.1004
3.09743
3.0967
3.09654
3.02156
3.08624
3.12178
3.15816
3.17609
3.19429
3.20365
3.21393
3.21943
3.2258
3.22918
3.23305
3.23562
3.23951
3.24207
3.2458
3.2482
3.25165
3.25385
3.25698
3.25896
3.26175
3.26351
3.26599
3.26754
3.26973
3.27113
3.27314
3.27458
3.27697
3.27917
3.28029
3.28152
3.28223
3.28314
3.28368
3.2844
3.28484
3.28543
3.28579
3.28627
3.28656
3.28696
3.2872
3.28752
3.28771
3.28797
3.28811
3.2883
3.28841
3.28852
3.2886
3.28871
3.28877
3.28885
3.2889
3.28893
3.28894
3.28892
3.28888
3.28878
3.28866
3.28843
3.2882
3.28773
3.28727
3.28632
3.2853
3.28303
3.27998
3.27249
3.26194
3.25329
3.23751
3.22363
3.19884
3.18956
3.18699
3.18635
3.1862
3.15999
3.20377
3.22982
3.25534
3.26861
3.2814
3.28833
3.29554
3.29961
3.30406
3.30656
3.30929
3.31119
3.31391
3.31579
3.3184
3.32017
3.32258
3.3242
3.32638
3.32784
3.3298
3.3311
3.33283
3.33398
3.3355
3.33653
3.33794
3.33901
3.34069
3.34224
3.34306
3.34393
3.34445
3.34509
3.34549
3.346
3.34632
3.34673
3.34699
3.34733
3.34755
3.34782
3.348
3.34822
3.34837
3.34854
3.34865
3.34879
3.34886
3.34895
3.349
3.34908
3.34912
3.34918
3.34921
3.34924
3.34924
3.34923
3.3492
3.34913
3.34904
3.34888
3.34871
3.34838
3.34804
3.34737
3.34661
3.345
3.34272
3.33741
3.32999
3.3236
3.31254
3.30233
3.28529
3.27845
3.27648
3.27598
3.27586
3.29667
3.32201
3.33787
3.35302
3.36115
3.36875
3.373
3.37728
3.37977
3.38241
3.38394
3.38556
3.38673
3.38833
3.38948
3.39103
3.39211
3.39354
3.39453
3.39582
3.39671
3.39787
3.39866
3.39969
3.40039
3.40129
3.40193
3.40276
3.40342
3.40441
3.40533
3.40584
3.40635
3.40667
3.40705
3.4073
3.40759
3.40779
3.40804
3.4082
3.4084
3.40853
3.40869
3.4088
3.40893
3.40902
3.40913
3.40919
3.40927
3.40932
3.40937
3.4094
3.40945
3.40947
3.40951
3.40953
3.40954
3.40955
3.40954
3.40952
3.40948
3.40942
3.40933
3.40922
3.40903
3.40882
3.40842
3.40795
3.40699
3.40559
3.40241
3.39801
3.39409
3.38753
3.3813
3.37133
3.36715
3.36591
3.3656
3.36552
3.43233
3.44063
3.44595
3.45098
3.45371
3.45624
3.45767
3.45908
3.45992
3.4608
3.46131
3.46185
3.46224
3.46278
3.46316
3.46367
3.46404
3.46451
3.46484
3.46527
3.46557
3.46595
3.46622
3.46656
3.4668
3.4671
3.46731
3.46759
3.46781
3.46814
3.46844
3.46861
3.46878
3.46889
3.46902
3.4691
3.4692
3.46926
3.46934
3.4694
3.46947
3.46951
3.46956
3.4696
3.46964
3.46967
3.46971
3.46973
3.46976
3.46977
3.46979
3.4698
3.46982
3.46982
3.46984
3.46984
3.46985
3.46985
3.46985
3.46984
3.46983
3.46981
3.46978
3.46974
3.46968
3.4696
3.46947
3.46931
3.46899
3.46852
3.46747
3.46601
3.46468
3.46251
3.46042
3.45713
3.45573
3.45531
3.4552
3.45517
3.43251
3.44137
3.44752
3.45416
3.45822
3.46264
3.46546
3.46869
3.47077
3.47315
3.47462
3.47623
3.47741
3.47903
3.4802
3.48173
3.48282
3.48419
3.48516
3.48637
3.48721
3.48827
3.489
3.48992
3.49055
3.49135
3.49192
3.49266
3.49325
3.49415
3.49498
3.49546
3.49594
3.49625
3.49661
3.49685
3.49715
3.49735
3.4976
3.49777
3.49798
3.49812
3.4983
3.49841
3.49856
3.49866
3.49878
3.49885
3.49895
3.499
3.49907
3.49911
3.49918
3.49922
3.49928
3.49933
3.49938
3.49942
3.49946
3.4995
3.49954
3.49956
3.49959
3.49962
3.49964
3.49965
3.49965
3.49962
3.49954
3.49935
3.49888
3.49812
3.49732
3.49587
3.49432
3.49176
3.49066
3.49033
3.49025
3.49023
3.29718
3.32423
3.34254
3.36257
3.37464
3.38799
3.39636
3.40611
3.41228
3.41948
3.42384
3.4287
3.43222
3.43711
3.4406
3.44522
3.44844
3.4526
3.45546
3.45912
3.46162
3.46481
3.46699
3.46976
3.47165
3.47407
3.47576
3.47799
3.47975
3.48245
3.48497
3.48637
3.48782
3.48874
3.48984
3.49056
3.49146
3.49206
3.49281
3.49331
3.49394
3.49436
3.49489
3.49524
3.49568
3.49597
3.49633
3.49656
3.49684
3.49701
3.4972
3.49734
3.49753
3.49767
3.49785
3.49798
3.49814
3.49825
3.49839
3.49849
3.49861
3.49869
3.49878
3.49884
3.49891
3.49894
3.49894
3.49887
3.49862
3.49807
3.49665
3.49437
3.492
3.48761
3.483
3.47523
3.47196
3.47099
3.47074
3.47068
3.16077
3.20744
3.23749
3.2713
3.29102
3.31353
3.3272
3.34367
3.35376
3.36593
3.37305
3.38122
3.38697
3.39524
3.40094
3.40876
3.41402
3.42106
3.42573
3.43192
3.43601
3.4414
3.44496
3.44964
3.45273
3.45682
3.45957
3.46334
3.46621
3.47076
3.47499
3.47728
3.47972
3.48122
3.48308
3.48426
3.48578
3.48676
3.48803
3.48885
3.48991
3.4906
3.49149
3.49206
3.4928
3.49328
3.49389
3.49427
3.49474
3.49502
3.49534
3.49556
3.49589
3.49611
3.49642
3.49663
3.4969
3.49708
3.49732
3.49748
3.49768
3.49781
3.49797
3.49807
3.49819
3.49824
3.49824
3.49812
3.49771
3.49682
3.49445
3.49063
3.48675
3.47935
3.47181
3.45852
3.45316
3.45162
3.45123
3.45114
3.02249
3.0913
3.13229
3.18059
3.20728
3.23943
3.25794
3.28149
3.29516
3.31258
3.32222
3.33384
3.34162
3.35347
3.3612
3.37241
3.37953
3.38961
3.39594
3.4048
3.41034
3.41806
3.42288
3.42957
3.43376
3.43962
3.44335
3.44872
3.4526
3.45907
3.4651
3.46818
3.47166
3.47369
3.47634
3.47795
3.48012
3.48145
3.48326
3.48437
3.48589
3.48683
3.4881
3.48888
3.48994
3.49059
3.49145
3.49197
3.49264
3.49302
3.49348
3.49378
3.49425
3.49456
3.495
3.49528
3.49567
3.49591
3.49625
3.49646
3.49675
3.49693
3.49717
3.4973
3.49747
3.49753
3.49754
3.49738
3.49682
3.49564
3.49232
3.48688
3.48165
3.47111
3.46085
3.44149
3.43422
3.4322
3.4317
3.43159
2.88145
2.97628
3.02679
3.09075
3.12331
3.16587
3.18847
3.21969
3.2364
3.25954
3.2713
3.28661
3.29611
3.31187
3.32132
3.33622
3.34492
3.35831
3.36605
3.37782
3.38459
3.39484
3.40072
3.40961
3.41473
3.4225
3.42706
3.43416
3.43889
3.44741
3.45532
3.45906
3.46366
3.46614
3.46965
3.47161
3.47449
3.47612
3.47852
3.47988
3.4819
3.48304
3.48473
3.48568
3.48709
3.48788
3.48904
3.48967
3.49056
3.49102
3.49162
3.492
3.49262
3.49299
3.49358
3.49392
3.49444
3.49474
3.49519
3.49545
3.49583
3.49605
3.49636
3.49653
3.49675
3.49683
3.49685
3.49666
3.49595
3.49454
3.49027
3.48313
3.47676
3.46285
3.45025
3.42397
3.41506
3.41273
3.41216
3.41203
2.73662
2.86303
2.92075
3.00215
3.03895
3.0931
3.11865
3.15848
3.17738
3.20695
3.22024
3.2396
3.25034
3.27052
3.28122
3.30027
3.31012
3.32723
3.33599
3.35103
3.35869
3.37178
3.37844
3.3898
3.39559
3.40551
3.41066
3.4197
3.42502
3.43577
3.4457
3.44991
3.45574
3.45854
3.46302
3.46524
3.46892
3.47075
3.47383
3.47536
3.47794
3.47923
3.48139
3.48247
3.48427
3.48516
3.48664
3.48735
3.48849
3.48901
3.48978
3.4902
3.491
3.49142
3.49217
3.49255
3.49322
3.49356
3.49414
3.49443
3.49492
3.49516
3.49557
3.49576
3.49604
3.49613
3.49617
3.49596
3.49511
3.49355
3.48833
3.47935
3.47217
3.45454
3.4402
3.40576
3.39564
3.39318
3.3926
3.39247
2.58673
2.75253
2.81377
2.91534
2.95389
3.02148
3.04826
3.09811
3.11793
3.15501
3.16894
3.19295
3.2042
3.22955
3.24078
3.26469
3.27503
3.29649
3.30568
3.32453
3.33258
3.34899
3.35597
3.37021
3.37629
3.3887
3.39411
3.40538
3.41094
3.42416
3.43631
3.4407
3.44794
3.45087
3.45648
3.45881
3.46341
3.46534
3.46919
3.4708
3.47403
3.47539
3.47809
3.47923
3.48148
3.48242
3.48427
3.48502
3.48645
3.487
3.48794
3.48839
3.48939
3.48983
3.49077
3.49118
3.49201
3.49237
3.49309
3.4934
3.49402
3.49427
3.49478
3.49498
3.49534
3.49544
3.4955
3.49529
3.4943
3.49271
3.48654
3.47549
3.468
3.4461
3.43095
3.38658
3.37591
3.37356
3.37303
3.37291
2.43021
2.6462
2.70516
2.83105
2.86767
2.95149
2.97694
3.03893
3.05779
3.10399
3.11722
3.1468
3.15748
3.18913
3.19984
3.22964
3.2395
3.26623
3.27498
3.29847
3.30612
3.32656
3.33322
3.35094
3.35673
3.37218
3.37732
3.39129
3.39654
3.41259
3.42724
3.43137
3.44031
3.44309
3.45007
3.45228
3.45801
3.45985
3.46464
3.46618
3.4702
3.47149
3.47486
3.47594
3.47875
3.47964
3.48194
3.48266
3.48445
3.48496
3.48613
3.48655
3.4878
3.48823
3.4894
3.48978
3.49083
3.49116
3.49207
3.49236
3.49313
3.49337
3.494
3.49419
3.49465
3.49474
3.49484
3.49464
3.49352
3.49205
3.48495
3.47149
3.46441
3.43739
3.42287
3.36606
3.35585
3.35387
3.35343
3.35334
2.26504
2.54615
2.59388
2.75033
2.77955
2.88383
2.90415
2.98147
2.99655
3.05429
3.06486
3.1014
3.10993
3.14955
3.15812
3.1954
3.20328
3.23669
3.24369
3.27303
3.27916
3.30469
3.31001
3.33215
3.33678
3.35607
3.36017
3.37755
3.38171
3.40108
3.41858
3.42184
3.43293
3.43515
3.44384
3.44561
3.45277
3.45424
3.46022
3.46145
3.46647
3.4675
3.47172
3.47258
3.47609
3.4768
3.47968
3.48025
3.48249
3.48291
3.48435
3.48468
3.48625
3.48659
3.48806
3.48836
3.48967
3.48994
3.49107
3.4913
3.49226
3.49245
3.49325
3.4934
3.49397
3.49405
3.49418
3.49404
3.49274
3.49162
3.48361
3.46724
3.46161
3.42818
3.41648
3.34367
3.33546
3.33411
3.33383
3.33377
2.08863
2.45543
2.47824
2.67469
2.68843
2.81952
2.82909
2.9265
2.93361
3.00647
3.01144
3.05711
3.06113
3.11121
3.11526
3.16232
3.16604
3.2082
3.2115
3.24852
3.25141
3.28362
3.28613
3.31406
3.31624
3.34056
3.34249
3.36434
3.36627
3.38964
3.41049
3.412
3.4259
3.42695
3.4379
3.43873
3.44776
3.44845
3.45599
3.45657
3.46291
3.46339
3.46871
3.46911
3.47354
3.47388
3.47751
3.47778
3.48061
3.48081
3.48261
3.48277
3.48475
3.48491
3.48676
3.4869
3.48855
3.48868
3.4901
3.49021
3.49142
3.49151
3.49251
3.49259
3.49332
3.49335
3.49355
3.49348
3.49196
3.49147
3.48261
3.46256
3.45993
3.4181
3.41254
3.31869
3.3148
3.31431
3.31421
3.31419
2.08862
2.45542
2.47823
2.67468
2.68842
2.81951
2.82908
2.92649
2.9336
3.00647
3.01144
3.05711
3.06112
3.11121
3.11525
3.16231
3.16603
3.20819
3.2115
3.24852
3.2514
3.28362
3.28612
3.31405
3.31624
3.34056
3.34249
3.36433
3.36627
3.38964
3.41049
3.412
3.4259
3.42694
3.43789
3.43873
3.44775
3.44844
3.45599
3.45657
3.4629
3.46339
3.4687
3.46911
3.47354
3.47388
3.47751
3.47778
3.48061
3.4808
3.48261
3.48277
3.48475
3.48491
3.48676
3.4869
3.48855
3.48868
3.4901
3.49021
3.49142
3.49151
3.49251
3.49259
3.49332
3.49335
3.49355
3.49348
3.49197
3.49147
3.48261
3.46257
3.45994
3.41811
3.41255
3.31871
3.31483
3.31433
3.31424
3.31422
2.26504
2.54614
2.59387
2.75032
2.77954
2.88382
2.90415
2.98146
2.99655
3.05429
3.06485
3.10139
3.10992
3.14955
3.15812
3.19539
3.20327
3.23668
3.24368
3.27303
3.27915
3.30468
3.31
3.33215
3.33677
3.35606
3.36017
3.37755
3.38171
3.40108
3.41858
3.42184
3.43293
3.43515
3.44384
3.44561
3.45277
3.45424
3.46022
3.46145
3.46647
3.4675
3.47171
3.47258
3.47609
3.4768
3.47968
3.48025
3.48249
3.4829
3.48435
3.48468
3.48625
3.48659
3.48805
3.48836
3.48967
3.48994
3.49107
3.4913
3.49226
3.49245
3.49325
3.4934
3.49397
3.49405
3.49418
3.49404
3.49274
3.49162
3.48361
3.46725
3.46162
3.42819
3.41649
3.34369
3.33548
3.33413
3.33385
3.33379
2.4302
2.64619
2.70516
2.83104
2.86766
2.95148
2.97693
3.03892
3.05778
3.10399
3.11722
3.14679
3.15748
3.18913
3.19983
3.22964
3.23949
3.26622
3.27498
3.29846
3.30612
3.32656
3.33321
3.35094
3.35672
3.37218
3.37731
3.39129
3.39654
3.41259
3.42723
3.43136
3.44031
3.44309
3.45006
3.45228
3.45801
3.45985
3.46464
3.46618
3.4702
3.47149
3.47486
3.47594
3.47875
3.47964
3.48194
3.48266
3.48445
3.48496
3.48613
3.48655
3.4878
3.48822
3.4894
3.48978
3.49083
3.49116
3.49207
3.49236
3.49313
3.49337
3.494
3.49419
3.49465
3.49474
3.49484
3.49465
3.49352
3.49205
3.48495
3.4715
3.46441
3.4374
3.42288
3.36607
3.35587
3.35388
3.35345
3.35336
2.58673
2.75252
2.81376
2.91534
2.95389
3.02148
3.04825
3.0981
3.11793
3.155
3.16893
3.19294
3.20419
3.22954
3.24078
3.26468
3.27503
3.29648
3.30567
3.32453
3.33257
3.34898
3.35597
3.37021
3.37629
3.3887
3.3941
3.40538
3.41093
3.42416
3.43631
3.44069
3.44794
3.45087
3.45648
3.4588
3.46341
3.46534
3.46919
3.4708
3.47403
3.47538
3.47809
3.47923
3.48148
3.48242
3.48427
3.48502
3.48645
3.487
3.48794
3.48839
3.48939
3.48983
3.49077
3.49118
3.49201
3.49237
3.49309
3.4934
3.49402
3.49427
3.49478
3.49498
3.49534
3.49544
3.4955
3.49529
3.4943
3.49271
3.48654
3.47549
3.46801
3.44611
3.43096
3.3866
3.37593
3.37357
3.37304
3.37292
2.73662
2.86303
2.92075
3.00215
3.03895
3.0931
3.11864
3.15848
3.17737
3.20695
3.22024
3.2396
3.25034
3.27052
3.28121
3.30026
3.31012
3.32723
3.33599
3.35102
3.35869
3.37178
3.37844
3.3898
3.39559
3.4055
3.41066
3.4197
3.42502
3.43577
3.4457
3.44991
3.45574
3.45854
3.46302
3.46524
3.46892
3.47075
3.47382
3.47536
3.47794
3.47923
3.48139
3.48247
3.48427
3.48516
3.48664
3.48735
3.48849
3.48901
3.48978
3.4902
3.491
3.49142
3.49217
3.49255
3.49322
3.49356
3.49414
3.49443
3.49492
3.49516
3.49557
3.49576
3.49604
3.49613
3.49617
3.49596
3.49511
3.49355
3.48833
3.47935
3.47218
3.45455
3.4402
3.40578
3.39565
3.39319
3.39261
3.39248
2.88145
2.97628
3.02679
3.09074
3.12331
3.16586
3.18846
3.21969
3.23639
3.25953
3.2713
3.2866
3.29611
3.31187
3.32132
3.33621
3.34492
3.3583
3.36604
3.37781
3.38458
3.39483
3.40072
3.40961
3.41473
3.4225
3.42705
3.43416
3.43889
3.44741
3.45531
3.45906
3.46366
3.46613
3.46965
3.47161
3.47449
3.47612
3.47852
3.47988
3.4819
3.48304
3.48473
3.48568
3.48709
3.48788
3.48903
3.48967
3.49056
3.49102
3.49162
3.492
3.49262
3.49299
3.49358
3.49392
3.49444
3.49474
3.49519
3.49545
3.49583
3.49605
3.49636
3.49653
3.49675
3.49683
3.49685
3.49666
3.49595
3.49454
3.49027
3.48313
3.47676
3.46285
3.45025
3.42398
3.41507
3.41274
3.41217
3.41204
3.02249
3.0913
3.13228
3.18059
3.20727
3.23942
3.25793
3.28148
3.29515
3.31258
3.32221
3.33383
3.34162
3.35347
3.3612
3.37241
3.37953
3.38961
3.39594
3.4048
3.41034
3.41806
3.42287
3.42957
3.43376
3.43961
3.44335
3.44872
3.4526
3.45907
3.46509
3.46818
3.47166
3.47369
3.47634
3.47795
3.48012
3.48145
3.48326
3.48437
3.48589
3.48682
3.4881
3.48888
3.48994
3.49059
3.49145
3.49197
3.49264
3.49302
3.49348
3.49378
3.49425
3.49456
3.495
3.49528
3.49567
3.49591
3.49625
3.49646
3.49675
3.49693
3.49717
3.4973
3.49747
3.49753
3.49754
3.49738
3.49682
3.49564
3.49232
3.48688
3.48165
3.47111
3.46085
3.44149
3.43422
3.43221
3.43171
3.43159
3.16077
3.20743
3.23749
3.2713
3.29101
3.31353
3.3272
3.34367
3.35376
3.36593
3.37305
3.38122
3.38697
3.39524
3.40094
3.40876
3.41402
3.42106
3.42573
3.43192
3.43601
3.4414
3.44495
3.44963
3.45273
3.45682
3.45957
3.46334
3.46621
3.47075
3.47499
3.47727
3.47972
3.48122
3.48308
3.48426
3.48578
3.48676
3.48803
3.48885
3.48991
3.4906
3.49149
3.49206
3.4928
3.49328
3.49389
3.49427
3.49474
3.49501
3.49534
3.49556
3.49589
3.49611
3.49642
3.49663
3.4969
3.49708
3.49732
3.49748
3.49768
3.49781
3.49797
3.49807
3.49819
3.49824
3.49824
3.49812
3.49771
3.49683
3.49446
3.49063
3.48676
3.47936
3.47181
3.45852
3.45317
3.45163
3.45123
3.45114
3.29718
3.32423
3.34254
3.36257
3.37464
3.38799
3.39636
3.40611
3.41228
3.41948
3.42384
3.42869
3.43222
3.43711
3.44059
3.44522
3.44844
3.4526
3.45546
3.45912
3.46162
3.46481
3.46699
3.46976
3.47165
3.47407
3.47576
3.47799
3.47975
3.48245
3.48496
3.48637
3.48782
3.48874
3.48984
3.49056
3.49146
3.49206
3.49281
3.49331
3.49394
3.49436
3.49489
3.49524
3.49568
3.49597
3.49633
3.49656
3.49684
3.49701
3.4972
3.49734
3.49753
3.49767
3.49785
3.49798
3.49814
3.49825
3.49839
3.49849
3.49861
3.49869
3.49878
3.49884
3.49891
3.49894
3.49894
3.49887
3.49862
3.49807
3.49665
3.49437
3.492
3.48761
3.483
3.47523
3.47196
3.471
3.47074
3.47069
3.43251
3.44137
3.44752
3.45415
3.45822
3.46264
3.46546
3.46869
3.47077
3.47315
3.47462
3.47623
3.47741
3.47903
3.4802
3.48173
3.48282
3.48419
3.48516
3.48637
3.48721
3.48827
3.489
3.48992
3.49055
3.49135
3.49192
3.49266
3.49325
3.49415
3.49498
3.49546
3.49594
3.49625
3.49661
3.49685
3.49715
3.49735
3.4976
3.49777
3.49798
3.49812
3.4983
3.49841
3.49856
3.49866
3.49878
3.49885
3.49895
3.499
3.49907
3.49911
3.49918
3.49922
3.49928
3.49933
3.49938
3.49942
3.49946
3.4995
3.49954
3.49956
3.49959
3.49962
3.49964
3.49965
3.49965
3.49962
3.49954
3.49935
3.49888
3.49812
3.49732
3.49587
3.49432
3.49176
3.49066
3.49033
3.49025
3.49023
3.43232
3.44061
3.44592
3.45092
3.45364
3.45613
3.45751
3.45884
3.45959
3.46032
3.46083
3.46149
3.46196
3.46257
3.463
3.46355
3.46394
3.46443
3.46478
3.46521
3.46552
3.46591
3.46619
3.46653
3.46677
3.46707
3.46729
3.46757
3.46779
3.46812
3.46843
3.4686
3.46877
3.46888
3.46901
3.46909
3.46919
3.46926
3.46934
3.4694
3.46946
3.46951
3.46956
3.4696
3.46964
3.46967
3.46971
3.46973
3.46976
3.46977
3.46979
3.4698
3.46981
3.46982
3.46984
3.46984
3.46985
3.46985
3.46985
3.46984
3.46982
3.46981
3.46977
3.46974
3.46968
3.4696
3.46947
3.46931
3.46899
3.46852
3.46747
3.466
3.46468
3.46251
3.46042
3.45713
3.45573
3.45531
3.4552
3.45517
3.29662
3.32194
3.33777
3.35286
3.36094
3.36842
3.37253
3.37655
3.37877
3.38097
3.38248
3.38448
3.38589
3.38772
3.389
3.39066
3.39181
3.39329
3.39432
3.39565
3.39657
3.39774
3.39855
3.39959
3.40031
3.40122
3.40186
3.4027
3.40336
3.40437
3.4053
3.40581
3.40633
3.40665
3.40703
3.40728
3.40758
3.40778
3.40802
3.40819
3.40839
3.40852
3.40869
3.40879
3.40893
3.40902
3.40912
3.40919
3.40927
3.40931
3.40936
3.4094
3.40944
3.40947
3.40951
3.40952
3.40954
3.40954
3.40954
3.40952
3.40947
3.40942
3.40933
3.40922
3.40903
3.40882
3.40842
3.40795
3.40699
3.40559
3.40241
3.39801
3.39409
3.38753
3.3813
3.37133
3.36715
3.36591
3.36559
3.36552
3.15991
3.20365
3.22965
3.25508
3.26825
3.28085
3.28756
3.29434
3.29796
3.30165
3.30411
3.3075
3.30979
3.3129
3.31499
3.31779
3.31966
3.32218
3.32386
3.3261
3.3276
3.32959
3.33091
3.33267
3.33383
3.33538
3.33642
3.33785
3.33893
3.34062
3.34218
3.34301
3.34389
3.34442
3.34506
3.34546
3.34597
3.3463
3.34671
3.34698
3.34732
3.34753
3.34781
3.34799
3.34821
3.34836
3.34854
3.34865
3.34878
3.34886
3.34894
3.349
3.34907
3.34912
3.34918
3.34921
3.34923
3.34924
3.34923
3.3492
3.34912
3.34904
3.34888
3.3487
3.34838
3.34803
3.34737
3.34661
3.345
3.34272
3.33741
3.32999
3.32359
3.31254
3.30232
3.28528
3.27845
3.27648
3.27598
3.27586
3.02144
3.08607
3.12155
3.1578
3.1756
3.19351
3.20258
3.21224
3.21714
3.22238
3.2257
3.23055
3.23366
3.23811
3.24094
3.24495
3.24749
3.25109
3.25337
3.25658
3.25861
3.26146
3.26325
3.26577
3.26735
3.26956
3.27097
3.273
3.27446
3.27688
3.2791
3.28022
3.28146
3.28218
3.28309
3.28364
3.28437
3.28481
3.2854
3.28576
3.28625
3.28654
3.28694
3.28718
3.28751
3.2877
3.28795
3.2881
3.28829
3.2884
3.28852
3.28859
3.2887
3.28877
3.28885
3.28889
3.28893
3.28894
3.28892
3.28888
3.28877
3.28866
3.28843
3.28819
3.28773
3.28727
3.28632
3.28529
3.28303
3.27998
3.27249
3.26194
3.25329
3.23751
3.22363
3.19884
3.18956
3.18699
3.18635
3.1862
2.8804
2.96966
3.01343
3.06124
3.08293
3.10653
3.11758
3.13034
3.1363
3.14318
3.14724
3.15368
3.15748
3.16339
3.16685
3.17218
3.17528
3.18006
3.18284
3.18711
3.18959
3.19338
3.19557
3.1989
3.20083
3.20377
3.2055
3.20819
3.20996
3.21314
3.21605
3.21742
3.21906
3.21993
3.22114
3.22181
3.22278
3.22332
3.2241
3.22454
3.22519
3.22555
3.22608
3.22637
3.2268
3.22704
3.22738
3.22756
3.22781
3.22794
3.2281
3.22819
3.22834
3.22841
3.22852
3.22857
3.22863
3.22863
3.22861
3.22856
3.22842
3.22829
3.22798
3.22769
3.22708
3.22652
3.22528
3.22403
3.2211
3.21742
3.2077
3.19381
3.18327
3.16241
3.14537
3.11177
3.1004
3.09742
3.0967
3.09654
2.73578
2.85506
2.90513
2.96574
2.99019
3.02005
3.03251
3.04871
3.05543
3.06409
3.06867
3.07691
3.08122
3.08877
3.09268
3.09949
3.103
3.10911
3.11226
3.11771
3.12051
3.12535
3.12783
3.1321
3.13428
3.13803
3.13998
3.1434
3.1454
3.14941
3.15307
3.15461
3.15668
3.15767
3.15921
3.15997
3.1612
3.16181
3.16282
3.16332
3.16414
3.16455
3.16522
3.16556
3.1661
3.16637
3.16681
3.16701
3.16733
3.16748
3.16768
3.16778
3.16797
3.16806
3.1682
3.16826
3.16832
3.16833
3.1683
3.16825
3.16807
3.16792
3.16753
3.16721
3.16643
3.1658
3.16423
3.16284
3.1592
3.15509
3.14307
3.12554
3.11366
3.08716
3.06777
3.02381
3.0109
3.00777
3.00703
3.00686
2.58639
2.74324
2.79642
2.87167
2.89723
2.93426
2.94729
2.96746
2.97449
2.98517
2.98996
3.0003
3.00482
3.01429
3.0184
3.02693
3.03062
3.03828
3.04158
3.04842
3.05136
3.05742
3.06003
3.06537
3.06766
3.07236
3.07441
3.07868
3.08076
3.0857
3.09018
3.09177
3.09435
3.09538
3.09732
3.09811
3.09966
3.1003
3.10155
3.10208
3.10311
3.10354
3.10438
3.10473
3.10542
3.1057
3.10624
3.10646
3.10686
3.10701
3.10726
3.10737
3.10761
3.1077
3.10788
3.10794
3.10802
3.10803
3.108
3.10794
3.10772
3.10756
3.10707
3.10674
3.10577
3.10511
3.10318
3.10174
3.09731
3.09309
3.07866
3.05705
3.04464
3.01162
2.99115
2.93461
2.92101
2.91801
2.91733
2.91718
2.43072
2.63555
2.68683
2.7796
2.80381
2.84943
2.86178
2.88673
2.89339
2.90648
2.91103
2.92392
2.92823
2.94003
2.94394
2.95457
2.95808
2.96761
2.97076
2.97928
2.98208
2.98963
2.99211
2.99877
3.00095
3.0068
3.00874
3.01404
3.01601
3.02201
3.0274
3.0289
3.03208
3.03306
3.03546
3.03622
3.03814
3.03875
3.04032
3.04082
3.0421
3.04251
3.04356
3.04389
3.04475
3.04502
3.04569
3.0459
3.0464
3.04655
3.04685
3.04696
3.04725
3.04734
3.04756
3.04762
3.04773
3.04774
3.04769
3.04764
3.04737
3.04722
3.04661
3.0463
3.0451
3.04448
3.04211
3.04075
3.03542
3.03149
3.01454
2.98819
2.97644
2.93558
2.91597
2.84369
2.8307
2.82817
2.82762
2.8275
2.26686
2.53401
2.57557
2.69026
2.70954
2.76594
2.77577
2.80674
2.81204
2.82814
2.83176
2.84789
2.85133
2.86608
2.86921
2.88249
2.8853
2.89721
2.89973
2.91037
2.91261
2.92205
2.92403
2.93234
2.93409
2.94139
2.94295
2.94953
2.95109
2.95834
2.96477
2.96596
2.9699
2.97068
2.97368
2.97428
2.97668
2.97717
2.97913
2.97952
2.98113
2.98145
2.98277
2.98303
2.9841
2.98432
2.98516
2.98533
2.98596
2.98607
2.98645
2.98654
2.98691
2.98698
2.98725
2.9873
2.98743
2.98744
2.98739
2.98734
2.98701
2.98689
2.98614
2.98589
2.98441
2.98391
2.981
2.97993
2.97347
2.97041
2.95079
2.91874
2.9094
2.85869
2.84291
2.7504
2.73997
2.73824
2.73788
2.73781
2.09231
2.44149
2.46138
2.60474
2.61378
2.6843
2.68891
2.72777
2.73025
2.75029
2.75199
2.77236
2.77398
2.7926
2.79407
2.81083
2.81215
2.82718
2.82837
2.84179
2.84285
2.85476
2.85569
2.86618
2.867
2.87622
2.87695
2.88522
2.88595
2.8947
2.90236
2.90291
2.90785
2.90821
2.91199
2.91227
2.9153
2.91553
2.918
2.91818
2.92021
2.92036
2.92202
2.92214
2.92349
2.92359
2.92466
2.92474
2.92553
2.92559
2.92606
2.9261
2.92657
2.9266
2.92695
2.92697
2.92715
2.92715
2.92708
2.92706
2.92665
2.92659
2.92565
2.92553
2.92368
2.92345
2.91982
2.91932
2.91139
2.91
2.88754
2.84839
2.84402
2.7804
2.77291
2.65383
2.64889
2.64826
2.64814
2.64811
)
;

boundaryField
{
    F1_1
    {
        type            fixedValue;
        value           nonuniform List<scalar> 
80
(
1.99828
2.40231
2.40231
2.56574
2.56574
2.64711
2.64711
2.69408
2.69408
2.72376
2.72376
2.74083
2.74083
2.75954
2.75954
2.77741
2.77741
2.79387
2.79387
2.80878
2.80878
2.8221
2.8221
2.83388
2.83388
2.84426
2.84426
2.85358
2.85358
2.86317
2.87149
2.87149
2.87706
2.87706
2.88133
2.88133
2.88476
2.88476
2.88755
2.88755
2.88984
2.88984
2.89172
2.89172
2.89325
2.89325
2.89446
2.89446
2.89536
2.89536
2.8959
2.8959
2.89643
2.89643
2.89682
2.89682
2.89702
2.89702
2.89694
2.89694
2.89647
2.89647
2.89539
2.89539
2.89329
2.89329
2.88917
2.88917
2.88022
2.88022
2.85626
2.81252
2.81252
2.74014
2.74014
2.60327
2.60327
2.60327
2.60327
2.60327
)
;
    }
    F1_2
    {
        type            fixedValue;
        value           nonuniform List<scalar> 
80
(
1.99304
2.41691
2.41691
2.64048
2.64048
2.78976
2.78976
2.90078
2.90078
2.98389
2.98389
3.03578
3.03578
3.09293
3.09293
3.14662
3.14662
3.19471
3.19471
3.23693
3.23693
3.27366
3.27366
3.30551
3.30551
3.33323
3.33323
3.35811
3.35811
3.38395
3.40682
3.40682
3.42263
3.42263
3.43511
3.43511
3.4454
3.4454
3.45401
3.45401
3.46123
3.46123
3.46729
3.46729
3.47235
3.47235
3.47649
3.47649
3.47972
3.47972
3.48177
3.48177
3.48403
3.48403
3.48614
3.48614
3.48802
3.48802
3.48964
3.48964
3.49103
3.49103
3.49217
3.49217
3.493
3.493
3.49323
3.49323
3.49156
3.49156
3.48233
3.45988
3.45988
3.41234
3.41234
3.30441
3.30441
3.30441
3.30441
3.30441
)
;
    }
    F1_3
    {
        type            fixedValue;
        value           nonuniform List<scalar> 
80
(
1.99303
2.4169
2.4169
2.64048
2.64048
2.78975
2.78975
2.90078
2.90078
2.98388
2.98388
3.03577
3.03577
3.09293
3.09293
3.14662
3.14662
3.1947
3.1947
3.23692
3.23692
3.27365
3.27365
3.3055
3.3055
3.33323
3.33323
3.3581
3.3581
3.38395
3.40681
3.40681
3.42263
3.42263
3.43511
3.43511
3.4454
3.4454
3.45401
3.45401
3.46123
3.46123
3.46729
3.46729
3.47234
3.47234
3.47649
3.47649
3.47972
3.47972
3.48177
3.48177
3.48403
3.48403
3.48614
3.48614
3.48802
3.48802
3.48964
3.48964
3.49102
3.49102
3.49217
3.49217
3.493
3.493
3.49323
3.49323
3.49156
3.49156
3.48233
3.45988
3.45988
3.41235
3.41235
3.30443
3.30443
3.30443
3.30443
3.30443
)
;
    }
    F1_4
    {
        type            fixedValue;
        value           nonuniform List<scalar> 
80
(
1.99804
2.40181
2.40181
2.56466
2.56466
2.64479
2.64479
2.689
2.689
2.71173
2.71173
2.73497
2.73497
2.75619
2.75619
2.7753
2.7753
2.79244
2.79244
2.80775
2.80775
2.82133
2.82133
2.83329
2.83329
2.84379
2.84379
2.85322
2.85322
2.8629
2.87129
2.87129
2.87691
2.87691
2.88121
2.88121
2.88466
2.88466
2.88748
2.88748
2.88978
2.88978
2.89167
2.89167
2.89321
2.89321
2.89443
2.89443
2.89534
2.89534
2.89588
2.89588
2.89641
2.89641
2.89681
2.89681
2.897
2.897
2.89693
2.89693
2.89646
2.89646
2.89538
2.89538
2.89328
2.89328
2.88916
2.88916
2.88022
2.88022
2.85625
2.81252
2.81252
2.74014
2.74014
2.60326
2.60326
2.60326
2.60326
2.60326
)
;
    }
    F2_1
    {
        type            fixedValue;
        value           uniform 3.5;
    }
    F2_2
    {
        type            fixedValue;
        value           uniform 3.5;
    }
    F2_3
    {
        type            fixedValue;
        value           uniform 3.5;
    }
    F2_4
    {
        type            fixedValue;
        value           uniform 3.5;
    }
    defaultFaces
    {
        type            empty;
    }
}


// ************************************************************************* //
