/*--------------------------------*- C++ -*----------------------------------*\
| =========                 |                                                 |
| \\      /  F ield         | OpenFOAM: The Open Source CFD Toolbox           |
|  \\    /   O peration     | Version:  5.x                                   |
|   \\  /    A nd           | Web:      www.OpenFOAM.org                      |
|    \\/     M anipulation  |                                                 |
\*---------------------------------------------------------------------------*/
FoamFile
{
    version     2.0;
    format      ascii;
    class       volScalarField;
    location    "1";
    object      gradTy;
}
// * * * * * * * * * * * * * * * * * * * * * * * * * * * * * * * * * * * * * //

dimensions      [0 -1 0 1 0 0 0];

internalField   nonuniform List<scalar> 
3200
(
16.7674
8.14249
10.9023
7.89329
9.14626
7.69475
8.32654
7.51591
7.87546
7.37684
7.59109
7.3151
7.47959
7.15583
7.32766
7.00413
7.17363
6.85969
7.02181
6.72604
6.87596
6.6077
6.74093
6.508
6.62147
6.42807
6.52165
6.36591
6.4475
6.33162
6.26024
6.30645
6.25366
6.27736
6.24515
6.25931
6.23938
6.24808
6.23578
6.24111
6.23363
6.23684
6.23239
6.23426
6.23176
6.23275
6.23157
6.23196
6.23171
6.23168
6.23202
6.23156
6.23288
6.23177
6.23452
6.23241
6.23737
6.23368
6.24225
6.23588
6.25058
6.23957
6.265
6.24545
6.29062
6.25382
6.33862
6.25989
6.4353
6.21132
6.50503
7.32942
6.63486
8.17805
6.99957
10.1432
9.3656
9.24667
9.22213
9.21681
15.6548
9.14325
10.5526
8.30239
8.97451
7.8908
8.22941
7.62365
7.81548
7.44254
7.55706
7.35112
7.43884
7.19632
7.28712
7.04476
7.13437
6.8992
6.9849
6.76334
6.84259
6.64164
6.71207
6.53761
6.59762
6.4528
6.50239
6.3859
6.42988
6.3368
6.27494
6.3006
6.26126
6.27396
6.24989
6.25742
6.24252
6.24714
6.23795
6.24078
6.23518
6.23689
6.23356
6.23456
6.23269
6.23322
6.23233
6.23254
6.23235
6.23234
6.23259
6.23234
6.23334
6.23274
6.2348
6.23368
6.23738
6.23541
6.24182
6.23843
6.24943
6.24355
6.26256
6.2521
6.28585
6.26604
6.32925
6.28615
6.41602
6.28787
6.56491
7.21356
6.83953
7.99393
7.38099
9.74701
9.33988
9.24353
9.22199
9.21724
14.8027
9.82724
10.3493
8.59465
8.87304
8.02999
8.17009
7.69949
7.7781
7.48875
7.53586
7.37539
7.4113
7.22348
7.25991
7.07211
7.1081
6.92587
6.96029
6.78861
6.82044
6.66474
6.69302
6.55785
6.58197
6.46975
6.48977
6.39944
6.41772
6.3407
6.28607
6.29728
6.26671
6.27197
6.2533
6.25636
6.24481
6.24669
6.23956
6.24071
6.23637
6.23706
6.23448
6.23488
6.23344
6.23365
6.23297
6.23305
6.23291
6.2329
6.2331
6.233
6.23377
6.23353
6.23512
6.23466
6.23754
6.23674
6.24171
6.24033
6.24886
6.24645
6.26122
6.25691
6.28313
6.27487
6.32406
6.30542
6.40698
6.34814
6.60983
7.13853
6.98298
7.88041
7.64317
9.46163
9.30164
9.2373
9.22109
9.2174
14.1498
10.2914
10.2372
8.80561
8.81646
8.12986
8.13521
7.75337
7.75545
7.52149
7.52296
7.3918
7.3927
7.24166
7.24167
7.09052
7.09057
6.94388
6.94393
6.80575
6.80579
6.68048
6.68051
6.57171
6.57176
6.4814
6.48156
6.40862
6.40936
6.34367
6.29454
6.29561
6.27068
6.27089
6.25578
6.25584
6.24651
6.24654
6.24078
6.2408
6.2373
6.23731
6.23523
6.23523
6.23406
6.23407
6.23351
6.23352
6.2334
6.2334
6.23356
6.23356
6.23418
6.23418
6.23547
6.23546
6.23778
6.23777
6.24179
6.24176
6.24867
6.24861
6.26058
6.26044
6.28174
6.28134
6.32152
6.31981
6.4043
6.39553
6.64403
7.09081
7.08426
7.81223
7.82306
9.25532
9.25952
9.22909
9.21963
9.21734
13.6513
10.6034
10.1802
8.9589
8.78782
8.20208
8.11585
7.7919
7.74225
7.54482
7.51537
7.40293
7.38018
7.2538
7.22947
7.10288
7.0789
6.95603
6.9331
6.81737
6.79616
6.69121
6.67236
6.58121
6.56518
6.48942
6.47626
6.41485
6.40364
6.34595
6.30096
6.29493
6.27361
6.27038
6.25762
6.25565
6.24779
6.24657
6.24172
6.24098
6.23803
6.23758
6.23583
6.23557
6.23458
6.23445
6.23398
6.23393
6.23383
6.23383
6.23397
6.23403
6.23456
6.23472
6.23581
6.2361
6.23807
6.23858
6.24198
6.24286
6.24871
6.25023
6.26037
6.26305
6.28116
6.28613
6.3206
6.33071
6.4053
6.43258
6.67023
7.06117
7.1561
7.77268
7.94604
9.10608
9.21872
9.21999
9.21781
9.21713
13.2749
10.8105
10.1551
9.07023
8.7758
8.25434
8.10601
7.81947
7.73496
7.56143
7.51109
7.41047
7.3718
7.26185
7.22137
7.11113
7.07119
6.96418
6.92599
6.82521
6.78989
6.6985
6.6671
6.58772
6.56098
6.49492
6.47289
6.41904
6.39977
6.34769
6.30578
6.29483
6.27576
6.2702
6.25897
6.25564
6.24874
6.24669
6.24244
6.24119
6.2386
6.23785
6.23631
6.23587
6.23501
6.23478
6.23437
6.23428
6.23419
6.23419
6.23432
6.23443
6.2349
6.23516
6.23612
6.23662
6.23835
6.23921
6.24221
6.24371
6.24886
6.25145
6.26039
6.26499
6.28105
6.28967
6.3206
6.33896
6.40813
6.46115
6.69025
7.04331
7.20701
7.75079
8.02949
8.99867
9.18231
9.21095
9.21587
9.21681
12.9971
10.9453
10.1473
9.14998
8.77289
8.29169
8.10172
7.83896
7.73125
7.57312
7.50883
7.41553
7.36627
7.26712
7.21605
7.11657
7.06617
6.96959
6.92138
6.83044
6.78586
6.70339
6.66377
6.59211
6.55836
6.49866
6.47078
6.42183
6.39718
6.349
6.30932
6.29502
6.27733
6.2702
6.25995
6.25572
6.24944
6.24685
6.24298
6.24139
6.23904
6.23808
6.23669
6.23613
6.23535
6.23505
6.23468
6.23456
6.23448
6.23449
6.23461
6.23475
6.23518
6.23551
6.23639
6.23701
6.23859
6.2397
6.24243
6.24434
6.24904
6.25234
6.26053
6.2664
6.28116
6.29226
6.32103
6.34512
6.41154
6.48261
6.70524
7.03297
7.24266
7.73944
8.08526
8.92261
9.15203
9.2028
9.21402
9.21647
12.8015
11.03
10.1476
9.20496
8.77419
8.31742
8.10037
7.85226
7.72956
7.58105
7.50773
7.41883
7.36274
7.27047
7.21266
7.12005
7.06299
6.97306
6.91849
6.83382
6.78336
6.70658
6.66173
6.59499
6.55677
6.50112
6.4695
6.42364
6.39552
6.34993
6.31181
6.29529
6.27843
6.27028
6.26063
6.25582
6.24994
6.24699
6.24337
6.24156
6.23936
6.23827
6.23696
6.23633
6.2356
6.23526
6.23491
6.23478
6.2347
6.23471
6.23483
6.23499
6.23539
6.23577
6.23659
6.23731
6.23879
6.24005
6.24262
6.24479
6.24921
6.25297
6.26069
6.26739
6.28136
6.29408
6.32159
6.34951
6.4147
6.49795
6.71597
7.02728
7.26676
7.73406
8.1213
8.87079
9.12883
9.19615
9.21245
9.21615
12.6768
11.0792
10.1503
9.23951
8.77656
8.33359
8.10027
7.86056
7.72891
7.58598
7.50726
7.42082
7.36065
7.27244
7.21067
7.12211
7.06113
6.97513
6.91681
6.83584
6.78192
6.70849
6.66056
6.59673
6.55587
6.5026
6.46878
6.42472
6.39453
6.35053
6.31339
6.29553
6.27912
6.27036
6.26107
6.25591
6.25025
6.2471
6.24362
6.24168
6.23957
6.2384
6.23715
6.23647
6.23576
6.2354
6.23507
6.23493
6.23485
6.23486
6.23497
6.23514
6.23553
6.23594
6.23673
6.2375
6.23893
6.24028
6.24275
6.24508
6.24934
6.25338
6.26082
6.26802
6.28154
6.29524
6.32206
6.35235
6.41707
6.50783
6.72289
7.02439
7.28167
7.73181
8.14278
8.83857
9.11319
9.19148
9.21131
9.21591
12.6161
11.1017
10.1524
9.25619
8.77818
8.3414
8.10045
7.86456
7.72872
7.58834
7.5071
7.42175
7.35968
7.27335
7.20975
7.12306
7.06027
6.97609
6.91604
6.83679
6.78126
6.70938
6.66003
6.59754
6.55547
6.50331
6.46846
6.42522
6.39407
6.35083
6.31416
6.29567
6.27946
6.27041
6.26128
6.25596
6.25041
6.24715
6.24374
6.24175
6.23967
6.23847
6.23724
6.23654
6.23585
6.23548
6.23515
6.235
6.23492
6.23494
6.23505
6.23522
6.23561
6.23603
6.2368
6.2376
6.239
6.24039
6.24282
6.24522
6.24941
6.25357
6.2609
6.26832
6.28164
6.2958
6.32233
6.35375
6.41833
6.51267
6.72629
7.02321
7.28881
7.73106
8.15279
8.82312
9.10532
9.18907
9.21072
9.21578
-11.0592
-9.50688
-8.45899
-7.33232
-6.65834
-5.92783
-5.47307
-4.95311
-4.62578
-4.25062
-4.02467
-3.77754
-3.59984
-3.35755
-3.18632
-2.96344
-2.81036
-2.61652
-2.48534
-2.3216
-2.2118
-2.07604
-1.98561
-1.87461
-1.80103
-1.71106
-1.651
-1.57627
-1.52154
-1.44402
-1.37665
-1.34168
-1.30943
-1.29072
-1.2708
-1.25875
-1.24551
-1.23747
-1.22861
-1.22326
-1.2174
-1.21389
-1.21009
-1.20783
-1.20541
-1.20399
-1.2025
-1.20164
-1.20076
-1.20028
-1.19983
-1.19955
-1.19922
-1.19902
-1.1988
-1.19868
-1.19855
-1.19849
-1.19845
-1.19847
-1.19857
-1.19876
-1.19923
-1.19996
-1.20167
-1.20438
-1.21074
-1.22139
-1.24768
-1.29647
-1.41807
-1.60661
-1.79859
-2.14678
-2.50765
-3.10863
-3.36266
-3.43813
-3.45763
-3.46218
-11.1214
-9.48684
-8.46227
-7.3143
-6.66067
-5.91685
-5.47572
-4.94542
-4.6277
-4.24465
-4.0255
-3.77474
-3.60239
-3.35467
-3.18833
-2.96058
-2.81192
-2.61393
-2.48655
-2.31934
-2.21273
-2.0741
-1.9863
-1.87297
-1.80152
-1.70969
-1.65141
-1.57528
-1.52224
-1.4434
-1.37511
-1.34132
-1.30863
-1.2905
-1.27021
-1.25853
-1.24503
-1.23722
-1.22818
-1.22299
-1.21701
-1.2136
-1.20973
-1.20753
-1.20507
-1.20369
-1.20217
-1.20133
-1.20044
-1.19997
-1.19951
-1.19924
-1.19891
-1.19871
-1.19849
-1.19837
-1.19824
-1.19818
-1.19814
-1.19816
-1.19826
-1.19844
-1.19891
-1.19962
-1.20133
-1.20392
-1.21026
-1.22046
-1.24647
-1.29325
-1.41508
-1.60615
-1.79203
-2.14595
-2.49771
-3.12216
-3.36945
-3.44002
-3.45788
-3.46201
-11.2493
-9.44253
-8.47061
-7.27661
-6.6667
-5.89382
-5.48198
-4.92926
-4.63225
-4.23211
-4.02759
-3.76878
-3.60793
-3.34849
-3.19276
-2.9545
-2.81538
-2.60843
-2.48926
-2.31455
-2.21482
-2.06999
-1.98787
-1.86949
-1.80268
-1.70681
-1.65234
-1.57317
-1.52378
-1.44212
-1.37196
-1.34067
-1.30699
-1.29011
-1.26901
-1.25809
-1.24403
-1.23673
-1.22731
-1.22245
-1.21623
-1.21304
-1.209
-1.20695
-1.20438
-1.20309
-1.20151
-1.20073
-1.19979
-1.19936
-1.19889
-1.19863
-1.19828
-1.1981
-1.19787
-1.19775
-1.19762
-1.19756
-1.19752
-1.19754
-1.19763
-1.1978
-1.19827
-1.19892
-1.20064
-1.20301
-1.20932
-1.21859
-1.24412
-1.28672
-1.40901
-1.60559
-1.77842
-2.14487
-2.47653
-3.15043
-3.38296
-3.44366
-3.45832
-3.46165
-11.4495
-9.36496
-8.48796
-7.21564
-6.67931
-5.8564
-5.49391
-4.90289
-4.64093
-4.21175
-4.03184
-3.75888
-3.61739
-3.33811
-3.20043
-2.94439
-2.82149
-2.59933
-2.4941
-2.30665
-2.21859
-2.06325
-1.99075
-1.86381
-1.80483
-1.7021
-1.65409
-1.56967
-1.5264
-1.44017
-1.36701
-1.33987
-1.30442
-1.28962
-1.26713
-1.25751
-1.24247
-1.23604
-1.22597
-1.22168
-1.21502
-1.21221
-1.20789
-1.20608
-1.20334
-1.2022
-1.20051
-1.19982
-1.19882
-1.19844
-1.19794
-1.19772
-1.19734
-1.19718
-1.19693
-1.19683
-1.19669
-1.19664
-1.19659
-1.1966
-1.1967
-1.19684
-1.19732
-1.19788
-1.19961
-1.20163
-1.20795
-1.21575
-1.24078
-1.27668
-1.39965
-1.60566
-1.75674
-2.14486
-2.44132
-3.19601
-3.40299
-3.44878
-3.45887
-3.46108
-11.7334
-9.23923
-8.52125
-7.12532
-6.70347
-5.80061
-5.51502
-4.86337
-4.65632
-4.18142
-4.0398
-3.7437
-3.63232
-3.32203
-3.21279
-2.92889
-2.83149
-2.58548
-2.50213
-2.29467
-2.22495
-2.05307
-1.99568
-1.85525
-1.80858
-1.69503
-1.65712
-1.56433
-1.53053
-1.43747
-1.35999
-1.33916
-1.30077
-1.28918
-1.26446
-1.25688
-1.2403
-1.23522
-1.22411
-1.22072
-1.21337
-1.21115
-1.20639
-1.20496
-1.20193
-1.20104
-1.19917
-1.19862
-1.19753
-1.19722
-1.19669
-1.19651
-1.19609
-1.19596
-1.19569
-1.19561
-1.19545
-1.19541
-1.19535
-1.19536
-1.19546
-1.19557
-1.19606
-1.19648
-1.19827
-1.19978
-1.20621
-1.21192
-1.2367
-1.26286
-1.38666
-1.60761
-1.72526
-2.14819
-2.38746
-3.26315
-3.42912
-3.45499
-3.4594
-3.46026
-12.1172
-9.04257
-8.58177
-6.99613
-6.74694
-5.72018
-5.55082
-4.80608
-4.68243
-4.13774
-4.05392
-3.72111
-3.65519
-3.29787
-3.23209
-2.90587
-2.84737
-2.56503
-2.51504
-2.27707
-2.23529
-2.03818
-2.00379
-1.8428
-1.81486
-1.68476
-1.66216
-1.55644
-1.53685
-1.43393
-1.35046
-1.33891
-1.29579
-1.28901
-1.26085
-1.25634
-1.23739
-1.23436
-1.22166
-1.21963
-1.21124
-1.20991
-1.20446
-1.20361
-1.20015
-1.19962
-1.19748
-1.19716
-1.1959
-1.19573
-1.19512
-1.19502
-1.19454
-1.19446
-1.19414
-1.19409
-1.19391
-1.19388
-1.19382
-1.19382
-1.19392
-1.19398
-1.19451
-1.19473
-1.19664
-1.19743
-1.20421
-1.20704
-1.23226
-1.24484
-1.36949
-1.61339
-1.68127
-2.15855
-2.30782
-3.35834
-3.46051
-3.46171
-3.45973
-3.45914
-12.6242
-8.74148
-8.68741
-6.81354
-6.82159
-5.6055
-5.60967
-4.72397
-4.7254
-4.07562
-4.078
-3.68781
-3.68968
-3.26201
-3.26177
-2.87208
-2.87215
-2.53521
-2.5354
-2.25153
-2.25173
-2.01666
-2.01686
-1.82489
-1.82508
-1.67003
-1.67038
-1.54493
-1.54631
-1.42941
-1.33784
-1.3397
-1.28913
-1.28947
-1.25604
-1.25613
-1.2336
-1.23363
-1.21852
-1.21854
-1.20855
-1.20856
-1.20208
-1.20209
-1.19798
-1.19799
-1.19545
-1.19545
-1.19396
-1.19397
-1.19326
-1.19326
-1.19268
-1.19268
-1.1923
-1.1923
-1.19208
-1.19208
-1.192
-1.192
-1.19211
-1.1921
-1.19269
-1.19264
-1.19478
-1.19456
-1.20209
-1.20098
-1.22806
-1.22205
-1.34726
-1.62593
-1.62062
-2.18173
-2.19182
-3.49115
-3.49562
-3.46824
-3.4597
-3.45767
-13.2867
-8.28735
-8.86595
-6.55575
-6.94527
-5.44203
-5.70415
-4.60638
-4.79442
-3.98741
-4.11777
-3.63882
-3.74134
-3.209
-3.30698
-2.82264
-2.91035
-2.49182
-2.56704
-2.21452
-2.2775
-1.98562
-2.03749
-1.79916
-1.84138
-1.64894
-1.68348
-1.52818
-1.56035
-1.4237
-1.32127
-1.34238
-1.28021
-1.29105
-1.24966
-1.25659
-1.22866
-1.23328
-1.21453
-1.21761
-1.20521
-1.20723
-1.1992
-1.20049
-1.1954
-1.19621
-1.19306
-1.19356
-1.1917
-1.19198
-1.19111
-1.19127
-1.19056
-1.19067
-1.1902
-1.19027
-1.19
-1.19003
-1.18993
-1.18991
-1.19005
-1.18993
-1.19064
-1.1902
-1.19276
-1.19113
-1.20006
-1.19353
-1.22491
-1.19376
-1.31864
-1.64956
-1.53704
-2.22668
-2.02399
-3.67545
-3.53171
-3.47372
-3.45913
-3.45581
-14.1493
-7.61018
-9.16013
-6.19
-7.14473
-5.20797
-5.85306
-4.43736
-4.90327
-3.86168
-4.18191
-3.56654
-3.81838
-3.13075
-3.37546
-2.75026
-2.96876
-2.42862
-2.61573
-2.16082
-2.31739
-1.94074
-2.06965
-1.76209
-1.86696
-1.61865
-1.70405
-1.50378
-1.581
-1.41645
-1.29958
-1.34822
-1.26817
-1.29454
-1.24116
-1.25826
-1.22222
-1.23366
-1.20946
-1.21709
-1.20109
-1.20609
-1.19572
-1.19894
-1.19236
-1.19438
-1.19032
-1.19154
-1.18915
-1.18983
-1.18871
-1.18911
-1.18818
-1.18846
-1.18785
-1.18803
-1.18768
-1.18777
-1.18763
-1.18761
-1.18778
-1.18752
-1.18842
-1.18743
-1.19069
-1.18706
-1.19842
-1.18436
-1.22406
-1.15901
-1.28156
-1.6907
-1.42116
-2.30708
-1.78177
-3.93131
-3.56412
-3.47722
-3.45785
-3.45356
-15.2738
-6.60962
-9.63528
-5.66735
-7.45995
-4.87068
-6.08447
-4.19309
-5.07243
-3.68147
-4.28347
-3.45954
-3.93298
-3.01515
-3.4787
-2.64406
-3.05744
-2.33623
-2.69001
-2.08253
-2.37848
-1.87547
-2.11912
-1.70834
-1.9065
-1.5748
-1.73585
-1.46806
-1.61111
-1.40705
-1.27097
-1.35894
-1.25159
-1.30093
-1.22952
-1.26175
-1.21355
-1.23515
-1.20279
-1.21719
-1.19579
-1.20524
-1.19136
-1.19744
-1.18863
-1.19245
-1.18701
-1.18932
-1.18612
-1.1874
-1.1859
-1.18665
-1.1854
-1.18594
-1.18513
-1.18547
-1.18499
-1.18516
-1.18498
-1.18495
-1.18517
-1.18471
-1.18593
-1.18413
-1.18854
-1.18204
-1.19746
-1.17268
-1.22704
-1.11641
-1.23266
-1.75863
-1.2587
-2.44356
-1.43218
-4.28742
-3.58492
-3.47761
-3.45556
-3.4507
15.2738
6.60987
9.63543
5.66763
7.46015
4.87101
6.08473
4.19346
5.07275
3.68188
4.28384
3.45995
3.93337
3.01557
3.47911
2.64447
3.05786
2.33659
2.69041
2.08284
2.37884
1.87573
2.11943
1.70855
1.90675
1.57496
1.73605
1.46818
1.61127
1.40716
1.27103
1.35902
1.25163
1.30098
1.22955
1.26179
1.21357
1.23517
1.20281
1.2172
1.1958
1.20525
1.19137
1.19744
1.18863
1.19245
1.18701
1.18932
1.18612
1.1874
1.1859
1.18664
1.1854
1.18594
1.18512
1.18546
1.18499
1.18516
1.18498
1.18494
1.18517
1.1847
1.18592
1.18413
1.18853
1.18203
1.19744
1.17268
1.22699
1.11642
1.23258
1.75836
1.25856
2.44317
1.4319
4.28697
3.5845
3.47721
3.45512
3.45019
14.1494
7.61041
9.16029
6.19025
7.14494
5.20827
5.85333
4.43772
4.90359
3.86208
4.18229
3.56695
3.81878
3.13117
3.37589
2.75068
2.96918
2.429
2.61613
2.16116
2.31775
1.94102
2.06996
1.76232
1.86722
1.61884
1.70426
1.50394
1.58118
1.41659
1.29967
1.34833
1.26825
1.29463
1.24122
1.25833
1.22227
1.23372
1.20951
1.21714
1.20114
1.20614
1.19576
1.19898
1.1924
1.19442
1.19035
1.19158
1.18918
1.18986
1.18874
1.18914
1.18821
1.1885
1.18789
1.18806
1.18771
1.1878
1.18766
1.18764
1.18781
1.18755
1.18845
1.18746
1.19072
1.18709
1.19844
1.18438
1.22405
1.15904
1.28151
1.6905
1.42103
2.30676
1.7815
3.93092
3.56375
3.47686
3.4575
3.45309
13.2867
8.28754
8.8661
6.55597
6.94548
5.44231
5.70442
4.60672
4.79475
3.98779
4.11815
3.63922
3.74175
3.20942
3.30741
2.82305
2.91077
2.49221
2.56744
2.21487
2.27786
1.98592
2.0378
1.7994
1.84164
1.64915
1.68369
1.52835
1.56053
1.42384
1.32138
1.3425
1.2803
1.29115
1.24974
1.25668
1.22873
1.23336
1.2146
1.21768
1.20528
1.2073
1.19925
1.20055
1.19545
1.19627
1.19312
1.19361
1.19176
1.19204
1.19117
1.19133
1.19061
1.19072
1.19025
1.19032
1.19005
1.19008
1.18998
1.18997
1.1901
1.18998
1.19069
1.19025
1.19281
1.19118
1.20009
1.19358
1.22493
1.19379
1.3186
1.64939
1.53691
2.22639
2.02373
3.6751
3.53137
3.47338
3.45883
3.45544
12.6243
8.74166
8.68757
6.81376
6.82181
5.60577
5.60995
4.7243
4.72573
4.076
4.07838
3.68821
3.69009
3.26242
3.26218
2.87249
2.87256
2.53559
2.53578
2.25187
2.25208
2.01696
2.01715
1.82513
1.82532
1.67023
1.67058
1.54509
1.54647
1.42954
1.33793
1.3398
1.28921
1.28955
1.25611
1.25619
1.23365
1.23369
1.21857
1.21859
1.20859
1.20861
1.20212
1.20214
1.19802
1.19803
1.19549
1.19549
1.194
1.194
1.19329
1.1933
1.19272
1.19272
1.19234
1.19234
1.19212
1.19212
1.19203
1.19203
1.19214
1.19213
1.19272
1.19267
1.19481
1.19459
1.20211
1.201
1.22805
1.22205
1.3472
1.62576
1.62044
2.18144
2.19153
3.49078
3.49526
3.46788
3.45939
3.45732
12.1173
9.04274
8.58195
6.99634
6.74717
5.72046
5.55111
4.80641
4.68277
4.13811
4.0543
3.7215
3.65559
3.29828
3.2325
2.90628
2.84778
2.56541
2.51542
2.27741
2.23562
2.03847
2.00408
1.84304
1.81509
1.68495
1.66235
1.55659
1.53699
1.43405
1.35055
1.33899
1.29586
1.28908
1.2609
1.25639
1.23744
1.2344
1.22169
1.21967
1.21127
1.20994
1.20449
1.20363
1.20018
1.19964
1.1975
1.19718
1.19592
1.19574
1.19514
1.19503
1.19455
1.19447
1.19416
1.19411
1.19392
1.1939
1.19383
1.19384
1.19394
1.19399
1.19452
1.19474
1.19665
1.19744
1.20421
1.20704
1.23224
1.24481
1.3694
1.61321
1.68107
2.15825
2.3075
3.35796
3.46012
3.46133
3.4594
3.4588
11.7335
9.23939
8.52143
7.12555
6.70371
5.80089
5.51532
4.8637
4.65666
4.18179
4.04018
3.7441
3.63273
3.32245
3.2132
2.9293
2.83189
2.58586
2.5025
2.29501
2.22528
2.05336
1.99595
1.85549
1.80881
1.69522
1.6573
1.56448
1.53067
1.43758
1.36007
1.33923
1.30083
1.28924
1.26451
1.25692
1.24033
1.23525
1.22413
1.22074
1.21339
1.21117
1.2064
1.20497
1.20194
1.20105
1.19918
1.19863
1.19753
1.19723
1.19669
1.19652
1.1961
1.19597
1.19569
1.19561
1.19545
1.19541
1.19536
1.19536
1.19546
1.19557
1.19606
1.19648
1.19827
1.19977
1.2062
1.21191
1.23666
1.26282
1.38656
1.60743
1.72505
2.14788
2.38713
3.26276
3.42872
3.45459
3.45903
3.45992
11.4497
9.36512
8.48815
7.21587
6.67956
5.85668
5.49421
4.90322
4.64128
4.21213
4.03222
3.75928
3.61779
3.33853
3.20084
2.9448
2.82189
2.59972
2.49447
2.30699
2.21892
2.06354
1.99103
1.86405
1.80506
1.70229
1.65427
1.56982
1.52653
1.44028
1.3671
1.33995
1.30448
1.28968
1.26717
1.25755
1.2425
1.23607
1.22599
1.2217
1.21504
1.21223
1.2079
1.20609
1.20335
1.20221
1.20051
1.19982
1.19883
1.19844
1.19794
1.19772
1.19734
1.19718
1.19693
1.19683
1.19669
1.19664
1.19659
1.1966
1.1967
1.19684
1.19732
1.19787
1.1996
1.20162
1.20793
1.21573
1.24074
1.27663
1.39954
1.60547
1.75651
2.14456
2.44099
3.19562
3.40259
3.44838
3.45847
3.46073
11.2494
9.44268
8.47081
7.27684
6.66695
5.8941
5.48228
4.92959
4.6326
4.23249
4.02798
3.76918
3.60834
3.3489
3.19317
2.95491
2.81579
2.60882
2.48963
2.31489
2.21514
2.07029
1.98814
1.86974
1.8029
1.70701
1.65253
1.57332
1.52392
1.44224
1.37205
1.34075
1.30706
1.29017
1.26905
1.25813
1.24406
1.23676
1.22734
1.22247
1.21624
1.21305
1.20901
1.20696
1.20439
1.2031
1.20151
1.20073
1.1998
1.19936
1.19889
1.19864
1.19828
1.1981
1.19787
1.19776
1.19762
1.19757
1.19752
1.19754
1.19763
1.1978
1.19827
1.19892
1.20063
1.203
1.2093
1.21857
1.24408
1.28666
1.4089
1.60541
1.77819
2.14458
2.47619
3.15005
3.38256
3.44325
3.45789
3.46129
11.1216
9.48698
8.46248
7.31454
6.66093
5.91714
5.47603
4.94576
4.62805
4.24502
4.02589
3.77514
3.6028
3.35509
3.18875
2.961
2.81233
2.61432
2.48692
2.31969
2.21306
2.0744
1.98658
1.87322
1.80175
1.7099
1.65159
1.57544
1.52239
1.44351
1.37521
1.3414
1.3087
1.29056
1.27026
1.25857
1.24506
1.23725
1.22821
1.22301
1.21704
1.21362
1.20974
1.20755
1.20508
1.2037
1.20218
1.20134
1.20045
1.19998
1.19952
1.19925
1.19891
1.19872
1.1985
1.19838
1.19825
1.19819
1.19815
1.19816
1.19826
1.19845
1.19891
1.19962
1.20133
1.20392
1.21025
1.22045
1.24644
1.2932
1.41497
1.60598
1.7918
2.14566
2.49738
3.12179
3.36906
3.43962
3.45743
3.46163
11.0593
9.50701
8.4592
7.33255
6.65859
5.92812
5.47338
4.95344
4.62613
4.251
4.02506
3.77795
3.60025
3.35797
3.18674
2.96385
2.81077
2.61691
2.48572
2.32196
2.21214
2.07634
1.98589
1.87487
1.80126
1.71127
1.65119
1.57644
1.52169
1.44415
1.37675
1.34177
1.30951
1.29079
1.27085
1.2588
1.24556
1.23751
1.22865
1.22329
1.21743
1.21391
1.21011
1.20785
1.20543
1.20401
1.20251
1.20165
1.20077
1.20029
1.19984
1.19956
1.19923
1.19903
1.19881
1.19869
1.19856
1.1985
1.19846
1.19848
1.19858
1.19877
1.19924
1.19997
1.20168
1.20438
1.21074
1.22138
1.24765
1.29642
1.41797
1.60644
1.79838
2.1465
2.50733
3.10826
3.36228
3.43774
3.45716
3.46179
-12.6181
-11.1047
-10.1566
-9.26301
-8.78797
-8.35701
-8.12285
-7.9001
-7.77849
-7.66119
-7.58118
-7.47603
-7.40135
-7.30297
-7.23291
-7.1403
-7.07426
-6.98695
-6.92512
-6.84407
-6.78747
-6.71447
-6.66443
-6.60117
-6.55863
-6.50591
-6.4707
-6.42703
-6.39558
-6.35191
-6.31487
-6.29619
-6.27981
-6.27067
-6.26143
-6.25606
-6.25044
-6.24715
-6.24369
-6.24168
-6.23958
-6.23836
-6.23712
-6.23642
-6.23572
-6.23535
-6.23502
-6.23488
-6.2348
-6.23482
-6.23493
-6.23511
-6.2355
-6.23593
-6.23671
-6.23751
-6.23892
-6.24032
-6.24276
-6.24517
-6.24937
-6.25354
-6.26088
-6.26832
-6.28166
-6.29583
-6.32239
-6.35384
-6.41846
-6.51287
-6.72663
-7.02371
-7.28943
-7.73186
-8.15373
-8.82426
-9.10655
-9.19032
-9.21199
-9.21703
-12.6788
-11.0822
-10.1545
-9.24631
-8.78625
-8.34917
-8.12242
-7.89607
-7.77833
-7.65971
-7.58219
-7.47481
-7.4023
-7.30184
-7.23381
-7.13924
-7.07512
-6.98594
-6.92589
-6.84309
-6.78813
-6.71356
-6.66496
-6.60035
-6.55903
-6.5052
-6.47103
-6.42653
-6.39604
-6.35161
-6.31409
-6.29605
-6.27947
-6.27062
-6.26122
-6.25601
-6.25028
-6.24709
-6.24357
-6.24162
-6.23948
-6.2383
-6.23703
-6.23635
-6.23564
-6.23528
-6.23494
-6.2348
-6.23473
-6.23474
-6.23486
-6.23504
-6.23543
-6.23584
-6.23664
-6.23742
-6.23885
-6.24021
-6.24269
-6.24503
-6.2493
-6.25335
-6.26081
-6.26801
-6.28156
-6.29527
-6.32212
-6.35244
-6.4172
-6.50803
-6.72322
-7.02489
-7.28229
-7.73261
-8.14372
-8.83971
-9.11441
-9.19273
-9.21258
-9.21716
-12.8034
-11.0329
-10.1517
-9.21173
-8.78364
-8.33294
-8.12199
-7.88771
-7.77821
-7.65658
-7.5844
-7.47219
-7.40437
-7.29941
-7.23578
-7.13696
-7.07698
-6.98376
-6.92758
-6.84101
-6.78959
-6.71161
-6.66613
-6.59859
-6.55993
-6.5037
-6.47176
-6.42544
-6.39704
-6.351
-6.3125
-6.29581
-6.27877
-6.27054
-6.26078
-6.25592
-6.24997
-6.24698
-6.24332
-6.2415
-6.23927
-6.23817
-6.23685
-6.23621
-6.23547
-6.23514
-6.23479
-6.23466
-6.23458
-6.2346
-6.23472
-6.23488
-6.23529
-6.23567
-6.2365
-6.23722
-6.23872
-6.23998
-6.24256
-6.24474
-6.24918
-6.25294
-6.26068
-6.26738
-6.28138
-6.29411
-6.32165
-6.3496
-6.41484
-6.49815
-6.7163
-7.02778
-7.26737
-7.73486
-8.12223
-8.87195
-9.13006
-9.19741
-9.21371
-9.2174
-12.9989
-10.9482
-10.1513
-9.15673
-8.78198
-8.30714
-8.12252
-7.87437
-7.77859
-7.65148
-7.58822
-7.46781
-7.40792
-7.29532
-7.23915
-7.13313
-7.08017
-6.98011
-6.93049
-6.83753
-6.79211
-6.70836
-6.6682
-6.59567
-6.56154
-6.50121
-6.47305
-6.42362
-6.39873
-6.35006
-6.30999
-6.29554
-6.27767
-6.27046
-6.2601
-6.25582
-6.24947
-6.24684
-6.24294
-6.24133
-6.23895
-6.23798
-6.23657
-6.23601
-6.23522
-6.23493
-6.23456
-6.23444
-6.23436
-6.23437
-6.2345
-6.23464
-6.23508
-6.23541
-6.2363
-6.23693
-6.23852
-6.23963
-6.24238
-6.24429
-6.249
-6.25231
-6.26052
-6.26639
-6.28118
-6.29229
-6.3211
-6.3452
-6.41168
-6.4828
-6.70557
-7.03348
-7.24327
-7.74025
-8.08619
-8.92378
-9.15327
-9.20405
-9.21528
-9.21772
-13.2765
-10.8134
-10.1588
-9.07697
-8.78436
-8.26977
-8.12561
-7.85495
-7.78023
-7.64384
-7.59432
-7.461
-7.41358
-7.28898
-7.24451
-7.12718
-7.08524
-6.97444
-6.93514
-6.83216
-6.79617
-6.70338
-6.67156
-6.59122
-6.56419
-6.49744
-6.47518
-6.4208
-6.40134
-6.34875
-6.30642
-6.29536
-6.27609
-6.27047
-6.25911
-6.25574
-6.24876
-6.24669
-6.24239
-6.24112
-6.23851
-6.23775
-6.23619
-6.23575
-6.23489
-6.23465
-6.23425
-6.23415
-6.23407
-6.23408
-6.23421
-6.23432
-6.2348
-6.23506
-6.23603
-6.23653
-6.23827
-6.23914
-6.24215
-6.24365
-6.24882
-6.25141
-6.26038
-6.26498
-6.28106
-6.2897
-6.32066
-6.33904
-6.40826
-6.46132
-6.69057
-7.04383
-7.20761
-7.7516
-8.0304
-8.99986
-9.18356
-9.21221
-9.21712
-9.21806
-13.6527
-10.6063
-10.1835
-8.96569
-8.79565
-8.2176
-8.13378
-7.8277
-7.78435
-7.63272
-7.60378
-7.45075
-7.42233
-7.27943
-7.25279
-7.11821
-7.09307
-6.96592
-6.94234
-6.82411
-6.80251
-6.69596
-6.67686
-6.58463
-6.56842
-6.49187
-6.47859
-6.41657
-6.40526
-6.34699
-6.30155
-6.29546
-6.27391
-6.27065
-6.25774
-6.25575
-6.2478
-6.24657
-6.24167
-6.24091
-6.23793
-6.23748
-6.23571
-6.23544
-6.23446
-6.23432
-6.23385
-6.2338
-6.2337
-6.23371
-6.23386
-6.23392
-6.23446
-6.23462
-6.23572
-6.23601
-6.23799
-6.23851
-6.24192
-6.24281
-6.24867
-6.2502
-6.26035
-6.26304
-6.28118
-6.28615
-6.32066
-6.33078
-6.40543
-6.43273
-6.67054
-7.0617
-7.15667
-7.7735
-7.94693
-9.1073
-9.21997
-9.22124
-9.21906
-9.21837
-14.1509
-10.2943
-10.2401
-8.81253
-8.8233
-8.14568
-8.15086
-7.78995
-7.79281
-7.6167
-7.6182
-7.43552
-7.43565
-7.26524
-7.26539
-7.10487
-7.10499
-6.95326
-6.95333
-6.8122
-6.81225
-6.68506
-6.6851
-6.57501
-6.57507
-6.48377
-6.48394
-6.41029
-6.41103
-6.34469
-6.29507
-6.29615
-6.27096
-6.27116
-6.25589
-6.25595
-6.24651
-6.24654
-6.24072
-6.24073
-6.23719
-6.2372
-6.2351
-6.2351
-6.23393
-6.23393
-6.23338
-6.23339
-6.23327
-6.23327
-6.23344
-6.23344
-6.23408
-6.23407
-6.23537
-6.23536
-6.23771
-6.23769
-6.24173
-6.2417
-6.24863
-6.24857
-6.26056
-6.26042
-6.28175
-6.28135
-6.32158
-6.31987
-6.40443
-6.39566
-6.64433
-7.09136
-7.0848
-7.81308
-7.82391
-9.25658
-9.26078
-9.23035
-9.22087
-9.21858
-14.8035
-9.8303
-10.3517
-8.60187
-8.87852
-8.04647
-8.18261
-7.73766
-7.80843
-7.59358
-7.63999
-7.41298
-7.4558
-7.24421
-7.28441
-7.0851
-7.12298
-6.93453
-6.96998
-6.79465
-6.82708
-6.66906
-6.69774
-6.56098
-6.58537
-6.472
-6.49223
-6.40102
-6.41948
-6.3417
-6.28652
-6.29784
-6.26694
-6.27226
-6.25338
-6.25648
-6.24479
-6.24669
-6.23948
-6.24064
-6.23625
-6.23695
-6.23435
-6.23475
-6.2333
-6.23351
-6.23283
-6.23292
-6.23278
-6.23277
-6.23298
-6.23287
-6.23366
-6.23341
-6.23502
-6.23456
-6.23746
-6.23665
-6.24165
-6.24026
-6.24882
-6.2464
-6.2612
-6.25688
-6.28314
-6.27487
-6.32412
-6.30546
-6.40711
-6.34824
-6.61012
-7.1391
-6.98348
-7.88129
-7.64396
-9.46295
-9.30291
-9.23855
-9.22233
-9.21865
-15.6551
-9.14653
-10.5541
-8.31017
-8.97812
-7.90854
-8.23762
-7.66474
-7.83549
-7.56001
-7.67273
-7.37964
-7.48612
-7.21312
-7.31301
-7.05585
-7.15002
-6.90685
-6.99506
-6.76879
-6.84955
-6.6456
-6.71701
-6.5405
-6.60119
-6.45488
-6.50497
-6.38734
-6.43176
-6.33777
-6.27528
-6.3012
-6.26144
-6.27428
-6.24994
-6.25756
-6.24249
-6.24716
-6.23786
-6.24072
-6.23506
-6.23679
-6.23343
-6.23443
-6.23256
-6.23308
-6.2322
-6.23241
-6.23223
-6.23221
-6.23248
-6.23222
-6.23323
-6.23263
-6.23471
-6.23358
-6.23731
-6.23533
-6.24177
-6.23837
-6.24939
-6.2435
-6.26255
-6.25208
-6.28587
-6.26604
-6.32932
-6.28618
-6.41617
-6.28793
-6.56517
-7.21418
-6.83998
-7.99486
-7.38171
-9.74841
-9.34116
-9.24478
-9.22324
-9.21851
-16.7673
-8.14619
-10.9027
-7.90204
-9.14728
-7.71469
-8.32873
-7.56209
-7.88041
-7.51091
-7.7217
-7.33032
-7.53162
-7.16711
-7.35588
-7.01255
-7.19056
-6.86592
-7.03272
-6.73066
-6.8834
-6.61113
-6.7462
-6.51053
-6.62529
-6.42989
-6.52442
-6.36716
-6.44956
-6.33255
-6.26044
-6.30713
-6.25377
-6.27773
-6.24516
-6.25948
-6.23932
-6.24812
-6.23568
-6.24107
-6.2335
-6.23675
-6.23226
-6.23414
-6.23164
-6.23263
-6.23145
-6.23184
-6.2316
-6.23156
-6.23192
-6.23144
-6.23279
-6.23166
-6.23444
-6.23232
-6.23731
-6.2336
-6.2422
-6.23582
-6.25056
-6.23952
-6.265
-6.24542
-6.29066
-6.25381
-6.33871
-6.25991
-6.43548
-6.21134
-6.50529
-7.33011
-6.63524
-8.17907
-7.00019
-10.1448
-9.36689
-9.24793
-9.22339
-9.21809
)
;

boundaryField
{
    F1_1
    {
        type            calculated;
        value           nonuniform List<scalar> 
80
(
17.3978
7.54866
11.1222
7.65418
9.25352
7.57986
8.38655
7.45258
7.91228
7.33821
7.61198
7.29356
7.5039
7.1316
7.35191
6.97985
7.19714
6.83611
7.04394
6.7038
6.89601
6.58749
6.7583
6.4904
6.63586
6.41338
6.53327
6.35399
6.45792
6.32865
6.25187
6.31015
6.24922
6.27949
6.24238
6.2605
6.23755
6.24869
6.23453
6.24135
6.23273
6.23685
6.23173
6.23412
6.23125
6.23251
6.23115
6.23165
6.23136
6.23132
6.23172
6.23112
6.23265
6.23123
6.23439
6.2317
6.2374
6.23268
6.24255
6.23441
6.25134
6.23725
6.26655
6.24157
6.29363
6.24669
6.34457
6.24468
6.44807
6.16848
6.47073
7.39956
6.51437
8.29157
6.77357
10.3737
9.37398
9.24734
9.22199
9.21652
)
;
    }
    F1_2
    {
        type            calculated;
        value           nonuniform List<scalar> 
80
(
-15.9105
-6.0137
-9.92796
-5.35947
-7.65249
-4.67135
-6.225
-4.04857
-5.17517
-3.57521
-4.34557
-3.39564
-4.00149
-2.9462
-3.54072
-2.58087
-3.11085
-2.28132
-2.73482
-2.03605
-2.41539
-1.83676
-2.14905
-1.67649
-1.93045
-1.54882
-1.75512
-1.4468
-1.62893
-1.4017
-1.25467
-1.36576
-1.24192
-1.30497
-1.22275
-1.26402
-1.20854
-1.2362
-1.19896
-1.2174
-1.19277
-1.20487
-1.1889
-1.19668
-1.18654
-1.19143
-1.18517
-1.18813
-1.18444
-1.18608
-1.18435
-1.1853
-1.18387
-1.18457
-1.18363
-1.18406
-1.18352
-1.18373
-1.18353
-1.18349
-1.18375
-1.18316
-1.18458
-1.18231
-1.18743
-1.17923
-1.19716
-1.16608
-1.2297
-1.09293
-1.20473
-1.80065
-1.16367
-2.52891
-1.22565
-4.49476
-3.59115
-3.47686
-3.4541
-3.44906
)
;
    }
    F1_3
    {
        type            calculated;
        value           nonuniform List<scalar> 
80
(
15.9105
6.01397
9.9281
5.35975
7.65268
4.67168
6.22524
4.04896
5.17547
3.57562
4.34593
3.39605
4.00187
2.94662
3.54113
2.58128
3.11128
2.28168
2.73522
2.03635
2.41575
1.837
2.14936
1.67668
1.9307
1.54897
1.75532
1.44691
1.62909
1.4018
1.25471
1.36583
1.24195
1.30503
1.22276
1.26405
1.20854
1.23622
1.19896
1.21741
1.19277
1.20487
1.18889
1.19668
1.18653
1.19142
1.18516
1.18812
1.18443
1.18607
1.18434
1.18529
1.18386
1.18455
1.18361
1.18405
1.1835
1.18372
1.18351
1.18347
1.18373
1.18315
1.18456
1.18229
1.18741
1.17921
1.19713
1.16607
1.22964
1.09294
1.20465
1.80036
1.16354