/*--------------------------------*- C++ -*----------------------------------*\
| =========                 |                                                 |
| \\      /  F ield         | OpenFOAM: The Open Source CFD Toolbox           |
|  \\    /   O peration     | Version:  5.x                                   |
|   \\  /    A nd           | Web:      www.OpenFOAM.org                      |
|    \\/     M anipulation  |                                                 |
\*---------------------------------------------------------------------------*/
FoamFile
{
    version     2.0;
    format      ascii;
    class       volScalarField;
    location    "1";
    object      gradTx;
}
// * * * * * * * * * * * * * * * * * * * * * * * * * * * * * * * * * * * * * //

dimensions      [0 -1 0 1 0 0 0];

internalField   nonuniform List<scalar> 
3200
(
47.0107
3.32801
1.45514
1.35643
0.695264
0.655632
0.380214
0.362865
0.229859
0.220563
0.131829
0.128657
0.142643
0.143141
0.143314
0.143164
0.139272
0.138798
0.131335
0.130554
0.119297
0.118227
0.103808
0.10254
0.0864914
0.085213
0.0703182
0.0695202
0.062979
0.101493
0.0466247
0.025387
0.0239863
0.0148961
0.0142886
0.00914315
0.0087942
0.00563323
0.00541769
0.0034298
0.00329425
0.00204109
0.00195498
0.00114864
0.00109235
0.000551808
0.000513308
0.000131546
0.000104734
-0.000151584
-0.000179406
-0.000584599
-0.000626158
-0.00121384
-0.00127695
-0.00219414
-0.00229587
-0.00380239
-0.00397323
-0.00653299
-0.00683032
-0.0113343
-0.0118791
-0.0202643
-0.0213621
-0.0386958
-0.0413433
-0.0844227
-0.093408
-0.240569
-0.623146
-0.440816
-0.689379
-0.721019
-1.28015
-1.25424
-0.0563202
-0.00759977
-0.00154086
-52.4885
49.498
2.78256
1.39475
1.19209
0.662988
0.578383
0.357176
0.320077
0.213482
0.193718
0.123945
0.117166
0.126987
0.127955
0.128149
0.127834
0.124758
0.123754
0.117835
0.116179
0.10726
0.104992
0.0935778
0.0908932
0.0782069
0.0755071
0.0638251
0.0622249
0.0586556
0.0846463
0.043441
0.0243356
0.0212345
0.0138783
0.0125764
0.008472
0.00772941
0.00521574
0.00475778
0.00317834
0.00289045
0.00189483
0.00171195
0.00107144
0.000951929
0.000522749
0.000441049
0.000138308
8.12387e-05
-0.000124716
-0.000183952
-0.000505541
-0.000593831
-0.00106124
-0.00119543
-0.00192537
-0.00214176
-0.00334131
-0.00370486
-0.00574456
-0.00637781
-0.00997209
-0.0111344
-0.0178484
-0.0202008
-0.0341895
-0.0399274
-0.0754369
-0.0955022
-0.228888
-0.522634
-0.419214
-0.608853
-0.673998
-1.09533
-1.04107
-0.122993
-0.0210928
-0.00443094
-54.3325
51.9703
2.30758
1.28697
1.04081
0.612946
0.506611
0.326784
0.280079
0.193638
0.168879
0.113544
0.105013
0.111684
0.112798
0.113001
0.112613
0.110158
0.108904
0.104164
0.102092
0.094958
0.092124
0.0830025
0.0796504
0.0695294
0.0661673
0.0569369
0.0550169
0.0531603
0.0705051
0.0393831
0.0226508
0.0186591
0.0126228
0.0109807
0.00766964
0.00673858
0.00471831
0.00414491
0.00287679
0.00251645
0.00171711
0.00148824
0.000974095
0.000824551
0.000480238
0.00037805
0.000135509
6.39438e-05
-0.00010359
-0.00017789
-0.000435741
-0.000546273
-0.00092196
-0.00109006
-0.00167721
-0.00194838
-0.0029138
-0.00336959
-0.0050126
-0.00580707
-0.00870748
-0.010168
-0.0156073
-0.0185744
-0.0300138
-0.0373211
-0.0670694
-0.093064
-0.210792
-0.438009
-0.385891
-0.533305
-0.612728
-0.929533
-0.86246
-0.157017
-0.0311764
-0.00679847
-56.1764
54.424
1.89188
1.14823
0.89683
0.550056
0.437792
0.291076
0.24168
0.171333
0.14527
0.101274
0.0922529
0.0966041
0.0976782
0.0978761
0.097472
0.0955088
0.0941918
0.0903838
0.0882077
0.0824848
0.0795089
0.0722001
0.0686823
0.0605873
0.0570684
0.0497636
0.0478141
0.0469065
0.0583175
0.0347585
0.0204625
0.0161709
0.0111958
0.00945565
0.00677503
0.00579406
0.00416508
0.00356174
0.00254035
0.00216133
0.00151754
0.00127682
0.000862805
0.000705545
0.000428449
0.000321034
0.000126113
5.07024e-05
-8.60741e-05
-0.000164385
-0.000371767
-0.000488052
-0.000790968
-0.000967941
-0.00144173
-0.0017273
-0.00250679
-0.00298695
-0.00431476
-0.0051523
-0.00750073
-0.00904279
-0.0134655
-0.0166095
-0.0260039
-0.0338177
-0.0588525
-0.0869569
-0.188317
-0.364557
-0.344585
-0.460476
-0.541962
-0.779088
-0.709379
-0.167858
-0.0372021
-0.00841229
-58.0202
56.8585
1.52505
0.989818
0.756675
0.477798
0.370362
0.251485
0.204126
0.147262
0.122382
0.0876063
0.0789601
0.0816553
0.0825928
0.0827734
0.0823919
0.0808313
0.0795769
0.0765376
0.0744642
0.0699026
0.0670685
0.061249
0.057901
0.0514671
0.0481263
0.0423826
0.0405768
0.0401684
0.0475411
0.0297714
0.0178797
0.013715
0.00964319
0.00797162
0.00581508
0.00487787
0.00357268
0.00299698
0.00217949
0.00181796
0.00130271
0.0010731
0.000741816
0.000591842
0.000370239
0.000267839
0.000112157
4.01024e-05
-7.07882e-05
-0.000145629
-0.000311377
-0.000422318
-0.000665001
-0.000833947
-0.00121381
-0.00148651
-0.00211184
-0.00257052
-0.00363669
-0.00443727
-0.00632646
-0.00780256
-0.0113752
-0.0143949
-0.0220575
-0.0296257
-0.0505132
-0.0779199
-0.162847
-0.298953
-0.297844
-0.389021
-0.464968
-0.640914
-0.575169
-0.162263
-0.0391543
-0.00914906
-59.8638
59.2749
1.19764
0.819334
0.618362
0.398691
0.303398
0.20904
0.166959
0.121917
0.099894
0.0728959
0.065215
0.0667769
0.0675373
0.067692
0.0673574
0.0661398
0.0650317
0.0626518
0.0608198
0.057252
0.0547488
0.0502017
0.0472462
0.0422276
0.0392851
0.0348496
0.0332897
0.0331265
0.0377807
0.0245562
0.0149927
0.0112596
0.00799778
0.00650989
0.00480867
0.00397846
0.00295272
0.00244334
0.00180151
0.00148171
0.0010772
0.000874114
0.000614072
0.00048144
0.00030758
0.000217051
9.50471e-05
3.12146e-05
-5.68477e-05
-0.000123159
-0.000253128
-0.000351275
-0.000541972
-0.000691518
-0.000990223
-0.00123167
-0.00172365
-0.00212988
-0.00296939
-0.00367885
-0.00516892
-0.0064787
-0.00930718
-0.0119949
-0.0181153
-0.0249014
-0.0419135
-0.0665825
-0.13533
-0.238838
-0.247412
-0.318175
-0.383973
-0.512407
-0.454844
-0.145077
-0.0373835
-0.00898424
-61.7071
61.6756
0.901107
0.641768
0.480807
0.314619
0.236404
0.164511
0.129916
0.0956555
0.0776084
0.0574146
0.0511013
0.0519308
0.0525058
0.052629
0.0523569
0.0514426
0.0505361
0.0487433
0.0472443
0.0445594
0.042512
0.0390928
0.0366766
0.0329085
0.0305075
0.0272062
0.0259521
0.0258981
0.0287437
0.0192003
0.0118767
0.00878879
0.00628415
0.0050591
0.00376933
0.00308858
0.00231345
0.00189618
0.00141158
0.00114967
0.000844267
0.000677952
0.000481648
0.000373044
0.000241855
0.000167747
7.57702e-05
2.34262e-05
-4.36959e-05
-9.80794e-05
-0.000196108
-0.000276497
-0.000420581
-0.000543125
-0.00076895
-0.000966846
-0.00133895
-0.001672
-0.0023074
-0.00288933
-0.00401876
-0.00509428
-0.00724506
-0.00945783
-0.0141467
-0.0197683
-0.0330079
-0.0534821
-0.106423
-0.18252
-0.194491
-0.247527
-0.300472
-0.391338
-0.344605
-0.119807
-0.0324423
-0.00797642
-63.5503
64.0634
0.6277
0.460275
0.343471
0.227034
0.169164
0.118494
0.0928642
0.0687484
0.0554112
0.0413794
0.0367028
0.037095
0.0374922
0.0375811
0.0373812
0.0367439
0.036075
0.0348224
0.033716
0.0318417
0.0303309
0.0279455
0.0261632
0.0235375
0.0217691
0.0194845
0.0185705
0.0185586
0.0202085
0.0137603
0.00859446
0.00629737
0.00452148
0.00361279
0.00270714
0.0022038
0.00166093
0.00135264
0.00101347
0.000820009
0.000606264
0.000483416
0.000346044
0.000265831
0.000174056
0.000119334
5.50342e-05
1.63304e-05
-3.09888e-05
-7.12048e-05
-0.00013976
-0.000199146
-0.000300044
-0.000390605
-0.000548816
-0.000695087
-0.000955871
-0.00120209
-0.00164764
-0.00207802
-0.00287089
-0.003667
-0.00518064
-0.00682191
-0.010141
-0.0143308
-0.023813
-0.0390833
-0.0765892
-0.128767
-0.139928
-0.176882
-0.215453
-0.275773
-0.241489
-0.0890387
-0.0249863
-0.00624978
-65.3932
66.4418
0.370337
0.276764
0.206125
0.137111
0.101639
0.0714791
0.0557547
0.0414124
0.0332437
0.0249711
0.0221021
0.022259
0.0224906
0.0225442
0.0224222
0.0220458
0.0216364
0.0208953
0.0202182
0.0191097
0.0181853
0.0167753
0.0156851
0.0141342
0.0130536
0.0117106
0.0111559
0.0111561
0.0120017
0.00827221
0.00519989
0.00378706
0.00272567
0.00216769
0.00162995
0.00132156
0.000999786
0.000811003
0.000610066
0.000491611
0.000364982
0.000289767
0.000208389
0.000159281
0.000104927
7.14296e-05
3.33654e-05
9.65141e-06
-1.85191e-05
-4.31611e-05
-8.37546e-05
-0.000120118
-0.000179915
-0.000235381
-0.000329175
-0.000418772
-0.000573412
-0.000724251
-0.000988555
-0.00125229
-0.00172298
-0.00221112
-0.00311125
-0.00411902
-0.00610061
-0.00868164
-0.0143868
-0.0237952
-0.0461689
-0.0766542
-0.0843328
-0.106171
-0.129564
-0.163991
-0.143099
-0.0547346
-0.0157186
-0.00397708
-67.236
68.8146
0.122408
0.0923402
0.068718
0.0458489
0.0339052
0.0238891
0.0185919
0.0138308
0.0110813
0.00834719
0.00738074
0.00742016
0.00749612
0.00751399
0.007473
0.00734846
0.00721076
0.00696536
0.00673756
0.00637064
0.00605966
0.00559302
0.00522631
0.00471325
0.00434999
0.00390679
0.00372091
0.00372189
0.00398056
0.00275986
0.00174038
0.00126387
0.000910653
0.000722602
0.000544235
0.000440416
0.000333785
0.000270249
0.000203676
0.000163812
0.000121858
9.65462e-05
6.95862e-05
5.30604e-05
3.50553e-05
2.37836e-05
1.11773e-05
3.19397e-06
-6.16208e-06
-1.44581e-05
-2.79037e-05
-4.01414e-05
-5.99568e-05
-7.86257e-05
-0.000109711
-0.00013987
-0.000191128
-0.000241905
-0.000329529
-0.000418322
-0.000574431
-0.000738825
-0.00103762
-0.00137726
-0.00203636
-0.00290765
-0.00481253
-0.00798851
-0.0154242
-0.0254539
-0.0281711
-0.0353986
-0.0432327
-0.0544209
-0.0474072
-0.0184563
-0.0053607
-0.00136413
-69.0787
68.9722
0.129276
0.108746
0.0900224
0.0703106
0.0592682
0.0487764
0.0423567
0.0351453
0.0300428
0.0236928
0.0212627
0.0209985
0.0206696
0.019706
0.0187923
0.017349
0.0162469
0.0147497
0.0136734
0.0122822
0.0113067
0.0100748
0.00922697
0.008181
0.0075003
0.00674398
0.00647698
0.00661669
0.00721695
0.00512054
0.00336993
0.00254977
0.00193433
0.00159817
0.00126537
0.0010639
0.000845751
0.000710396
0.000561061
0.000468287
0.000366112
0.000302995
0.000234039
0.000191718
0.000145832
0.000117661
8.69948e-05
6.77865e-05
4.67343e-05
3.67277e-05
3.04063e-05
2.63053e-05
2.08739e-05
1.71413e-05
1.25333e-05
9.2707e-06
4.94235e-06
9.81352e-07
-5.86538e-06
-1.46178e-05
-3.30605e-05
-6.05841e-05
-0.00012273
-0.000221901
-0.000454884
-0.0008569
-0.00185631
-0.00378229
-0.00854133
-0.0154734
-0.0190697
-0.0270142
-0.0354923
-0.0479147
-0.0425452
-0.0166165
-0.00483039
-0.0012286
-69.654
66.9146
0.390759
0.326167
0.270109
0.210587
0.177784
0.146168
0.127103
0.105353
0.0901793
0.0709225
0.0637023
0.0629992
0.0620351
0.0591171
0.0563991
0.0520344
0.0487575
0.0442333
0.0410339
0.0368312
0.0339316
0.0302101
0.0276899
0.0245295
0.022505
0.0202135
0.0194159
0.0198331
0.0217604
0.015349
0.0100735
0.00764193
0.0057925
0.00479496
0.00379135
0.00319281
0.00253433
0.00213209
0.00168121
0.00140549
0.00109698
0.000909405
0.000701201
0.000575427
0.000436889
0.00035317
0.000260593
0.000203488
0.0001398
0.000110068
9.11576e-05
7.89937e-05
6.25743e-05
5.14766e-05
3.75601e-05
2.78666e-05
1.48214e-05
3.06708e-06
-1.75141e-05
-4.34609e-05
-9.88141e-05
-0.000180364
-0.000366703
-0.000660344
-0.00135788
-0.00254678
-0.00553182
-0.0112335
-0.0255369
-0.0465533
-0.0570349
-0.0810208
-0.106318
-0.144455
-0.128457
-0.0492834
-0.0141637
-0.00358154
-68.962
64.8506
0.661109
0.543253
0.450342
0.349801
0.296258
0.243062
0.211961
0.175301
0.150483
0.117674
0.105884
0.105013
0.103482
0.0985233
0.0940749
0.0866796
0.0813213
0.0736671
0.0684378
0.0613314
0.0565926
0.0503007
0.0461818
0.0408358
0.0375237
0.0336266
0.0323097
0.0329932
0.0366424
0.0255359
0.0166664
0.0127132
0.00961857
0.00799378
0.00630264
0.00532549
0.00421381
0.00355677
0.00279522
0.00234478
0.00182365
0.0015172
0.00116551
0.000960036
0.000726061
0.000589296
0.000432973
0.000339618
0.000231623
0.000183073
0.000151721
0.000131926
0.000104123
8.59782e-05
6.24601e-05
4.66323e-05
2.46761e-05
5.52869e-06
-2.8931e-05
-7.11131e-05
-0.000163508
-0.00029594
-0.000606372
-0.00108261
-0.00224119
-0.00416477
-0.00909855
-0.0183404
-0.0422634
-0.0780537
-0.0944587
-0.134973
-0.176629
-0.243158
-0.216894
-0.0801871
-0.0225152
-0.00562746
-68.27
62.7762
0.946489
0.759351
0.630892
0.487144
0.414728
0.339081
0.297049
0.244782
0.211111
0.163589
0.147633
0.147058
0.14507
0.137914
0.131874
0.121249
0.113982
0.103009
0.0959223
0.0857423
0.0793212
0.0703098
0.0647282
0.0570662
0.0525713
0.0469421
0.0451295
0.0460417
0.0521232
0.0356395
0.0230674
0.0177542
0.0133892
0.0111982
0.00878791
0.00746584
0.00587704
0.00498737
0.00389823
0.00328818
0.00254279
0.00212772
0.00162473
0.00134644
0.00101186
0.000826643
0.000603167
0.000476609
0.000321262
0.000255552
0.000211961
0.000185304
0.000145388
0.000120784
8.71225e-05
6.57029e-05
3.44637e-05
8.64098e-06
-4.00103e-05
-9.67321e-05
-0.00022658
-0.000404376
-0.000839386
-0.00147756
-0.00309384
-0.00566225
-0.0124928
-0.0248596
-0.0585143
-0.110328
-0.130916
-0.188877
-0.245941
-0.345567
-0.309744
-0.107928
-0.0292356
-0.00718132
-67.578
60.6877
1.25342
0.973117
0.812072
0.621649
0.533339
0.433765
0.382557
0.313528
0.272302
0.208248
0.188774
0.189167
0.186873
0.177268
0.169864
0.155691
0.146799
0.132204
0.123538
0.110011
0.102161
0.0901895
0.0833655
0.0731776
0.0676719
0.0601127
0.0578486
0.0588931
0.0685187
0.0455955
0.0291849
0.0227628
0.0170774
0.0144156
0.0112332
0.00962006
0.007515
0.00642838
0.0049841
0.00423881
0.00325018
0.00274307
0.00207599
0.001736
0.00129239
0.00106614
0.000769947
0.000615138
0.000407582
0.000327373
0.000271714
0.000239386
0.000186183
0.000156078
0.000111392
8.525e-05
4.40976e-05
1.27199e-05
-5.07268e-05
-0.000119392
-0.000287707
-0.000502497
-0.00106424
-0.00183334
-0.00390834
-0.00698913
-0.0156652
-0.0305268
-0.0740377
-0.143849
-0.165876
-0.242813
-0.313545
-0.453388
-0.409227
-0.130742
-0.0336916
-0.00808797
-66.886
58.5817
1.58892
1.18213
0.994448
0.752086
0.652417
0.52653
0.46879
0.381173
0.334416
0.251132
0.229128
0.231392
0.228977
0.216543
0.208134
0.189932
0.179854
0.161171
0.151359
0.134062
0.125176
0.109873
0.102147
0.0891115
0.0828645
0.0730815
0.070446
0.0714136
0.0862322
0.055302
0.0349114
0.0277491
0.0206506
0.0176592
0.0136201
0.0117981
0.00911564
0.00788681
0.00604456
0.00520147
0.00394018
0.00336649
0.0025155
0.00213088
0.00156514
0.00130922
0.000931658
0.000756274
0.000489143
0.000398499
0.000330779
0.000294527
0.000226235
0.000192117
0.000135044
0.000105505
5.34202e-05
1.815e-05
-6.11842e-05
-0.000138021
-0.000346939
-0.000586705
-0.00128077
-0.00213683
-0.00468251
-0.00809203
-0.0185899
-0.0350473
-0.0885075
-0.179278
-0.198636
-0.296992
-0.378379
-0.56856
-0.518076
-0.146295
-0.0352915
-0.00823599
-66.1941
56.4557
1.96051
1.38241
1.17904
0.876837
0.772564
0.616585
0.556234
0.447197
0.398004
0.291574
0.268521
0.273814
0.271492
0.255669
0.246807
0.223859
0.213265
0.189796
0.17949
0.157788
0.148459
0.129266
0.121153
0.104786
0.0982104
0.0857765
0.082912
0.0833948
0.105796
0.0646003
0.0401189
0.0327414
0.0240664
0.0209511
0.0159238
0.0140154
0.0106623
0.00937356
0.00706814
0.00618367
0.00460492
0.00400303
0.00293793
0.00253442
0.00182657
0.00155812
0.00108598
0.000901682
0.000564043
0.000469054
0.000388879
0.000351221
0.000265139
0.000229269
0.000157743
0.000126792
6.21655e-05
2.54258e-05
-7.16812e-05
-0.000151314
-0.000404895
-0.0006527
-0.00149076
-0.00237267
-0.00542202
-0.00891122
-0.0212758
-0.038087
-0.101483
-0.217559
-0.228233
-0.351844
-0.438854
-0.693347
-0.639767
-0.151415
-0.0335361
-0.00757297
-65.5023
54.3086
2.37627
1.56772
1.36761
0.993696
0.894801
0.702835
0.645644
0.510842
0.463896
0.328693
0.306791
0.316553
0.314561
0.294529
0.286058
0.257306
0.247205
0.217907
0.208091
0.181034
0.172151
0.148229
0.140503
0.120082
0.113804
0.0981027
0.0952587
0.0945164
0.127927
0.0732453
0.0446537
0.0377957
0.027268
0.024327
0.0181089
0.0162964
0.012131
0.0109054
0.00803841
0.00719692
0.00523315
0.00466045
0.00333572
0.0029518
0.00207168
0.00181629
0.0012296
0.00105393
0.000629685
0.000539415
0.00044562
0.000410171
0.000302284
0.000268077
0.000178988
0.000149578
6.99042e-05
3.52133e-05
-8.28083e-05
-0.000157588
-0.000463035
-0.000695037
-0.00169895
-0.00252175
-0.0061438
-0.0093752
-0.0237834
-0.0392625
-0.112349
-0.260053
-0.253307
-0.408152
-0.492621
-0.830444
-0.778836
-0.141713
-0.0281075
-0.00612123
-64.8106
52.1409
2.84465
1.72873
1.56317
1.09958
1.02079
0.783715
0.73818
0.570991
0.533334
0.361293
0.343807
0.359777
0.358365
0.332942
0.326134
0.290022
0.281927
0.245255
0.237398
0.203568
0.19646
0.166559
0.160377
0.134828
0.129791
0.10993
0.107538
0.104291
0.153611
0.0808634
0.0483316
0.0430079
0.0301751
0.0278424
0.0201247
0.0186781
0.0134875
0.0125079
0.00893159
0.00825876
0.0058086
0.00535064
0.00369789
0.00339089
0.00229316
0.00208897
0.00135766
0.00121692
0.000682453
0.000610361
0.000500406
0.00047238
0.00033676
0.000309339
0.000198033
0.000174548
7.59632e-05
4.84437e-05
-9.55898e-05
-0.000154564
-0.000524059
-0.000706445
-0.00191432
-0.00255879
-0.00688106
-0.00939191
-0.0262476
-0.0381329
-0.120229
-0.308718
-0.271913
-0.467267
-0.536244
-0.983103
-0.941311
-0.111069
-0.0190182
-0.0039916
-64.1193
49.9566
3.37411
1.85175
1.77069
1.1901
1.15313
0.856957
0.835604
0.625978
0.608166
0.387723
0.379497
0.403711
0.403144
0.370626
0.367399
0.321634
0.31781
0.271468
0.26776
0.225051
0.221698
0.183958
0.181042
0.14877
0.146387
0.121076
0.119868
0.111982
0.184212
0.0868906
0.0509341
0.0485328
0.0326716
0.0315826
0.021897
0.0212167
0.0146811
0.0142197
0.00971283
0.00939575
0.00630739
0.00609155
0.00400836
0.00386368
0.00248035
0.00238414
0.00146302
0.00139655
0.000717222
0.000683298
0.000552326
0.000539292
0.000367204
0.000354243
0.000213762
0.000202712
7.93055e-05
6.64553e-05
-0.000111694
-0.000139044
-0.000592512
-0.000676778
-0.00215216
-0.00244865
-0.00769062
-0.00883463
-0.0289101
-0.034194
-0.12385
-0.366389
-0.281227
-0.531429
-0.564742
-1.15529
-1.13531
-0.0508949
-0.00685249
-0.00139032
-63.4283
49.9564
3.37404
1.8517
1.77064
1.19005
1.15308
0.856906
0.835554
0.625937
0.608127
0.387702
0.379477
0.403697
0.403132
0.370631
0.367406
0.32166
0.317837
0.271508
0.267801
0.225099
0.221746
0.184006
0.18109
0.148813
0.14643
0.121113
0.119905
0.112017
0.184272
0.0869198
0.0509544
0.0485525
0.0326862
0.0315968
0.0219077
0.0212272
0.014689
0.0142274
0.00971854
0.00940135
0.00631145
0.00609553
0.00401121
0.00386647
0.00248232
0.00238606
0.00146435
0.00139784
0.000717999
0.000684058
0.000553035
0.000539997
0.000367831
0.000354868
0.000214352
0.000203303
7.99332e-05
6.70931e-05
-0.000110893
-0.000138212
-0.000591136
-0.000675309
-0.00214909
-0.0024453
-0.0076827
-0.00882596
-0.0288885
-0.0341701
-0.123787
-0.366239
-0.281127
-0.531317
-0.564633
-1.15521
-1.13524
-0.0508914
-0.00685474
-0.00139396
-63.4291
52.1407
2.8446
1.72867
1.56312
1.09953
1.02074
0.783669
0.738135
0.570954
0.5333
0.361273
0.343789
0.359765
0.358354
0.332945
0.326141
0.290044
0.281952
0.245291
0.237435
0.203611
0.196503
0.166602
0.160419
0.134867
0.129829
0.109964
0.10757
0.104323
0.153661
0.0808895
0.0483505
0.0430254
0.0301883
0.027855
0.0201344
0.0186873
0.0134946
0.0125146
0.00893674
0.00826366
0.00581226
0.00535413
0.00370046
0.00339334
0.00229494
0.00209066
0.00135885
0.00121805
0.000683162
0.000611045
0.00050104
0.000473003
0.000337319
0.000309895
0.000198559
0.00017508
7.65223e-05
4.90252e-05
-9.48767e-05
-0.000153783
-0.000522839
-0.000705025
-0.0019116
-0.0025555
-0.00687406
-0.00938328
-0.0262285
-0.0381084
-0.12017
-0.308593
-0.27182
-0.467169
-0.536148
-0.983033
-0.941251
-0.111061
-0.019021
-0.00400907
-64.1199
54.3083
2.37623
1.56767
1.36757
0.993655
0.894761
0.702795
0.645606
0.51081
0.463866
0.328675
0.306776
0.316543
0.314553
0.294532
0.286064
0.257325
0.247227
0.217938
0.208124
0.181071
0.172189
0.148267
0.140541
0.120117
0.113838
0.0981327
0.0952881
0.094547
0.127969
0.0732687
0.0446714
0.0378113
0.0272801
0.0243381
0.0181177
0.0163047
0.0121375
0.0109114
0.00804311
0.00720129
0.0052365
0.00466356
0.00333807
0.00295397
0.0020733
0.00181779
0.0012307
0.00105493
0.000630341
0.000540039
0.000446191
0.000410725
0.000302786
0.000268572
0.000179458
0.000150054
7.04009e-05
3.57374e-05
-8.21771e-05
-0.000156871
-0.000461959
-0.000693708
-0.00169656
-0.00251864
-0.00613764
-0.00936697
-0.0237665
-0.0392388
-0.112296
-0.259948
-0.253224
-0.408065
-0.492537
-0.830381
-0.778785
-0.141704
-0.0281063
-0.00614655
-64.8112
56.4555
1.96047
1.38236
1.179
0.876802
0.772529
0.616551
0.556202
0.447169
0.397979
0.291558
0.268508
0.273805
0.271486
0.255671
0.246814
0.223875
0.213285
0.189822
0.179519
0.157821
0.148493
0.129299
0.121186
0.104816
0.0982395
0.0858028
0.0829376
0.0834226
0.105831
0.0646209
0.0401352
0.0327553
0.0240772
0.0209609
0.0159317
0.0140227
0.010668
0.00937887
0.00707234
0.00618751
0.00460792
0.00400576
0.00294004
0.00253634
0.00182804
0.00155944
0.00108697
0.000902558
0.000564638
0.000469614
0.000389386
0.000351707
0.000265582
0.000229705
0.000158157
0.000127211
6.26002e-05
2.58888e-05
-7.11307e-05
-0.000150674
-0.00040396
-0.000651496
-0.00148868
-0.00236983
-0.00541668
-0.00890367
-0.0212611
-0.038065
-0.101435
-0.217473
-0.22816
-0.351769
-0.438782
-0.693292
-0.639724
-0.151404
-0.0335288
-0.00759851
-65.5028
58.5815
1.58889
1.18209
0.994418
0.752057
0.652389
0.526501
0.468763
0.381149
0.334396
0.251118
0.229118
0.231384
0.228972
0.216545
0.20814
0.189945
0.179871
0.161194
0.151383
0.134089
0.125204
0.109901
0.102175
0.0891373
0.0828891
0.0731039
0.0704677
0.0714377
0.086261
0.0553197
0.0349259
0.0277611
0.0206599
0.0176676
0.013627
0.0118043
0.00912067
0.00789136
0.00604822
0.00520477
0.0039428
0.00336884
0.00251734
0.00213253
0.00156642
0.00131035
0.000932524
0.000757028
0.000489668
0.000398987
0.000331216
0.000294942
0.000226617
0.00019249
0.0001354
0.000105864
5.37917e-05
1.85481e-05
-6.07151e-05
-0.000137466
-0.000346144
-0.000585652
-0.001279
-0.00213432
-0.00467798
-0.00808536
-0.0185773
-0.0350277
-0.0884666
-0.179207
-0.198574
-0.296929
-0.378319
-0.568512
-0.518041
-0.146284
-0.0352784
-0.00825714
-66.1945
60.6875
1.2534
0.973079
0.812048
0.621625
0.533316
0.433743
0.382535
0.313509
0.272285
0.208236
0.188766
0.189161
0.186869
0.17727
0.169869
0.155702
0.146813
0.132222
0.123559
0.110033
0.102184
0.0902126
0.0833881
0.0731988
0.067692
0.060131
0.0578663
0.0589132
0.0685417
0.0456101
0.0291973
0.0227728
0.0170853
0.0144226
0.0112389
0.00962518
0.00751919
0.00643214
0.00498715
0.00424153
0.00325237
0.00274502
0.00207754
0.00173737
0.00129347
0.00106708
0.000770676
0.000615765
0.000408025
0.000327782
0.000272077
0.000239728
0.0001865
0.000156387
0.000111687
8.55472e-05
4.44042e-05
1.30498e-05
-5.03404e-05
-0.000118928
-0.000287052
-0.000501613
-0.00106279
-0.00183123
-0.00390461
-0.00698349
-0.0156548
-0.0305102
-0.0740039
-0.143793
-0.165825
-0.242762
-0.313497
-0.453349
-0.409199
-0.130732
-0.0336746
-0.00810286
-66.8864
62.7761
0.946468
0.75932
0.630874
0.487126
0.41471
0.339063
0.297032
0.244767
0.211099
0.16358
0.147627
0.147054
0.145067
0.137915
0.131878
0.121257
0.113993
0.103024
0.0959381
0.0857597
0.0793391
0.0703277
0.0647457
0.0570826
0.0525869
0.0469563
0.0451431
0.0460575
0.0521406
0.035651
0.0230773
0.017762
0.0133954
0.0112037
0.00879239
0.00746984
0.00588035
0.00499031
0.00390064
0.00329032
0.00254452
0.00212925
0.00162595
0.00134751
0.00101271
0.000827388
0.000603747
0.000477102
0.000321616
0.000255877
0.000212246
0.000185571
0.000145637
0.000121026
8.73535e-05
6.5936e-05
3.47039e-05
8.90011e-06
-3.9708e-05
-9.63667e-05
-0.000226069
-0.000403676
-0.000838253
-0.00147588
-0.00309093
-0.00565777
-0.0124846
-0.0248463
-0.058488
-0.110285
-0.130877
-0.188838
-0.245903
-0.345537
-0.309722
-0.107919
-0.0292173
-0.00719
-67.5783
64.8505
0.661093
0.543229
0.450329
0.349787
0.296246
0.24305
0.211949
0.175291
0.150474
0.117667
0.105879
0.10501
0.10348
0.098524
0.0940777
0.0866854
0.0813291
0.0736771
0.068449
0.0613437
0.0566053
0.0503134
0.0461942
0.0408475
0.0375348
0.0336367
0.0323193
0.0330045
0.0366546
0.0255441
0.0166736
0.0127189
0.00962304
0.00799769
0.00630587
0.00532836
0.00421619
0.00355888
0.00279696
0.00234631
0.0018249
0.00151829
0.0011664
0.00096081
0.000726677
0.000589832
0.000433393
0.000339973
0.00023188
0.000183308
0.000151927
0.000132118
0.000104302
8.61516e-05
6.26262e-05
4.67998e-05
2.48486e-05
5.71506e-06
-2.87141e-05
-7.08494e-05
-0.000163141
-0.000295433
-0.00060556
-0.0010814
-0.0022391
-0.00416152
-0.00909271
-0.0183307
-0.0422445
-0.078024
-0.0944304
-0.134945
-0.176602
-0.243136
-0.216878
-0.0801808
-0.0224984
-0.00563116
-68.2702
66.9145
0.390749
0.326152
0.270101
0.210579
0.177777
0.14616
0.127096
0.105347
0.0901739
0.0709186
0.0636995
0.0629971
0.0620338
0.0591175
0.0564007
0.0520379
0.0487621
0.0442392
0.0410406
0.0368386
0.0339391
0.0302177
0.0276973
0.0245365
0.0225116
0.0202195
0.0194215
0.0198399
0.0217676
0.0153539
0.0100779
0.00764536
0.00579519
0.00479731
0.00379329
0.00319453
0.00253576
0.00213336
0.00168226
0.00140641
0.00109774
0.000910064
0.000701734
0.000575892
0.000437261
0.000353493
0.000260848
0.000203702
0.000139955
0.00011021
9.12812e-05
7.91085e-05
6.26819e-05
5.15808e-05
3.76601e-05
2.79674e-05
1.49252e-05
3.17936e-06
-1.73836e-05
-4.33018e-05
-9.85935e-05
-0.000180057
-0.000366215
-0.000659608
-0.00135662
-0.00254481
-0.00552831
-0.0112276
-0.0255256
-0.0465357
-0.0570179
-0.081004
-0.106302
-0.144442
-0.128448
-0.0492795
-0.0141514
-0.00358216
-68.9622
68.9722
0.129273
0.108741
0.0900197
0.0703079
0.0592656
0.0487739
0.0423543
0.0351432
0.030041
0.0236915
0.0212617
0.0209978
0.0206691
0.0197061
0.0187928
0.0173501
0.0162484
0.0147516
0.0136756
0.0122847
0.0113092
0.0100773
0.00922943
0.00818331
0.00750248
0.00674596
0.00647884
0.00661897
0.00721934
0.00512215
0.0033714
0.00255092
0.00193523
0.00159895
0.00126601
0.00106447
0.000846226
0.000710815
0.000561409
0.000468592
0.000366362
0.000303214
0.000234216
0.000191873
0.000145956
0.000117768
8.708e-05
6.78578e-05
4.67861e-05
3.6775e-05
3.04475e-05
2.63434e-05
2.09098e-05
1.71759e-05
1.25666e-05
9.30428e-06
4.97697e-06
1.01881e-06
-5.82184e-06
-1.45646e-05
-3.29869e-05
-6.04816e-05
-0.000122567
-0.000221655
-0.000454466
-0.00085624
-0.00185514
-0.00378034
-0.00853755
-0.0154676
-0.0190641
-0.0270087
-0.035487
-0.0479103
-0.0425422
-0.0166152
-0.00482562
-0.00122828
-69.6541
68.8143
0.122297
0.09215
0.0684403
0.0454086
0.0332731
0.0228924
0.0172224
0.0119769
0.00987994
0.0092617
0.00899082
0.0086536
0.00842156
0.00813454
0.00793177
0.00766796
0.0074563
0.00714486
0.006881
0.00648051
0.00615069
0.00566578
0.00528853
0.00476484
0.0043954
0.0039461
0.00375785
0.0037587
0.00402029
0.00278784
0.00175828
0.00127718
0.00092053
0.000730599
0.000550391
0.00044546
0.000337641
0.000273365
0.000205978
0.000165597
0.000123065
9.73941e-05
7.00498e-05
5.32931e-05
3.50513e-05
2.3646e-05
1.09174e-05
2.87878e-06
-6.51104e-06
-1.48562e-05
-2.84002e-05
-4.0704e-05
-6.05947e-05
-7.93126e-05
-0.000110457
-0.000140658
-0.000191973
-0.000242798
-0.000330499
-0.000419363
-0.000575595
-0.000740116
-0.00103914
-0.00137902
-0.00203859
-0.00291047
-0.00481654
-0.00799431
-0.015434
-0.0254686
-0.0281854
-0.0354136
-0.0432487
-0.054438
-0.0474213
-0.0184618
-0.00536318
-0.00136458
-69.0786
66.4411
0.370003
0.276194
0.205295
0.135791
0.0997499
0.0684894
0.0516507
0.0358053
0.029581
0.0277714
0.0269753
0.0259567
0.0252669
0.0244002
0.0237976
0.0230016
0.0223727
0.0214326
0.0206484
0.0194388
0.0184584
0.0169933
0.0158717
0.0142887
0.0131898
0.0118284
0.0112666
0.0112664
0.0121215
0.00835605
0.0052534
0.00382696
0.00275524
0.00219168
0.00164838
0.00133669
0.00101134
0.000820353
0.000616962
0.000496969
0.000368594
0.000292312
0.000209774
0.00015998
0.000104912
7.10171e-05
3.25836e-05
8.70543e-06
-1.9565e-05
-4.4353e-05
-8.52449e-05
-0.000121805
-0.00018183
-0.000237441
-0.00033141
-0.000421133
-0.000575946
-0.00072693
-0.000991462
-0.00125541
-0.00172647
-0.00221499
-0.0031158
-0.00412431
-0.00610732
-0.00869006
-0.0143988
-0.0238125
-0.0461983
-0.0766984
-0.0843757
-0.106216
-0.129612
-0.164042
-0.143142
-0.0547508
-0.0157255
-0.00397806
-67.2356
64.0621
0.627145
0.459324
0.342097
0.224838
0.166038
0.113512
0.086041
0.05925
0.0491065
0.0462414
0.0449692
0.0432468
0.0421193
0.0406549
0.0396709
0.0383282
0.0373012
0.0357138
0.0344328
0.032388
0.0307859
0.0283077
0.0264743
0.0237944
0.0219961
0.0196802
0.0187546
0.018742
0.0204102
0.0138997
0.00868297
0.00636375
0.00457056
0.00365277
0.00273778
0.00222904
0.00168012
0.00136824
0.00102493
0.000828955
0.000612258
0.000487667
0.000348335
0.000267001
0.000174019
0.000118648
5.37244e-05
1.47529e-05
-3.27288e-05
-7.3183e-05
-0.000142247
-0.000201955
-0.000303237
-0.000394036
-0.000552542
-0.000699019
-0.000960095
-0.00120655
-0.00165249
-0.00208322
-0.00287671
-0.00367343
-0.00518822
-0.0068307
-0.0101522
-0.0143447
-0.0238329
-0.0391119
-0.076638
-0.128841
-0.139999
-0.176957
-0.215533
-0.275859
-0.241561
-0.0890652
-0.0249967
-0.00625077
-65.3926
61.6738
0.900334
0.640436
0.478908
0.311551
0.232079
0.157535
0.120407
0.0820309
0.0683425
0.0646488
0.062982
0.0605134
0.0589851
0.0568901
0.0555579
0.0536414
0.0522515
0.0499824
0.0482474
0.0453198
0.043149
0.0395975
0.0371122
0.0332668
0.0308253
0.0274789
0.0262089
0.026154
0.0290304
0.0193949
0.0119991
0.00888149
0.00635244
0.00511512
0.00381202
0.00312397
0.00234021
0.00191807
0.00142755
0.00116224
0.000852603
0.000683926
0.000484819
0.000374694
0.000241779
0.000166791
7.39217e-05
2.12166e-05
-4.61247e-05
-0.000100831
-0.000199598
-0.000280424
-0.000425056
-0.000547923
-0.000774168
-0.000972342
-0.00134486
-0.00167823
-0.00231418
-0.00289658
-0.0040269
-0.00510325
-0.00725567
-0.00947007
-0.0141623
-0.0197877
-0.0330356
-0.0535215
-0.106491
-0.182626
-0.194591
-0.247632
-0.300584
-0.391461
-0.344708
-0.119842
-0.0324551
-0.00797686
-63.5494
59.2727
1.19666
0.817621
0.61596
0.394755
0.29793
0.200067
0.154827
0.103827
0.0871811
0.0829769
0.0810282
0.0777429
0.0758737
0.0730941
0.0714674
0.0689325
0.0672359
0.0642289
0.0621095
0.0582217
0.0555681
0.0508463
0.0478066
0.0426858
0.0396937
0.0351983
0.0336187
0.0334536
0.0381574
0.024805
0.0151476
0.0113785
0.00808484
0.00658203
0.00486321
0.00402409
0.00298692
0.00247159
0.00182191
0.00149794
0.00108782
0.000881841
0.00061808
0.000483588
0.000307438