/*--------------------------------*- C++ -*----------------------------------*\
| =========                 |                                                 |
| \\      /  F ield         | OpenFOAM: The Open Source CFD Toolbox           |
|  \\    /   O peration     | Version:  5.x                                   |
|   \\  /    A nd           | Web:      www.OpenFOAM.org                      |
|    \\/     M anipulation  |                                                 |
\*---------------------------------------------------------------------------*/
FoamFile
{
    version     2.0;
    format      ascii;
    class       volScalarField;
    location    "1";
    object      T;
}
// * * * * * * * * * * * * * * * * * * * * * * * * * * * * * * * * * * * * * //

dimensions      [0 0 0 1 0 0 0];

internalField   nonuniform List<scalar> 
3200
(
2.19307
2.508
2.52587
2.65351
2.66151
2.72304
2.72707
2.76106
2.76336
2.78405
2.78542
2.79723
2.79828
2.81149
2.8126
2.82583
2.82691
2.83975
2.84079
2.85289
2.85385
2.86482
2.86567
2.8752
2.87592
2.88385
2.88445
2.89088
2.8914
2.89718
2.90155
2.90184
2.90409
2.90424
2.90558
2.90567
2.90649
2.90655
2.90705
2.90709
2.9074
2.90742
2.9076
2.90761
2.90772
2.90772
2.90777
2.90777
2.90778
2.90778
2.90777
2.90777
2.90771
2.9077
2.90759
2.90758
2.90737
2.90735
2.90699
2.90695
2.90634
2.90627
2.9052
2.90508
2.90318
2.90294
2.89931
2.89881
2.89086
2.88947
2.86681
2.82715
2.82273
2.75821
2.75062
2.6302
2.6252
2.62457
2.62444
2.62441
2.35444
2.59536
2.63269
2.73484
2.7519
2.80114
2.80974
2.83685
2.84175
2.8582
2.86112
2.8706
2.87283
2.8833
2.88563
2.89611
2.89841
2.90859
2.91079
2.92037
2.92241
2.9311
2.93291
2.94045
2.942
2.94827
2.94955
2.95466
2.95577
2.96052
2.96423
2.96487
2.96667
2.96699
2.96805
2.96825
2.9689
2.96902
2.96942
2.9695
2.96974
2.96979
2.96993
2.96996
2.97004
2.97005
2.97009
2.9701
2.9701
2.9701
2.97009
2.97009
2.97004
2.97003
2.96993
2.96991
2.96974
2.96969
2.96941
2.96932
2.96883
2.96868
2.96784
2.96757
2.96605
2.96555
2.96263
2.96156
2.95509
2.95201
2.9322
2.89974
2.89028
2.83886
2.82288
2.72933
2.71877
2.71703
2.71666
2.71658
2.50616
2.69086
2.73692
2.81956
2.841
2.88086
2.89166
2.91353
2.91967
2.9329
2.93656
2.94425
2.94706
2.95542
2.95834
2.96672
2.9696
2.97774
2.98049
2.98815
2.9907
2.99765
2.99991
3.00595
3.00788
3.0129
3.01449
3.0186
3.02
3.02391
3.02705
3.02785
3.02931
3.02972
3.03057
3.03081
3.03134
3.03149
3.03181
3.0319
3.0321
3.03215
3.03227
3.0323
3.03237
3.03239
3.03242
3.03242
3.03243
3.03243
3.03242
3.03241
3.03238
3.03236
3.03228
3.03225
3.03212
3.03205
3.03183
3.03172
3.03132
3.03114
3.03045
3.03012
3.02889
3.02826
3.02589
3.02453
3.01918
3.01522
2.99811
2.97142
2.95952
2.91809
2.89824
2.82514
2.812
2.80944
2.80888
2.80876
2.65049
2.79191
2.83968
2.90673
2.92936
2.96174
2.97314
2.99084
2.99731
3.00798
3.01184
3.0181
3.02106
3.02776
3.03083
3.03755
3.04058
3.0471
3.04999
3.05614
3.05882
3.06439
3.06677
3.07161
3.07363
3.07767
3.07934
3.08265
3.08412
3.08734
3.08995
3.09081
3.092
3.09243
3.09312
3.09337
3.0938
3.09395
3.09421
3.09431
3.09447
3.09453
3.09462
3.09465
3.09471
3.09472
3.09475
3.09476
3.09476
3.09476
3.09475
3.09475
3.09472
3.0947
3.09464
3.0946
3.09449
3.09443
3.09424
3.09413
3.09381
3.09361
3.09306
3.09271
3.09171
3.09105
3.08911
3.08767
3.08323
3.07897
3.0644
3.04251
3.02994
2.99647
2.97574
2.91856
2.9048
2.90177
2.90108
2.90093
2.78916
2.89669
2.94166
2.99567
3.01733
3.04345
3.05437
3.0686
3.07478
3.08333
3.08702
3.09209
3.09491
3.10025
3.10317
3.10853
3.11141
3.11661
3.11937
3.12427
3.12682
3.13126
3.13352
3.13738
3.13931
3.14253
3.14412
3.14677
3.14818
3.15079
3.15294
3.15376
3.15472
3.15513
3.15569
3.15593
3.15627
3.15642
3.15663
3.15672
3.15685
3.1569
3.15698
3.15701
3.15705
3.15707
3.15709
3.15709
3.1571
3.1571
3.15709
3.15708
3.15706
3.15704
3.15699
3.15696
3.15687
3.15681
3.15666
3.15655
3.1563
3.15611
3.15566
3.15533
3.15453
3.15389
3.15232
3.15093
3.14727
3.14313
3.13099
3.11324
3.1012
3.07434
3.0547
3.01025
2.99719
2.99402
2.99327
2.9931
2.92352
3.00398
3.04328
3.08591
3.10512
3.12578
3.13546
3.14668
3.15215
3.15887
3.16214
3.16616
3.16866
3.17284
3.17542
3.17961
3.18215
3.18622
3.18866
3.19249
3.19474
3.19821
3.20021
3.20323
3.20494
3.20746
3.20887
3.21094
3.2122
3.21425
3.21597
3.21671
3.21747
3.21784
3.21827
3.21849
3.21875
3.21889
3.21905
3.21913
3.21923
3.21928
3.21934
3.21937
3.2194
3.21941
3.21943
3.21944
3.21944
3.21944
3.21943
3.21943
3.21941
3.21939
3.21935
3.21932
3.21925
3.2192
3.21908
3.21899
3.21879
3.21862
3.21827
3.21797
3.21734
3.21677
3.21553
3.21428
3.21133
3.20762
3.1978
3.18374
3.17306
3.15192
3.13466
3.10068
3.08918
3.08617
3.08544
3.08527
3.05465
3.1129
3.14477
3.17708
3.19285
3.20854
3.21649
3.22499
3.22948
3.23456
3.23724
3.2403
3.24235
3.24549
3.2476
3.25075
3.25284
3.2559
3.25789
3.26077
3.26261
3.26523
3.26686
3.26914
3.27053
3.27243
3.27358
3.27515
3.27618
3.27774
3.27905
3.27966
3.28024
3.28054
3.28087
3.28104
3.28125
3.28135
3.28148
3.28154
3.28162
3.28166
3.2817
3.28173
3.28175
3.28176
3.28177
3.28178
3.28178
3.28178
3.28178
3.28177
3.28176
3.28174
3.28172
3.28169
3.28164
3.28159
3.28151
3.28143
3.28127
3.28114
3.28087
3.28063
3.28015
3.27968
3.27873
3.27771
3.27543
3.27236
3.26479
3.25411
3.24534
3.22935
3.21529
3.19022
3.18083
3.17824
3.17759
3.17744
3.18346
3.22288
3.24623
3.26891
3.28058
3.29161
3.29749
3.30346
3.30678
3.31034
3.31232
3.31447
3.31599
3.31818
3.31974
3.32194
3.32348
3.32562
3.32708
3.3291
3.33046
3.33228
3.33349
3.33508
3.33611
3.33743
3.33828
3.33938
3.34014
3.34123
3.34216
3.34261
3.34302
3.34324
3.34347
3.3436
3.34374
3.34382
3.34391
3.34396
3.34401
3.34404
3.34407
3.34409
3.34411
3.34411
3.34412
3.34413
3.34413
3.34413
3.34413
3.34412
3.34411
3.3441
3.34408
3.34406
3.34403
3.34399
3.34393
3.34387
3.34377
3.34366
3.34348
3.3433
3.34296
3.34262
3.34195
3.34118
3.33957
3.33727
3.33191
3.3244
3.31791
3.30671
3.29637
3.27913
3.27222
3.27023
3.26972
3.2696
3.31068
3.3335
3.34772
3.36118
3.36833
3.37489
3.37849
3.38204
3.38407
3.38618
3.38739
3.38867
3.3896
3.3909
3.39185
3.39316
3.39409
3.39536
3.39626
3.39745
3.39828
3.39936
3.4001
3.40104
3.40167
3.40245
3.40297
3.40362
3.40409
3.40474
3.40529
3.40557
3.40581
3.40594
3.40608
3.40616
3.40624
3.40629
3.40634
3.40637
3.40641
3.40642
3.40644
3.40645
3.40646
3.40647
3.40647
3.40648
3.40648
3.40648
3.40647
3.40647
3.40647
3.40646
3.40645
3.40644
3.40642
3.40639
3.40636
3.40632
3.40626
3.4062
3.40609
3.40598
3.40578
3.40556
3.40517
3.4047
3.40373
3.40232
3.39911
3.39465
3.39068
3.38403
3.37772
3.36763
3.36341
3.36216
3.36184
3.36176
3.43699
3.44446
3.44924
3.4537
3.45611
3.45828
3.4595
3.46067
3.46136
3.46206
3.46246
3.46289
3.4632
3.46363
3.46395
3.46438
3.4647
3.46512
3.46542
3.46581
3.46609
3.46645
3.4667
3.46701
3.46722
3.46748
3.46766
3.46787
3.46803
3.46825
3.46843
3.46852
3.4686
3.46865
3.46869
3.46872
3.46875
3.46876
3.46878
3.46879
3.4688
3.46881
3.46881
3.46882
3.46882
3.46882
3.46882
3.46882
3.46883
3.46883
3.46882
3.46882
3.46882
3.46882
3.46882
3.46881
3.4688
3.4688
3.46879
3.46877
3.46875
3.46873
3.4687
3.46866
3.46859
3.46852
3.46839
3.46823
3.46791
3.46743
3.46636
3.46489
3.46355
3.46135
3.45922
3.4559
3.45448
3.45406
3.45395
3.45392
3.44478
3.45244
3.45771
3.46332
3.46671
3.47035
3.47264
3.47523
3.47687
3.47874
3.47988
3.48111
3.482
3.48321
3.48407
3.48518
3.48595
3.48691
3.48757
3.48839
3.48894
3.48962
3.49007
3.49062
3.491
3.49144
3.49175
3.49212
3.49239
3.49278
3.49311
3.49329
3.49345
3.49355
3.49365
3.49371
3.49377
3.49381
3.49386
3.49388
3.49391
3.49393
3.49395
3.49396
3.49397
3.49398
3.49399
3.49399
3.494
3.494
3.494
3.494
3.494
3.494
3.49401
3.49401
3.49401
3.49401
3.49401
3.49401
3.49401
3.49401
3.494
3.494
3.49399
3.49398
3.49395
3.49389
3.49376
3.49351
3.49291
3.49197
3.491
3.48926
3.48745
3.48447
3.4832
3.48281
3.48271
3.48269
3.33404
3.35742
3.37311
3.39004
3.40012
3.4111
3.4179
3.42571
3.43061
3.43625
3.43963
3.44334
3.446
3.44964
3.4522
3.45555
3.45784
3.46076
3.46272
3.46518
3.46682
3.46886
3.47022
3.47188
3.47298
3.47434
3.47523
3.47636
3.47718
3.47834
3.47935
3.47988
3.48036
3.48064
3.48094
3.48112
3.48132
3.48144
3.48157
3.48165
3.48174
3.48179
3.48185
3.48188
3.48192
3.48194
3.48196
3.48198
3.48199
3.482
3.482
3.48201
3.48201
3.48202
3.48202
3.48202
3.48202
3.48202
3.48202
3.48202
3.48202
3.48202
3.48201
3.482
3.48198
3.48193
3.48184
3.48168
3.48129
3.48056
3.47873
3.4759
3.47303
3.4678
3.4624
3.45335
3.44955
3.44843
3.44814
3.44807
3.22235
3.26271
3.28846
3.31703
3.3335
3.35201
3.36312
3.37632
3.38432
3.39385
3.39937
3.40561
3.40996
3.41612
3.4203
3.42597
3.42971
3.43464
3.43784
3.442
3.44469
3.44814
3.45035
3.45317
3.45496
3.45725
3.45872
3.46061
3.46195
3.46391
3.46561
3.46646
3.46728
3.46774
3.46824
3.46854
3.46887
3.46907
3.46929
3.46942
3.46957
3.46966
3.46975
3.46981
3.46987
3.46991
3.46994
3.46996
3.46999
3.47
3.47001
3.47002
3.47003
3.47003
3.47004
3.47004
3.47004
3.47004
3.47004
3.47004
3.47004
3.47004
3.47003
3.47001
3.46996
3.4699
3.46974
3.46948
3.46883
3.46765
3.4646
3.45984
3.45516
3.44635
3.4375
3.42203
3.41581
3.41401
3.41355
3.41345
3.10905
3.16857
3.2037
3.24451
3.26679
3.29322
3.30826
3.32713
3.33797
3.35161
3.35908
3.36796
3.37384
3.38267
3.38835
3.39646
3.40154
3.40859
3.41293
3.41889
3.42253
3.42746
3.43046
3.43449
3.43693
3.4402
3.44219
3.44489
3.4467
3.4495
3.45191
3.45306
3.45422
3.45484
3.45556
3.45596
3.45644
3.4567
3.45703
3.4572
3.45741
3.45753
3.45767
3.45774
3.45783
3.45788
3.45793
3.45796
3.45799
3.45801
3.45803
3.45803
3.45805
3.45805
3.45806
3.45807
3.45807
3.45807
3.45807
3.45807
3.45807
3.45806
3.45805
3.45802
3.45796
3.45787
3.45765
3.45731
3.4564
3.45482
3.45055
3.44379
3.43746
3.4249
3.41287
3.39035
3.38189
3.37955
3.37897
3.37883
2.99336
3.07541
3.1187
3.17272
3.19991
3.23488
3.25324
3.27826
3.2915
3.30961
3.31873
3.33044
3.33761
3.34935
3.3563
3.36708
3.37328
3.38265
3.38796
3.39587
3.40032
3.40687
3.41053
3.41589
3.41887
3.42321
3.42564
3.42922
3.43142
3.43511
3.43827
3.43967
3.44119
3.44194
3.4429
3.44339
3.44402
3.44435
3.44477
3.44499
3.44527
3.44541
3.4456
3.44569
3.4458
3.44586
3.44593
3.44597
3.44601
3.44603
3.44605
3.44606
3.44608
3.44609
3.4461
3.4461
3.44611
3.44611
3.44611
3.44611
3.44611
3.4461
3.44608
3.44605
3.44597
3.44587
3.44558
3.44517
3.44402
3.44211
3.43661
3.42773
3.42002
3.40345
3.38867
3.35811
3.34775
3.34504
3.34438
3.34423
2.87438
2.98379
3.03327
3.102
3.13272
3.17721
3.19796
3.22986
3.24484
3.26798
3.27828
3.29309
3.30119
3.31623
3.32409
3.33788
3.34491
3.35688
3.36289
3.37299
3.37803
3.3864
3.39054
3.39739
3.40076
3.4063
3.40905
3.41361
3.41609
3.42075
3.42471
3.42628
3.4282
3.42905
3.43027
3.43082
3.43163
3.432
3.43254
3.43279
3.43315
3.43331
3.43354
3.43364
3.43379
3.43386
3.43395
3.43399
3.43404
3.43406
3.43409
3.4341
3.43412
3.43413
3.43415
3.43415
3.43416
3.43416
3.43417
3.43417
3.43416
3.43415
3.43413
3.43409
3.434
3.43388
3.43353
3.43307
3.43167
3.42957
3.42282
3.41164
3.40296
3.38194
3.36512
3.32508
3.31331
3.31045
3.30978
3.30963
2.75102
2.89455
2.94707
3.03279
3.06497
3.12048
3.14223
3.18214
3.19785
3.22686
3.23765
3.25601
3.2645
3.2834
3.29165
3.30896
3.31633
3.33135
3.33766
3.35033
3.35561
3.36611
3.37046
3.37903
3.38257
3.38951
3.39239
3.39809
3.40068
3.40643
3.41126
3.41289
3.41527
3.41616
3.41768
3.41826
3.41927
3.41966
3.42034
3.4206
3.42105
3.42122
3.42151
3.42162
3.4218
3.42187
3.42198
3.42203
3.42209
3.42212
3.42215
3.42216
3.42219
3.4222
3.42221
3.42222
3.42223
3.42223
3.42224
3.42224
3.42223
3.42222
3.42219
3.42216
3.42204
3.42192
3.4215
3.42103
3.41937
3.41722
3.40922
3.39546
3.3864
3.36028
3.34251
3.29094
3.27854
3.2758
3.27518
3.27504
2.6219
2.80896
2.85953
2.96573
2.99629
3.0651
3.08577
3.13538
3.15033
3.18647
3.19672
3.21933
3.2274
3.25099
3.25886
3.28044
3.28746
3.30617
3.31218
3.32796
3.33299
3.34607
3.35021
3.36089
3.36426
3.3729
3.37564
3.38271
3.38516
3.39216
3.39796
3.39948
3.40242
3.40326
3.40515
3.4057
3.40696
3.40733
3.40817
3.40842
3.40898
3.40914
3.4095
3.4096
3.40983
3.4099
3.41004
3.41008
3.41016
3.41019
3.41023
3.41024
3.41027
3.41028
3.4103
3.41031
3.41032
3.41032
3.41033
3.41033
3.41032
3.41031
3.41027
3.41024
3.4101
3.40999
3.40949
3.40905
3.40711
3.40512
3.39587
3.37912
3.37054
3.3383
3.32128
3.25526
3.2434
3.24109
3.24059
3.24048
2.48528
2.72881
2.76975
2.90168
2.92607
3.01164
3.02815
3.09001
3.10196
3.14711
3.1553
3.18324
3.18968
3.21922
3.22551
3.25251
3.25813
3.28151
3.28632
3.30604
3.31006
3.32639
3.32971
3.34305
3.34574
3.35653
3.35872
3.36753
3.36948
3.37796
3.38484
3.38604
3.38967
3.39034
3.39269
3.39313
3.3947
3.39499
3.39605
3.39625
3.39694
3.39707
3.39752
3.39761
3.39789
3.39795
3.39812
3.39815
3.39826
3.39828
3.39833
3.39834
3.39838
3.39838
3.39841
3.39842
3.39843
3.39843
3.39844
3.39844
3.39843
3.39842
3.39838
3.39835
3.39818
3.3981
3.3975
3.39716
3.39487
3.39334
3.38285
3.36247
3.35566
3.31574
3.30203
3.21743
3.2079
3.20633
3.206
3.20593
2.33891
2.65675
2.67632
2.84193
2.85339
2.96094
2.96871
3.04663
3.05227
3.10923
3.11308
3.148
3.15103
3.18837
3.19135
3.22544
3.22809
3.2576
3.25987
3.28475
3.28664
3.30725
3.30881
3.32565
3.32692
3.34053
3.34156
3.35263
3.35354
3.36383
3.37196
3.37252
3.37706
3.37737
3.38033
3.38053
3.38252
3.38265
3.38398
3.38408
3.38495
3.38502
3.38559
3.38562
3.38599
3.38601
3.38623
3.38625
3.38638
3.38639
3.38645
3.38646
3.38651
3.38651
3.38654
3.38655
3.38657
3.38657
3.38657
3.38657
3.38656
3.38656
3.3865
3.38649
3.38629
3.38625
3.38552
3.38536
3.38263
3.38194
3.37024
3.3453
3.34212
3.29216
3.28565
3.17663
3.17212
3.17154
3.17143
3.1714
2.3389
2.65674
2.67631
2.84191
2.85337
2.96091
2.96868
3.0466
3.05223
3.1092
3.11305
3.14797
3.15099
3.18834
3.19131
3.2254
3.22805
3.25756
3.25983
3.28471
3.28661
3.30722
3.30879
3.32563
3.3269
3.34051
3.34154
3.35262
3.35353
3.36382
3.37196
3.37251
3.37705
3.37737
3.38032
3.38053
3.38251
3.38265
3.38398
3.38407
3.38495
3.38501
3.38558
3.38562
3.38598
3.38601
3.38623
3.38625
3.38638
3.38639
3.38645
3.38646
3.38651
3.38651
3.38654
3.38654
3.38656
3.38657
3.38657
3.38657
3.38656
3.38656
3.3865
3.38649
3.38629
3.38625
3.38552
3.38536
3.38263
3.38195
3.37025
3.34532
3.34214
3.29219
3.28568
3.17667
3.17215
3.17158
3.17147
3.17144
2.48527
2.72879
2.76973
2.90166
2.92605
3.01161
3.02812
3.08998
3.10193
3.14708
3.15526
3.1832
3.18964
3.21918
3.22548
3.25247
3.25809
3.28148
3.28629
3.30601
3.31003
3.32637
3.32968
3.34303
3.34572
3.35652
3.35871
3.36751
3.36946
3.37794
3.38483
3.38603
3.38966
3.39034
3.39268
3.39312
3.3947
3.39499
3.39605
3.39624
3.39694
3.39707
3.39752
3.3976
3.39789
3.39794
3.39812
3.39815
3.39826
3.39827
3.39832
3.39834
3.39838
3.39838
3.39841
3.39841
3.39843
3.39843
3.39844
3.39844
3.39843
3.39842
3.39837
3.39835
3.39818
3.39809
3.3975
3.39716
3.39487
3.39335
3.38286
3.36249
3.35567
3.31577
3.30206
3.21747
3.20793
3.20636
3.20603
3.20596
2.62189
2.80894
2.85951
2.96571
2.99627
3.06508
3.08575
3.13536
3.15031
3.18644
3.19669
3.2193
3.22737
3.25096
3.25883
3.28041
3.28743
3.30614
3.31215
3.32794
3.33297
3.34605
3.35019
3.36087
3.36424
3.37288
3.37562
3.3827
3.38515
3.39215
3.39795
3.39948
3.40242
3.40326
3.40514
3.40569
3.40696
3.40732
3.40817
3.40841
3.40897
3.40914
3.4095
3.4096
3.40983
3.4099
3.41004
3.41008
3.41016
3.41018
3.41023
3.41024
3.41027
3.41028
3.4103
3.41031
3.41032
3.41032
3.41033
3.41032
3.41032
3.41031
3.41027
3.41024
3.4101
3.40999
3.40949
3.40905
3.40711
3.40513
3.39588
3.37913
3.37056
3.33833
3.32131
3.25529
3.24343
3.24112
3.24062
3.2405
2.75101
2.89454
2.94706
3.03278
3.06496
3.12046
3.14221
3.18212
3.19783
3.22683
3.23763
3.25599
3.26448
3.28337
3.29163
3.30894
3.31631
3.33132
3.33764
3.35031
3.35559
3.36609
3.37044
3.37902
3.38256
3.3895
3.39238
3.39808
3.40067
3.40642
3.41126
3.41288
3.41527
3.41616
3.41768
3.41826
3.41927
3.41966
3.42034
3.4206
3.42105
3.42121
3.42151
3.42161
3.4218
3.42187
3.42198
3.42202
3.42209
3.42211
3.42215
3.42216
3.42219
3.4222
3.42221
3.42222
3.42223
3.42223
3.42224
3.42224
3.42223
3.42222
3.42219
3.42215
3.42204
3.42192
3.4215
3.42103
3.41937
3.41722
3.40923
3.39547
3.38641
3.3603
3.34253
3.29097
3.27856
3.27583
3.27521
3.27507
2.87437
2.98378
3.03326
3.10199
3.13271
3.17719
3.19794
3.22984
3.24482
3.26796
3.27826
3.29307
3.30117
3.31621
3.32407
3.33786
3.34488
3.35686
3.36287
3.37298
3.37801
3.38638
3.39053
3.39737
3.40075
3.40629
3.40904
3.4136
3.41608
3.42074
3.42471
3.42627
3.4282
3.42905
3.43027
3.43082
3.43163
3.432
3.43254
3.43279
3.43315
3.43331
3.43354
3.43364
3.43379
3.43386
3.43395
3.43399
3.43404
3.43406
3.43409
3.4341
3.43412
3.43413
3.43415
3.43415
3.43416
3.43416
3.43417
3.43417
3.43416
3.43415
3.43413
3.43409
3.434
3.43388
3.43353
3.43307
3.43167
3.42957
3.42283
3.41165
3.40297
3.38195
3.36514
3.3251
3.31333
3.31047
3.3098
3.30965
2.99336
3.0754
3.11869
3.17271
3.1999
3.23487
3.25323
3.27824
3.29148
3.30959
3.31871
3.33042
3.33759
3.34933
3.35628
3.36706
3.37326
3.38263
3.38795
3.39585
3.4003
3.40686
3.41052
3.41588
3.41886
3.4232
3.42563
3.42921
3.43141
3.4351
3.43827
3.43966
3.44119
3.44194
3.4429
3.44338
3.44402
3.44435
3.44477
3.44499
3.44527
3.44541
3.4456
3.44569
3.4458
3.44586
3.44593
3.44597
3.44601
3.44603
3.44605
3.44606
3.44608
3.44609
3.4461
3.4461
3.44611
3.44611
3.44611
3.44611
3.44611
3.4461
3.44608
3.44605
3.44597
3.44587
3.44558
3.44517
3.44402
3.44212
3.43662
3.42774
3.42003
3.40346
3.38868
3.35813
3.34776
3.34505
3.3444
3.34424
3.10905
3.16857
3.20369
3.2445
3.26678
3.29321
3.30825
3.32712
3.33795
3.35159
3.35906
3.36795
3.37383
3.38266
3.38833
3.39645
3.40152
3.40857
3.41292
3.41888
3.42251
3.42745
3.43045
3.43448
3.43692
3.44019
3.44218
3.44489
3.4467
3.44949
3.45191
3.45306
3.45422
3.45484
3.45556
3.45596
3.45644
3.4567
3.45702
3.4572
3.45741
3.45753
3.45767
3.45774
3.45783
3.45788
3.45793
3.45796
3.45799
3.45801
3.45803
3.45803
3.45805
3.45805
3.45806
3.45806
3.45807
3.45807
3.45807
3.45807
3.45807
3.45806
3.45805
3.45802
3.45796
3.45787
3.45765
3.45731
3.45641
3.45482
3.45056
3.4438
3.43747
3.42491
3.41288
3.39036
3.38191
3.37957
3.37898
3.37885
3.22235
3.2627
3.28846
3.31702
3.33349
3.352
3.36312
3.37631
3.38431
3.39384
3.39936
3.4056
3.40995
3.4161
3.42029
3.42596
3.4297
3.43463
3.43783
3.44199
3.44468
3.44813
3.45034
3.45316
3.45496
3.45724
3.45871
3.46061
3.46194
3.46391
3.46561
3.46646
3.46728
3.46773
3.46824
3.46853
3.46887
3.46907
3.46929
3.46942
3.46957
3.46966
3.46975
3.46981
3.46987
3.46991
3.46994
3.46996
3.46999
3.47
3.47001
3.47002
3.47003
3.47003
3.47004
3.47004
3.47004
3.47004
3.47004
3.47004
3.47004
3.47004
3.47003
3.47001
3.46996
3.4699
3.46974
3.46948
3.46883
3.46765
3.46461
3.45985
3.45516
3.44635
3.4375
3.42204
3.41582
3.41402
3.41357
3.41346
3.33403
3.35742
3.37311
3.39003
3.40012
3.41109
3.4179
3.42571
3.43061
3.43624
3.43962
3.44333
3.44599
3.44963
3.4522
3.45555
3.45784
3.46075
3.46271
3.46517
3.46682
3.46886
3.47021
3.47188
3.47298
3.47433
3.47523
3.47635
3.47717
3.47834
3.47935
3.47987
3.48036
3.48064
3.48094
3.48112
3.48132
3.48144
3.48157
3.48165
3.48174
3.48179
3.48185
3.48188
3.48192
3.48194
3.48196
3.48198
3.48199
3.482
3.482
3.48201
3.48201
3.48201
3.48202
3.48202
3.48202
3.48202
3.48202
3.48202
3.48202
3.48202
3.48201
3.482
3.48198
3.48193
3.48184
3.48168
3.48129
3.48056
3.47873
3.4759
3.47303
3.4678
3.4624
3.45336
3.44956
3.44843
3.44814
3.44807
3.44478
3.45244
3.45771
3.46332
3.46671
3.47035
3.47264
3.47522
3.47687
3.47874
3.47988
3.48111
3.482
3.48321
3.48407
3.48518
3.48595
3.48691
3.48757
3.48839
3.48894
3.48962
3.49007
3.49062
3.49099
3.49144
3.49174
3.49212
3.49239
3.49278
3.49311
3.49329
3.49345
3.49355
3.49364
3.49371
3.49377
3.49381
3.49386
3.49388
3.49391
3.49393
3.49395
3.49396
3.49397
3.49398
3.49399
3.49399
3.494
3.494
3.494
3.494
3.494
3.494
3.49401
3.49401
3.49401
3.49401
3.49401
3.49401
3.49401
3.49401
3.494
3.494
3.49399
3.49398
3.49395
3.49389
3.49376
3.49351
3.49291
3.49197
3.491
3.48927
3.48745
3.48448
3.4832
3.48281
3.48271
3.48269
3.43698
3.44445
3.44921
3.45366
3.45606
3.45821
3.45939
3.46049
3.46111
3.46169
3.4621
3.46262
3.46299
3.46348
3.46384
3.4643
3.46463
3.46506
3.46538
3.46578
3.46606
3.46643
3.46668
3.46699
3.46721
3.46747
3.46765
3.46786
3.46802
3.46824
3.46842
3.46852
3.4686
3.46865
3.46869
3.46872
3.46875
3.46876
3.46878
3.46879
3.4688
3.46881
3.46881
3.46882
3.46882
3.46882
3.46882
3.46883
3.46883
3.46883
3.46883
3.46882
3.46882
3.46882
3.46882
3.46881
3.46881
3.4688
3.46879
3.46877
3.46875
3.46873
3.4687
3.46866
3.46859
3.46852
3.46839
3.46823
3.46791
3.46743
3.46636
3.46488
3.46354
3.46134
3.45922
3.4559
3.45448
3.45405
3.45394
3.45391
3.31065
3.33346
3.34765
3.36108
3.36818
3.37465
3.37816
3.3815
3.38332
3.38508
3.38628
3.38786
3.38898
3.39046
3.39151
3.3929
3.39389
3.3952
3.39612
3.39734
3.39819
3.39928
3.40003
3.40098
3.40162
3.40241
3.40294
3.4036
3.40407
3.40472
3.40528
3.40556
3.4058
3.40594
3.40608
3.40616
3.40624
3.40629
3.40634
3.40637
3.40641
3.40642
3.40644
3.40645
3.40646
3.40647
3.40647
3.40648
3.40648
3.40648
3.40648
3.40647
3.40647
3.40646
3.40645
3.40644
3.40642
3.4064
3.40636
3.40632
3.40626
3.4062
3.40609
3.40598
3.40578
3.40556
3.40516
3.40469
3.40372
3.40231
3.3991
3.39464
3.39067
3.38402
3.37771
3.36762
3.36339
3.36214
3.36182
3.36174
3.18341
3.22281
3.24612
3.26874
3.28033
3.29122
3.29694
3.30257
3.30554
3.3085
3.31045
3.31312
3.31495
3.31745
3.31916
3.32151
3.32313
3.32535
3.32686
3.32892
3.3303
3.33216
3.33338
3.33499
3.33603
3.33737
3.33823
3.33933
3.3401
3.34121
3.34214
3.3426
3.34301
3.34323
3.34347
3.3436
3.34374
3.34382
3.34391
3.34396
3.34401
3.34404
3.34407
3.34409
3.34411
3.34412
3.34413
3.34413
3.34413
3.34413
3.34413
3.34412
3.34411
3.3441
3.34408
3.34406
3.34403
3.34399
3.34393
3.34387
3.34377
3.34367
3.34348
3.3433
3.34296
3.34261
3.34195
3.34118
3.33956
3.33727
3.3319
3.32438
3.3179
3.30669
3.29634
3.2791
3.27219
3.2702
3.26969
3.26957
3.05459
3.1128
3.14462
3.17684
3.19251
3.208
3.21572
3.22375
3.22776
3.23195
3.23459
3.23842
3.24089
3.24447
3.24679
3.25016
3.25235
3.25552
3.25757
3.26052
3.2624
3.26505
3.26671
3.26901
3.27042
3.27234
3.2735
3.27509
3.27612
3.2777
3.27903
3.27964
3.28023
3.28053
3.28086
3.28104
3.28124
3.28135
3.28148
3.28155
3.28162
3.28166
3.28171
3.28173
3.28175
3.28177
3.28178
3.28178
3.28179
3.28179
3.28178
3.28178
3.28176
3.28175
3.28172
3.28169
3.28164
3.2816
3.28151
3.28143
3.28128
3.28114
3.28087
3.28063
3.28015
3.27968
3.27873
3.2777
3.27543
3.27235
3.26478
3.25409
3.24532
3.22932
3.21526
3.19018
3.18079
3.17819
3.17755
3.1774
2.92343
3.00384
3.0431
3.0856
3.10469
3.12508
3.13449
3.14509
3.14997
3.15547
3.15869
3.16377
3.16679
3.17154
3.17438
3.17885
3.18152
3.18574
3.18825
3.19217
3.19446
3.19799
3.20002
3.20307
3.2048
3.20734
3.20877
3.21086
3.21213
3.21421
3.21594
3.21669
3.21746
3.21782
3.21827
3.21848
3.21875
3.21889
3.21905
3.21913
3.21923
3.21928
3.21934
3.21937
3.2194
3.21942
3.21943
3.21944
3.21944
3.21944
3.21944
3.21943
3.21941
3.2194
3.21936
3.21933
3.21926
3.2192
3.21908
3.21899
3.21879
3.21862
3.21827
3.21797
3.21734
3.21677
3.21552
3.21428
3.21133
3.20761
3.19779
3.18372
3.17303
3.15188
3.13462
3.10063
3.08912
3.08612
3.08538
3.08522
2.78906
2.89653
2.94144
2.9953
3.01682
3.0426
3.05321
3.06665
3.07215
3.07908
3.08271
3.0892
3.09262
3.09869
3.1019
3.10761
3.11064
3.11603
3.11887
3.12388
3.12647
3.13098
3.13328
3.13719
3.13914
3.14239
3.144
3.14667
3.1481
3.15073
3.1529
3.15373
3.15471
3.15512
3.15568
3.15593
3.15627
3.15642
3.15663
3.15672
3.15685
3.15691
3.15698
3.15701
3.15706
3.15707
3.15709
3.1571
3.15711
3.1571
3.1571
3.15709
3.15707
3.15705
3.157
3.15696
3.15688
3.15681
3.15666
3.15655
3.1563
3.15611
3.15567
3.15533
3.15453
3.15389
3.15232
3.15092
3.14726
3.14312
3.13097
3.11321
3.10117
3.07429
3.05465
3.01018
2.99712
2.99395
2.9932
2.99304
2.65038
2.79172
2.83943
2.90629
2.92878
2.96073
2.97181
2.98853
2.99428
3.00281
3.00661
3.01475
3.01834
3.02595
3.02932
3.03649
3.03966
3.04642
3.0494
3.05568
3.05841
3.06407
3.06648
3.07138
3.07343
3.0775
3.07919
3.08253
3.08402
3.08727
3.08991
3.09078
3.09198
3.09241
3.09311
3.09337
3.0938
3.09395
3.09422
3.09431
3.09447
3.09453
3.09463
3.09466
3.09471
3.09473
3.09476
3.09476
3.09477
3.09477
3.09476
3.09475
3.09472
3.0947
3.09464
3.09461
3.0945
3.09443
3.09425
3.09413
3.09381
3.09361
3.09306
3.09271
3.09171
3.09105
3.08911
3.08766
3.08322
3.07896
3.06438
3.04248
3.0299
2.99641
2.97568
2.91848
2.90472
2.90169
2.901
2.90085
2.50604
2.69064
2.73664
2.81905
2.84036
2.87969
2.89019
2.91085
2.9163
2.92674
2.93034
2.94049
2.94391
2.95338
2.95659
2.96552
2.96854
2.97697
2.9798
2.98763
2.99023
2.99728
2.99958
3.00569
3.00764
3.01271
3.01432
3.01846
3.01988
3.02383
3.027
3.02781
3.02929
3.0297
3.03056
3.03081
3.03134
3.03149
3.03182
3.03191
3.03211
3.03216
3.03228
3.03231
3.03238
3.0324
3.03243
3.03243
3.03244
3.03244
3.03243
3.03242
3.03238
3.03237
3.03229
3.03226
3.03212
3.03206
3.03183
3.03172
3.03133
3.03114
3.03045
3.03012
3.02889
3.02826
3.02589
3.02452
3.01917
3.01521
2.99808
2.97138
2.95947
2.91803
2.89818
2.82505
2.8119
2.80934
2.80879
2.80866
2.35431
2.59511
2.63239
2.73425
2.75121
2.7998
2.80816
2.83378
2.83811
2.85094
2.85381
2.86649
2.86923
2.88107
2.88363
2.89478
2.8972
2.90773
2.91
2.91979
2.92187
2.93069
2.93252
2.94016
2.94172
2.94806
2.94935
2.95451
2.95563
2.96043
2.96418
2.96482
2.96664
2.96697
2.96804
2.96824
2.9689
2.96902
2.96943
2.9695
2.96975
2.96979
2.96994
2.96997
2.97005
2.97006
2.9701
2.97011
2.97011
2.97011
2.9701
2.97009
2.97005
2.97003
2.96994
2.96991
2.96975
2.9697
2.96941
2.96933
2.96884
2.96869
2.96784
2.96757
2.96605
2.96555
2.96263
2.96155
2.95508
2.95199
2.93217
2.8997
2.89023
2.83879
2.8228
2.72922
2.71867
2.71692
2.71656
2.71648
2.19293
2.50771
2.52556
2.65285
2.66079
2.72152
2.72544
2.75756
2.75959
2.77554
2.77689
2.79289
2.79418
2.80912
2.81033
2.8244
2.82554
2.83883
2.8399
2.85226
2.85324
2.86437
2.86524
2.87488
2.87561
2.88362
2.88422
2.89072
2.89124
2.89708
2.90149
2.90179
2.90406
2.90421
2.90556
2.90566
2.90649
2.90655
2.90706
2.90709
2.90741
2.90743
2.90761
2.90762
2.90773
2.90773
2.90778
2.90778
2.90779
2.90779
2.90778
2.90778
2.90772
2.90771
2.9076
2.90758
2.90738
2.90735
2.90699
2.90695
2.90634
2.90627
2.9052
2.90508
2.90317
2.90294
2.8993
2.8988
2.89085
2.88945
2.86678
2.8271
2.82267
2.75813
2.75054
2.63008
2.62508
2.62445
2.62432
2.62429
)
;

boundaryField
{
    F1_1
    {
        type            fixedValue;
        value           nonuniform List<scalar> 
80
(
2.10597
2.47019
2.47019
2.6152
2.6152
2.68512
2.68512
2.72379
2.72379
2.74736
2.74736
2.76076
2.76076
2.77584
2.77584
2.79093
2.79093
2.80557
2.80557
2.81936
2.81936
2.83187
2.83187
2.84275
2.84275
2.85179
2.85179
2.85913
2.85913
2.86556
2.87033
2.87033
2.87289
2.87289
2.87442
2.87442
2.87536
2.87536
2.87594
2.87594
2.8763
2.8763
2.87651
2.87651
2.87663
2.87663
2.87668
2.87668
2.87669
2.87669
2.87668
2.87668
2.87661
2.87661
2.87648
2.87648
2.87625
2.87625
2.87584
2.87584
2.87515
2.87515
2.87394
2.87394
2.87177
2.87177
2.86765
2.86765
2.85869
2.85869
2.83452
2.79022
2.79022
2.71682
2.71682
2.5784
2.5784
2.5784
2.5784
2.5784
)
;
    }
    F1_2
    {
        type            fixedValue;
        value           nonuniform List<scalar> 
80
(
2.25916
2.62656
2.62656
2.81505
2.81505
2.93754
2.93754
3.02638
3.02638
3.09136
3.09136
3.13105
3.13105
3.17369
3.17369
3.2126
3.2126
3.24628
3.24628
3.27467
3.27467
3.2982
3.2982
3.31741
3.31741
3.33295
3.33295
3.34559
3.34559
3.35704
3.36593
3.36593
3.3711
3.3711
3.37447
3.37447
3.37674
3.37674
3.37827
3.37827
3.37927
3.37927
3.37993
3.37993
3.38034
3.38034
3.3806
3.3806
3.38075
3.38075
3.38082
3.38082
3.38088
3.38088
3.38092
3.38092
3.38094
3.38094
3.38095
3.38095
3.38094
3.38094
3.38087
3.38087
3.38065
3.38065
3.37983
3.37983
3.37677
3.37677
3.36452
3.33661
3.33661
3.27983
3.27983
3.1545
3.1545
3.1545
3.1545
3.1545
)
;
    }
    F1_3
    {
        type            fixedValue;
        value           nonuniform List<scalar> 
80
(
2.25915
2.62654
2.62654
2.81503
2.81503
2.93751
2.93751
3.02634
3.02634
3.09133
3.09133
3.13101
3.13101
3.17365
3.17365
3.21256
3.21256
3.24624
3.24624
3.27464
3.27464
3.29817
3.29817
3.31739
3.31739
3.33293
3.33293
3.34557
3.34557
3.35702
3.36592
3.36592
3.37109
3.37109
3.37447
3.37447
3.37674
3.37674
3.37826
3.37826
3.37927
3.37927
3.37993
3.37993
3.38034
3.38034
3.3806
3.3806
3.38075
3.38075
3.38082
3.38082
3.38088
3.38088
3.38092
3.38092
3.38094
3.38094
3.38095
3.38095
3.38094
3.38094
3.38087
3.38087
3.38064
3.38064
3.37983
3.37983
3.37678
3.37678
3.36453
3.33662
3.33662
3.27986
3.27986
3.15454
3.15454
3.15454
3.15454
3.15454
)
;
    }
    F1_4
    {
        type            fixedValue;
        value           nonuniform List<scalar> 
80
(
2.10584
2.46989
2.46989
2.61449
2.61449
2.68349
2.68349
2.72004
2.72004
2.73813
2.73813
2.75639
2.75639
2.77342
2.77342
2.78946
2.78946
2.80462
2.80462
2.81871
2.81871
2.83141
2.83141
2.84241
2.84241
2.85155
2.85155
2.85896
2.85896
2.86546
2.87028
2.87028
2.87286
2.87286
2.87441
2.87441
2.87536
2.87536
2.87595
2.87595
2.87631
2.87631
2.87652
2.87652
2.87664
2.87664
2.87669
2.87669
2.87671
2.87671
2.87669
2.87669
2.87662
2.87662
2.87649
2.87649
2.87626
2.87626
2.87585
2.87585
2.87515
2.87515
2.87394
2.87394
2.87177
2.87177
2.86764
2.86764
2.85867
2.85867
2.83449
2.79016
2.79016
2.71674
2.71674
2.57827
2.57827
2.57827
2.57827
2.57827
)
;
    }
    F2_1
    {
        type            fixedValue;
        value           uniform 3.5;
    }
    F2_2
    {
        type            fixedValue;
        value           uniform 3.5;
    }
    F2_3
    {
        type            fixedValue;
        value           uniform 3.5;
    }
    F2_4
    {
        type            fixedValue;
        value           uniform 3.5;
    }
    defaultFaces
    {
        type            empty;
    }
}


// ************************************************************************* //
