/*--------------------------------*- C++ -*----------------------------------*\
| =========                 |                                                 |
| \\      /  F ield         | OpenFOAM: The Open Source CFD Toolbox           |
|  \\    /   O peration     | Version:  5.x                                   |
|   \\  /    A nd           | Web:      www.OpenFOAM.org                      |
|    \\/     M anipulation  |                                                 |
\*---------------------------------------------------------------------------*/
FoamFile
{
    version     2.0;
    format      ascii;
    class       volScalarField;
    location    "17.3";
    object      gradTy;
}
// * * * * * * * * * * * * * * * * * * * * * * * * * * * * * * * * * * * * * //

dimensions      [0 -1 0 1 0 0 0];

internalField   nonuniform List<scalar> 
2048
(
-26.4236
-26.3961
-26.3417
-26.262
-26.1592
-26.0358
-25.8946
-25.7383
-25.5697
-25.3915
-25.206
-25.0154
-24.8216
-24.6262
-24.4309
-24.2368
-24.0452
-23.8569
-23.6727
-23.4932
-23.3188
-23.1499
-22.9867
-22.8294
-22.6784
-22.5338
-22.3959
-22.2651
-22.1417
-22.0263
-21.9193
-21.8214
-21.7334
-21.656
-21.5903
-21.5372
-21.4979
-21.4735
-21.4653
-21.4745
-21.5023
-21.55
-21.6189
-21.71
-21.8245
-21.9629
-22.1257
-22.3128
-22.5236
-22.7567
-23.0096
-23.2793
-23.5613
-23.8504
-24.1406
-24.4253
-24.6976
-24.9511
-25.1796
-25.3777
-25.5412
-25.6666
-25.7515
-25.7943
-26.446
-26.4177
-26.3621
-26.2808
-26.1759
-26.0503
-25.9067
-25.7482
-25.5776
-25.3974
-25.2102
-25.018
-24.8228
-24.6262
-24.4298
-24.2349
-24.0425
-23.8536
-23.6689
-23.489
-23.3144
-23.1452
-22.9818
-22.8244
-22.6732
-22.5284
-22.3902
-22.2591
-22.1353
-22.0194
-21.9119
-21.8134
-21.7247
-21.6466
-21.5801
-21.5261
-21.4859
-21.4605
-21.4512
-21.4594
-21.4862
-21.5329
-21.6009
-21.6912
-21.805
-21.9431
-22.106
-22.2937
-22.5056
-22.7405
-22.9962
-23.2693
-23.5555
-23.8496
-24.1451
-24.4352
-24.7129
-24.9713
-25.2041
-25.4058
-25.572
-25.6994
-25.7855
-25.829
-26.4887
-26.4592
-26.4011
-26.3164
-26.2076
-26.0776
-25.9297
-25.7669
-25.5922
-25.4084
-25.2179
-25.0228
-24.825
-24.6261
-24.4277
-24.2311
-24.0373
-23.8472
-23.6617
-23.4811
-23.306
-23.1364
-22.9727
-22.815
-22.6634
-22.5181
-22.3795
-22.2477
-22.1233
-22.0065
-21.898
-21.7984
-21.7084
-21.6289
-21.5607
-21.5051
-21.463
-21.4358
-21.4246
-21.4308
-21.4556
-21.5005
-21.5667
-21.6555
-21.7681
-21.9055
-22.0684
-22.257
-22.4711
-22.7094
-22.9701
-23.2498
-23.5442
-23.8476
-24.1534
-24.4541
-24.7421
-25.01
-25.251
-25.4595
-25.6309
-25.7619
-25.8504
-25.895
-26.5499
-26.5185
-26.4569
-26.3672
-26.2526
-26.1162
-25.9619
-25.793
-25.6126
-25.4236
-25.2285
-25.0292
-24.8278
-24.6257
-24.4245
-24.2255
-24.0297
-23.8381
-23.6513
-23.4699
-23.294
-23.124
-22.9598
-22.8016
-22.6496
-22.5037
-22.3644
-22.2318
-22.1064
-21.9885
-21.8786
-21.7774
-21.6856
-21.604
-21.5336
-21.4756
-21.431
-21.4011
-21.3872
-21.3905
-21.4126
-21.4547
-21.5183
-21.6048
-21.7156
-21.8519
-22.0146
-22.2044
-22.4212
-22.6643
-22.932
-23.2211
-23.5271
-23.8441
-24.1648
-24.481
-24.784
-25.0656
-25.3184
-25.5364
-25.7151
-25.8512
-25.9428
-25.9889
-26.6283
-26.5944
-26.5279
-26.4317
-26.3092
-26.1646
-26.002
-25.8251
-25.6375
-25.4421
-25.2412
-25.0368
-24.8308
-24.6248
-24.4201
-24.218
-24.0198
-23.8262
-23.638
-23.4555
-23.279
-23.1084
-22.9437
-22.7851
-22.6324
-22.4859
-22.3457
-22.2121
-22.0855
-21.9661
-21.8546
-21.7513
-21.6572
-21.5731
-21.4999
-21.4388
-21.391
-21.3578
-21.3404
-21.3402
-21.3587
-21.3973
-21.4576
-21.5411
-21.6493
-21.7839
-21.9461
-22.1369
-22.3569
-22.6057
-22.8819
-23.1829
-23.5039
-23.8385
-24.1787
-24.515
-24.8376
-25.137
-25.4049
-25.6349
-25.8224
-25.9647
-26.0601
-26.1079
-26.7229
-26.6857
-26.6131
-26.5085
-26.3762
-26.2213
-26.0485
-25.8621
-25.666
-25.4629
-25.2553
-25.0451
-24.8338
-24.6231
-24.4143
-24.2087
-24.0076
-23.8118
-23.622
-23.4384
-23.2611
-23.09
-22.9249
-22.7657
-22.6124
-22.4651
-22.324
-22.1893
-22.0612
-21.9403
-21.8267
-21.7212
-21.6244
-21.5372
-21.4606
-21.396
-21.3444
-21.3072
-21.2857
-21.2813
-21.2956
-21.3299
-21.3861
-21.4657
-21.5707
-21.7029
-21.864
-22.0556
-22.2787
-22.5337
-22.8199
-23.1348
-23.4737
-23.83
-24.1942
-24.5555
-24.9023
-25.2234
-25.5095
-25.7536
-25.9513
-26.1003
-26.1997
-26.2493
-26.8331
-26.7918
-26.7115
-26.5965
-26.4523
-26.2849
-26.1001
-25.9028
-25.6968
-25.4853
-25.2703
-25.0535
-24.8364
-24.6205
-24.407
-24.1975
-23.9932
-23.7949
-23.6034
-23.4187
-23.2408
-23.0693
-22.9038
-22.7441
-22.5902
-22.442
-22.2998
-22.1639
-22.0344
-21.9116
-21.7959
-21.6877
-21.5878
-21.4972
-21.4168
-21.3481
-21.2922
-21.2505
-21.2243
-21.2152
-21.2245
-21.2539
-21.3052
-21.3803
-21.4812
-21.6102
-21.7694
-21.9611
-22.1871
-22.4485
-22.7455
-23.076
-23.4359
-23.8176
-24.2105
-24.6019
-24.9777
-25.3246
-25.6317
-25.8916
-26.1003
-26.2562
-26.3595
-26.4108
-26.9584
-26.912
-26.8223
-26.6947
-26.5363
-26.3543
-26.1556
-25.9458
-25.729
-25.5083
-25.2854
-25.0617
-24.8384
-24.6167
-24.3982
-24.1843
-23.9764
-23.7755
-23.5823
-23.3966
-23.2182
-23.0465
-22.8808
-22.7207
-22.5661
-22.417
-22.2737
-22.1364
-22.0054
-21.8807
-21.7627
-21.6517
-21.5484
-21.4539
-21.3693
-21.296
-21.2353
-21.1887
-21.1574
-21.143
-21.1468
-21.1707
-21.2164
-21.286
-21.382
-21.5069
-21.6633
-21.8542
-22.0823
-22.3499
-22.658
-23.0058
-23.3892
-23.8003
-24.227
-24.6539
-25.0637
-25.4404
-25.7713
-26.0484
-26.2683
-26.4307
-26.5374
-26.5901
-27.0986
-27.0461
-26.945
-26.8024
-26.627
-26.428
-26.2136
-25.99
-25.7617
-25.5313
-25.3002
-25.0694
-24.8395
-24.6118
-24.3877
-24.169
-23.9573
-23.7537
-23.5587
-23.3723
-23.1937
-23.022
-22.8563
-22.6958
-22.5406
-22.3905
-22.2461
-22.1075
-21.9749
-21.8483
-21.7278
-21.6138
-21.5069
-21.4082
-21.3189
-21.2407
-21.1748
-21.1228
-21.086
-21.0658
-21.0637
-21.0814
-21.1208
-21.1843
-21.2744
-21.3941
-21.5466
-21.7356
-21.9647
-22.2377
-22.5569
-22.9229
-23.3323
-23.7768
-24.2427
-24.711
-25.1606
-25.5715
-25.9286
-26.2236
-26.4542
-26.6223
-26.7314
-26.7849
-27.254
-27.194
-27.0791
-26.9185
-26.7233
-26.5048
-26.2727
-26.0342
-25.7937
-25.5536
-25.3144
-25.0763
-24.8398
-24.6056
-24.3756
-24.1516
-23.9357
-23.7292
-23.5327
-23.3459
-23.1675
-22.9962
-22.8307
-22.67
-22.514
-22.363
-22.2173
-22.0773
-21.9432
-21.8148
-21.6919
-21.5747
-21.4639
-21.3606
-21.2663
-21.1827
-21.1113
-21.0536
-21.011
-20.9847
-20.9762
-20.9872
-21.0197
-21.0762
-21.1595
-21.273
-21.4203
-21.6058
-21.8346
-22.1117
-22.4414
-22.8262
-23.2638
-23.7459
-24.2567
-24.7733
-25.2689
-25.7185
-26.1041
-26.4171
-26.6573
-26.8293
-26.9393
-26.9928
-27.4246
-27.3556
-27.2243
-27.0424
-26.824
-26.5833
-26.3317
-26.0772
-25.8243
-25.5745
-25.3275
-25.0824
-24.8391
-24.5982
-24.3617
-24.1319
-23.9115
-23.7022
-23.5044
-23.3175
-23.1398
-22.9694
-22.8044
-22.6436
-22.4869
-22.3346
-22.1876
-22.0463
-21.9109
-21.7807
-21.6554
-21.5349
-21.42
-21.3118
-21.212
-21.1227
-21.0455
-20.9819
-20.9332
-20.9006
-20.8854
-20.8892
-20.9141
-20.9629
-21.0385
-21.1446
-21.2853
-21.4658
-21.6923
-21.9717
-22.3107
-22.7141
-23.1818
-23.7057
-24.2679
-24.8405
-25.3894
-25.8827
-26.2986
-26.6291
-26.8768
-27.0502
-27.1591
-27.2115
-27.6111
-27.5313
-27.3802
-27.1731
-26.9279
-26.6621
-26.3891
-26.1178
-25.8525
-25.5936
-25.3394
-25.0877
-24.8376
-24.5897
-24.3461
-24.11
-23.8848
-23.6724
-23.4735
-23.2872
-23.111
-22.942
-22.7778
-22.6169
-22.4593
-22.3057
-22.1572
-22.0148
-21.8781
-21.7464
-21.6188
-21.495
-21.3757
-21.2622
-21.1566
-21.0612
-20.978
-20.9083
-20.8534
-20.8143
-20.792
-20.7882
-20.8051
-20.8455
-20.9125
-21.0101
-21.1427
-21.3164
-21.5384
-21.8177
-22.164
-22.5854
-23.0845
-23.6545
-24.2752
-24.9128
-25.5235
-26.0657
-26.5134
-26.8597
-27.1117
-27.2833
-27.3885
-27.4383
-27.8141
-27.7212
-27.5467
-27.3098
-27.0337
-26.7397
-26.4435
-26.1548
-25.8775
-25.6105
-25.35
-25.0922
-24.8354
-24.5801
-24.3288
-24.0857
-23.8552
-23.6398
-23.4402
-23.255
-23.0811
-22.9143
-22.7512
-22.5904
-22.4318
-22.2765
-22.1264
-21.9828
-21.8453
-21.7124
-21.5827
-21.4555
-21.3315
-21.2123
-21.1005
-20.9987
-20.9092
-20.8333
-20.7722
-20.7265
-20.697
-20.6853
-20.6936
-20.7249
-20.7826
-20.8706
-20.9937
-21.1585
-21.3735
-21.6498
-22.0005
-22.4382
-22.9697
-23.5898
-24.2771
-24.9903
-25.6727
-26.2698
-26.7502
-27.1094
-27.3613
-27.5266
-27.625
-27.6706
-28.0343
-27.9258
-27.7235
-27.4517
-27.14
-26.8146
-26.4934
-26.1869
-25.8985
-25.6248
-25.3593
-25.0963
-24.833
-24.5699
-24.31
-24.0589
-23.8226
-23.6041
-23.4042
-23.2212
-23.0505
-22.8867
-22.7253
-22.5645
-22.4045
-22.2471
-22.095
-21.9504
-21.8126
-21.679
-21.5473
-21.4168
-21.2879
-21.1625
-21.0439
-20.9355
-20.8395
-20.7574
-20.6901
-20.6379
-20.6012
-20.5812
-20.5805
-20.6022
-20.6498
-20.7273
-20.8395
-20.9934
-21.1985
-21.4682
-21.8197
-22.2711
-22.8348
-23.5091
-24.2715
-25.0731
-25.8394
-26.498
-27.0108
-27.3784
-27.6243
-27.7783
-27.8662
-27.9057
-28.273
-28.1458
-27.9104
-27.5978
-27.2452
-26.8851
-26.5374
-26.2131
-25.9148
-25.6363
-25.3676
-25.1002
-24.8306
-24.5593
-24.2897
-24.0295
-23.7868
-23.5652
-23.3655
-23.1856
-23.0195
-22.8596
-22.7002
-22.5394
-22.3778
-22.2176
-22.0632
-21.9177
-21.7802
-21.6466
-21.5133
-21.3793
-21.2452
-21.1131
-20.9872
-20.8718
-20.7693
-20.6811
-20.6078
-20.5492
-20.5051
-20.4767
-20.4665
-20.4781
-20.5151
-20.5812
-20.6811
-20.8222
-21.0145
-21.2734
-21.621
-22.0824
-22.6774
-23.4092
-24.2562
-25.1614
-26.0266
-26.7537
-27.2973
-27.667
-27.8997
-28.0362
-28.1093
-28.1407
-28.5312
-28.3816
-28.1074
-27.7469
-27.3476
-26.9496
-26.5741
-26.232
-25.9257
-25.645
-25.3753
-25.1044
-24.8287
-24.5488
-24.268
-23.9973
-23.7477
-23.5229
-23.3237
-23.1483
-22.9883
-22.8337
-22.6766
-22.5156
-22.3519
-22.188
-22.0305
-21.8846
-21.7482
-21.6154
-21.4809
-21.3435
-21.204
-21.0645
-20.9305
-20.8078
-20.6988
-20.6045
-20.5256
-20.4609
-20.4096
-20.3725
-20.3523
-20.3534
-20.3794
-20.4335
-20.52
-20.6464
-20.8228
-21.0661
-21.404
-21.8704
-22.4947
-23.2865
-24.228
-25.2552
-26.2381
-27.0414
-27.6124
-27.9754
-28.1857
-28.2977
-28.3518
-28.373
-28.8104
-28.6339
-28.3144
-27.8979
-27.4452
-27.0065
-26.6019
-26.2424
-25.9306
-25.6509
-25.3829
-25.1094
-24.8277
-24.539
-24.2452
-23.9619
-23.7049
-23.4768
-23.2787
-23.1093
-22.9574
-22.8094
-22.6549
-22.4935
-22.3272
-22.1583
-21.9968
-21.851
-21.7169
-21.586
-21.4505
-21.3096
-21.1646
-21.0167
-20.8738
-20.7437
-20.6282
-20.528
-20.4438
-20.3735
-20.3152
-20.2691
-20.2386
-20.2287
-20.2435
-20.2852
-20.3573
-20.4674
-20.625
-20.8474
-21.1689
-21.6337
-22.2838
-23.1369
-24.1826
-25.3545
-26.479
-27.3665
-27.9586
-28.3032
-28.4805
-28.5604
-28.5908
-28.5998
-29.1122
-28.9035
-28.5316
-28.0495
-27.5359
-27.0543
-26.6196
-26.243
-25.9289
-25.6543
-25.3912
-25.1159
-24.8282
-24.5305
-24.2212
-23.9228
-23.6583
-23.4268
-23.23
-23.0686
-22.927
-22.7874
-22.6355
-22.4732
-22.304
-22.1284
-21.9616
-21.8164
-21.6863
-21.5588
-21.4225
-21.2781
-21.1274
-20.97
-20.8171
-20.6796
-20.5576
-20.4517
-20.3629
-20.2876
-20.2225
-20.1671
-20.1257
-20.1046
-20.1082
-20.1374
-20.1941
-20.2868
-20.4231
-20.6186
-20.9157
-21.3707
-22.0422
-22.956
-24.1144
-25.4588
-26.7559
-27.7355
-28.3385
-28.6497
-28.7817
-28.8214
-28.8237
-28.8184
-29.4384
-29.1907
-28.7591
-28.2002
-27.617
-27.0914
-26.6261
-26.2322
-25.9202
-25.6555
-25.4014
-25.1242
-24.8305
-24.5245
-24.1963
-23.8794
-23.6078
-23.3728
-23.1771
-23.0261
-22.8975
-22.7685
-22.6188
-22.4551
-22.283
-22.0983
-21.9239
-21.7806
-21.6565
-21.5343
-21.3972
-21.249
-21.093
-20.9246
-20.76
-20.6154
-20.4871
-20.3756
-20.2832
-20.2036
-20.1322
-20.067
-20.0141
-19.9815
-19.9742
-19.9911
-20.0316
-20.1062
-20.2192
-20.3815
-20.6451
-21.0801
-21.7675
-22.739
-24.0157
-25.5671
-27.0778
-28.1562
-28.7543
-29.0135
-29.0864
-29.0779
-29.0478
-29.0266
-29.7913
-29.4957
-28.9977
-28.3483
-27.685
-27.1171
-26.6206
-26.2085
-25.9041
-25.6548
-25.4148
-25.135
-24.8346
-24.5224
-24.1706
-23.8305
-23.5533
-23.3146
-23.119
-22.9817
-22.8694
-22.7538
-22.6052
-22.4392
-22.2649
-22.0677
-21.8829
-21.7433
-21.6277
-21.5134
-21.3748
-21.2225
-21.0622
-20.8805
-20.7022
-20.5514
-20.417
-20.2996
-20.2048
-20.1218
-20.0447
-19.9693
-19.9041
-19.8595
-19.8421
-19.8473
-19.8704
-19.9271
-20.016
-20.138
-20.358
-20.7606
-21.4578
-22.4812
-23.8764
-25.6775
-27.4568
-28.6376
-29.2079
-29.3923
-29.3914
-29.3267
-29.2608
-29.2223
-30.1732
-29.8179
-29.2488
-28.492
-27.7359
-27.1308
-26.6025
-26.1696
-25.8804
-25.6528
-25.4336
-25.1483
-24.8404
-24.5262
-24.1443
-23.7742
-23.4955
-23.2525
-23.0548
-22.9356
-22.843
-22.7447
-22.5947
-22.4252
-22.251
-22.0367
-21.8368
-21.7039
-21.6
-21.497
-21.3554
-21.1984
-21.0358
-20.8379
-20.6428
-20.4877
-20.3473
-20.2236
-20.128
-20.0428
-19.9607
-19.8742
-19.7957
-19.7388
-19.7122
-19.7071
-19.7113
-19.751
-19.8167
-19.8902
-20.0559
-20.4107
-21.1125
-22.1787
-23.6822
-25.7864
-27.909
-29.1899
-29.6998
-29.7825
-29.6927
-29.565
-29.4603
-29.4036
-30.5874
-30.1556
-29.5146
-28.6294
-27.7638
-27.1332
-26.5721
-26.1126
-25.8493
-25.6496
-25.4606
-25.1643
-24.8469
-24.5392
-24.1175
-23.7079
-23.4352
-23.1867
-22.9825
-22.8877
-22.8185
-22.7431
-22.5875
-22.4125
-22.2432
-22.005
-21.7835
-21.6623
-21.5733
-21.4866
-21.339
-21.1761
-21.0155
-20.7967
-20.5804
-20.4246
-20.2784
-20.1471
-20.0531
-19.9668
-19.8811
-19.7822
-19.6891
-19.6192
-19.5851
-19.5716
-19.5542
-19.5789
-19.6249
-19.6405
-19.7408
-20.0282
-20.732
-21.829
-23.414
-25.8882
-28.4571
-29.8242
-30.2293
-30.1796
-29.9862
-29.7897
-29.6445
-29.5692
-31.038
-30.505
-29.7996
-28.7584
-27.761
-27.1268
-26.5302
-26.0334
-25.8114
-25.6453
-25.5
-25.1821
-24.8519
-24.5659
-24.0903
-23.6272
-23.3745
-23.1183
-22.8997
-22.8387
-22.7959
-22.7517
-22.5829
-22.3997
-22.2444
-21.9725
-21.7199
-21.6184
-21.5475
-21.4842
-21.3252
-21.1545
-21.0033
-20.757
-20.5132
-20.3632
-20.2106
-20.0692
-19.9805
-19.894
-19.8065
-19.6935
-19.5842
-19.5004
-19.4609
-19.4425
-19.3986
-19.4117
-19.4452
-19.3909
-19.4158
-19.6099
-20.3184
-21.433
-23.046
-25.9739
-29.132
-30.552
-30.793
-30.5776
-30.2674
-29.9982
-29.8118
-29.7181
-31.5302
-30.8593
-30.1106
-28.8768
-27.7167
-27.1161
-26.4786
-25.9261
-25.7688
-25.6388
-25.5573
-25.2007
-24.8516
-24.6131
-24.0628
-23.526
-23.3167
-23.0484
-22.8024
-22.7896
-22.7744
-22.7741
-22.5803
-22.3842
-22.2589
-21.9393
-21.6419
-21.5728
-21.5219
-21.493
-21.3134
-21.1317
-21.0026
-20.7188
-20.4382
-20.3046
-20.1445
-19.9887
-19.9108
-19.8244
-19.7382
-19.6083
-19.481
-19.3816
-19.3397
-19.322
-19.2433
-19.2493
-19.2834
-19.1431
-19.0854
-19.1507
-19.876
-20.9966
-22.5432
-26.0296
-29.977
-31.3838
-31.385
-30.9694
-30.5317
-30.188
-29.9612
-29.8497
-32.0715
-31.2066
-30.459
-28.9823
-27.6157
-27.1096
-26.4202
-25.782
-25.725
-25.6275
-25.6409
-25.2177
-24.8399
-24.6908
-24.0351
-23.3949
-23.2675
-22.9792
-22.685
-22.7429
-22.7523
-22.8158
-22.578
-22.362
-22.293
-21.9051
-21.5432
-21.5273
-21.4951
-21.5171
-21.3023
-21.1044
-21.018
-20.6819
-20.3511
-20.2513
-20.0808
-19.9035
-19.8449
-19.758
-19.6774
-19.5264
-19.3793
-19.2619
-19.2213
-19.2131
-19.086
-19.0912
-19.1469
-18.8974
-18.7562
-18.6421
-19.411
-20.5338
-21.8589
-26.0347
-31.0516
-32.3274
-31.9954
-31.3466
-30.7746
-30.3573
-30.0919
-29.9638
-32.6723
-31.5279
-30.862
-29.0726
-27.4366
-27.1206
-26.3593
-25.5884
-25.6868
-25.6062
-25.7627
-25.2297
-24.8069
-24.8137
-24.0072
-23.2204
-23.2358
-22.9134
-22.5388
-22.7029
-22.7261
-22.8846
-22.5739
-22.3268
-22.3562
-21.87
-21.4158
-21.4853
-21.4644
-21.5629
-21.2902
-21.0676
-21.0567
-20.6461
-20.2457
-20.2071
-20.0205
-19.8107
-19.7847
-19.6938
-19.626
-19.4478
-19.2792
-19.1402
-19.1049
-19.1203
-18.9228
-18.9352
-19.0455
-18.652
-18.4386
-18.0709
-18.9319
-20.071
-20.9309
-25.9592
-32.4382
-33.385
-32.6101
-31.7
-30.992
-30.5045
-30.2036
-30.0605
-33.3475
-31.7937
-31.3459
-29.1454
-27.1497
-27.1699
-26.3017
-25.3271
-25.6658
-25.5651
-25.9397
-25.2316
-24.7378
-25.0025
-23.9787
-22.9832
-23.235
-22.8551
-22.3519
-22.6768
-22.6893
-22.9915
-22.5643
-22.269
-22.4617
-21.8335
-21.248
-21.453
-21.4247
-21.6391
-21.2742
-21.0139
-21.1288
-20.6109
-20.1132
-20.1778
-19.9648
-19.7058
-19.7327
-19.6304
-19.5865
-19.3719
-19.1809
-19.0146
-18.9892
-19.0501
-18.7484
-18.7774
-18.9927
-18.4017
-18.148
-17.4167
-18.449
-19.6519
-19.6777
-25.7602
-34.2495
-34.5486
-33.2103
-32.0204
-31.1805
-30.6288
-30.2966
-30.1404
-34.1181
-31.9598
-31.9491
-29.1987
-26.7137
-27.288
-26.2551
-24.9719
-25.6806
-25.488
-26.1956
-25.2163
-24.611
-25.2862
-23.9492
-22.6564
-23.2846
-22.8092
-22.1068
-22.6768
-22.6311
-23.1523
-22.5447
-22.1746
-22.6284
-21.7953
-21.0242
-21.4408
-21.3675
-21.7586
-21.2507
-20.9325
-21.2484
-20.5757
-19.9414
-20.172
-19.9153
-19.5826
-19.6933
-19.5652
-19.5625
-19.2973
-19.0848
-18.8832
-18.8716
-19.012
-18.5551
-18.6116
-19.0068
-18.1354
-17.9081
-16.6496
-17.9732
-19.3444
-17.9932
-25.3771
-36.6387
-35.7943
-33.7728
-32.2988
-31.3376
-30.73
-30.3712
-30.2042
-35.0134
-31.9619
-32.7266
-29.23
-26.0724
-27.5184
-26.2288
-24.4862
-25.7606
-25.3485
-26.564
-25.1744
-24.3961
-25.705
-23.9178
-22.2031
-23.4129
-22.7819
-21.7792
-22.7218
-22.5341
-23.3889
-22.5086
-22.024
-22.882
-21.7541
-20.7232
-21.465
-21.279
-21.9388
-21.2144
-20.8083
-21.4352
-20.5393
-19.7139
-20.2021
-19.8736
-19.4323
-19.6731
-19.4937
-19.5587
-19.2222
-18.9922
-18.7437
-18.7481
-19.0194
-18.3326
-18.4284
-19.1131
-17.8338
-17.7538
-15.7267
-17.5145
-19.2485
-15.7411
-24.7268
-39.8116
-37.0738
-34.2709
-32.5273
-31.4618
-30.8085
-30.4284
-30.2528
-36.0746
-31.7087
-33.7558
-29.2372
-25.1503
-27.9219
-26.2339
-23.8194
-25.9497
-25.1064
-27.091
-25.0933
-24.0509
-26.3131
-23.8829
-21.5736
-23.6588
-22.7809
-21.3355
-22.8405
-22.3719
-23.7315
-22.4477
-21.7901
-23.2576
-21.7083
-20.3167
-21.5504
-21.1382
-22.204
-21.1585
-20.6204
-21.716
-20.4998
-19.4082
-20.2856
-19.8414
-19.2428
-19.6819
-19.409
-19.5821
-19.1434
-18.9049
-18.5932
-18.6122
-19.0906
-18.0674
-18.2139
-19.3464
-17.4653
-17.7364
-14.5882
-17.0793
-19.5069
-12.7486
-23.6962
-44.0417
-38.304
-34.6765
-32.7002
-31.5528
-30.865
-30.4693
-30.2875
-37.3573
-31.0741
-35.1425
-29.2175
-23.848
-28.5808
-26.2834
-22.9031
-26.3124
-24.702
-27.8391
-24.9573
-23.5182
-27.1824
-23.8421
-20.7022
-24.0755
-22.8148
-20.7305
-23.075
-22.1051
-24.2214
-22.3512
-21.4362
-23.8018
-21.655
-19.7671
-21.733
-20.9135
-22.5874
-21.0742
-20.3407
-22.1263
-20.4546
-18.9954
-20.4466
-19.8202
-18.9981
-19.7338
-19.3008
-19.642
-19.0557
-18.8259
-18.4291
-18.4543
-19.2508
-17.7421
-17.9484
-19.7544
-16.9814
-17.9289
-13.1535
-16.6673
-20.3159
-8.7997
-22.1346
-49.6875
-39.3538
-34.9631
-32.8145
-31.6114
-30.901
-30.4953
-30.3094
-38.9366
-29.8874
-37.0289
-29.1674
-22.0356
-29.6048
-26.3914
-21.646
-26.9402
-24.0495
-28.892
-24.7463
-22.7228
-28.4066
-23.792
-19.5034
-24.7337
-22.8934
-19.9034
-23.4844
-21.6771
-24.9131
-22.2051
-20.9139
-24.5756
-21.5895
-19.0248
-22.063
-20.5587
-23.1322
-20.9496
-19.9319
-22.7126
-20.3993
-18.437
-20.7168
-19.8107
-18.6767
-19.849
-19.1539
-19.7512
-18.952
-18.7596
-18.2483
-18.2599
-19.5332
-17.3347
-17.6049
-20.4012
-16.3106
-18.4333
-11.3164
-16.2661
-21.9385
-3.62756
-19.8439
-57.2129
-40.0274
-35.1109
-32.8703
-31.6396
-30.9182
-30.5076
-30.3198
)
;

boundaryField
{
    left
    {
        type            calculated;
        value           nonuniform List<scalar> 
32
(
-26.4236
-26.446
-26.4887
-26.5499
-26.6283
-26.7229
-26.8331
-26.9584
-27.0986
-27.254
-27.4246
-27.6111
-27.8141
-28.0343
-28.273
-28.5312
-28.8104
-29.1122
-29.4384
-29.7913
-30.1732
-30.5874
-31.038
-31.5302
-32.0715
-32.6723
-33.3475
-34.1181
-35.0134
-36.0746
-37.3573
-38.9366
)
;
    }
    right
    {
        type            calculated;
        value           nonuniform List<scalar> 
32
(
-25.7943
-25.829
-25.895
-25.9889
-26.1079
-26.2493
-26.4108
-26.5901
-26.7849
-26.9928
-27.2115
-27.4383
-27.6706
-27.9057
-28.1407
-28.373
-28.5998
-28.8184
-29.0266
-29.2223
-29.4036
-29.5692
-29.7181
-29.8497
-29.9638
-30.0605
-30.1404
-30.2042
-30.2528
-30.2875
-30.3094
-30.3198
)
;
    }
    interface
    {
        type            calculated;
        value           nonuniform List<scalar> 
64
(
-39.8111
-29.1316
-38.1173
-29.1342
-20.9837
-30.2237
-26.462
-20.9193
-27.3336
-23.6487
-29.5065
-24.6192
-22.2487
-29.1207
-23.764
-18.81
-25.1331
-22.9451
-19.4256
-23.7415
-21.4144
-25.3171
-22.1177
-20.6039
-25.0286
-21.5532
-18.5985
-22.2719
-20.3419
-23.4511
-20.8757
-19.69
-23.0564
-20.3685
-18.1161
-20.8836
-19.8089
-18.4938
-19.9253
-19.0687
-19.8201
-18.8949
-18.7302
-18.1533
-18.1516
-19.7096
-17.1075
-17.4097
-20.7935
-15.9178
-18.7782
-10.2821
-16.0657
-22.9908
-0.698941
-18.4882
-61.5106
-40.2411
-35.1482
-32.8839
-31.6464
-30.9223
-30.5106
-30.3222
)
;
    }
    bottom
    {
        type            calculated;
        value           nonuniform List<scalar> 
64
(
-26.4178
-26.3904
-26.3364
-26.2572
-26.1549
-26.0321
-25.8914
-25.7357
-25.5677
-25.39
-25.2049
-25.0147
-24.8212
-24.6262
-24.4311
-24.2373
-24.0459
-23.8578
-23.6737
-23.4943
-23.3199
-23.1511
-22.9879
-22.8307
-22.6798
-22.5352
-22.3974
-22.2667
-22.1434
-22.0281
-21.9212
-21.8235
-21.7356
-21.6585
-21.593
-21.5401
-21.5011
-21.477
-21.469
-21.4784
-21.5065
-21.5545
-21.6236
-21.7149
-21.8295
-21.968
-22.1308
-22.3178
-22.5283
-22.7608
-23.0131
-23.2819
-23.5628
-23.8506
-24.1394
-24.4227
-24.6936
-24.9458
-25.1732
-25.3704
-25.5332
-25.6581
-25.7427
-25.7853
)
;
    }
    defaultFaces
    {
        type            empty;
    }
}


// ************************************************************************* //
