/*--------------------------------*- C++ -*----------------------------------*\
| =========                 |                                                 |
| \\      /  F ield         | OpenFOAM: The Open Source CFD Toolbox           |
|  \\    /   O peration     | Version:  5.x                                   |
|   \\  /    A nd           | Web:      www.OpenFOAM.org                      |
|    \\/     M anipulation  |                                                 |
\*---------------------------------------------------------------------------*/
FoamFile
{
    version     2.0;
    format      ascii;
    class       volScalarField;
    location    "10.4";
    object      gradTx;
}
// * * * * * * * * * * * * * * * * * * * * * * * * * * * * * * * * * * * * * //

dimensions      [0 -1 0 1 0 0 0];

internalField   nonuniform List<scalar> 
2048
(
0.00630496
0.0187344
0.0306389
0.0417204
0.0517501
0.0605787
0.0681357
0.0744191
0.0794783
0.0833964
0.0862731
0.0882127
0.0893172
0.0896834
0.0894037
0.0885673
0.087261
0.0855684
0.0835673
0.0813261
0.0789006
0.0763315
0.0736437
0.0708474
0.0679401
0.0649099
0.0617372
0.0583965
0.0548568
0.0510823
0.0470327
0.0426645
0.0379324
0.0327919
0.0272011
0.0211224
0.0145236
0.00737844
-0.000332611
-0.00862124
-0.017489
-0.0269236
-0.0368936
-0.0473417
-0.0581763
-0.0692627
-0.0804136
-0.091382
-0.101857
-0.111465
-0.119783
-0.12636
-0.130754
-0.132571
-0.131513
-0.127417
-0.120278
-0.110248
-0.097616
-0.0827655
-0.0661299
-0.0481505
-0.029247
-0.00980744
0.0187885
0.0558182
0.0912572
0.124207
0.153981
0.180139
0.202481
0.221015
0.235903
0.247403
0.255821
0.261471
0.264656
0.265662
0.264762
0.262217
0.258286
0.253218
0.247246
0.240574
0.23337
0.225755
0.2178
0.209535
0.200951
0.192009
0.182651
0.1728
0.162365
0.15124
0.139305
0.126429
0.112476
0.097314
0.0808172
0.0628736
0.0433874
0.0222806
-0.0005056
-0.0250077
-0.0512333
-0.0791505
-0.108672
-0.139635
-0.171776
-0.204705
-0.237875
-0.270558
-0.301832
-0.330586
-0.35555
-0.375362
-0.388676
-0.394292
-0.391299
-0.379195
-0.357964
-0.328076
-0.290414
-0.246153
-0.196609
-0.14311
-0.0869055
-0.0291384
0.0311402
0.0924836
0.151108
0.205487
0.254475
0.297356
0.333831
0.363958
0.388049
0.406569
0.420048
0.429017
0.433975
0.435387
0.433694
0.429322
0.422693
0.41422
0.404295
0.39326
0.381395
0.368899
0.355887
0.3424
0.328415
0.313864
0.298649
0.282642
0.265694
0.247631
0.228253
0.207343
0.184674
0.160024
0.133183
0.103965
0.0722146
0.0378013
0.000626683
-0.039374
-0.0822225
-0.12788
-0.176221
-0.227001
-0.279813
-0.334043
-0.388818
-0.442963
-0.494969
-0.542992
-0.584902
-0.618388
-0.64114
-0.651079
-0.646614
-0.626866
-0.591804
-0.542256
-0.479771
-0.406391
-0.324374
-0.235962
-0.143224
-0.0480094
0.0435999
0.129427
0.211276
0.286942
0.3548
0.413877
0.463828
0.504824
0.537394
0.562261
0.580213
0.592009
0.598341
0.599838
0.597091
0.590679
0.581184
0.569187
0.555242
0.539843
0.523383
0.50614
0.488265
0.469798
0.450695
0.43085
0.410121
0.388331
0.365276
0.340715
0.314371
0.285935
0.255086
0.221506
0.184901
0.145012
0.101622
0.0545527
0.00366398
-0.0511426
-0.109914
-0.172622
-0.239129
-0.30914
-0.382144
-0.457346
-0.533595
-0.609308
-0.682414
-0.750337
-0.810049
-0.85821
-0.891425
-0.906599
-0.901335
-0.874296
-0.825437
-0.756017
-0.668384
-0.565595
-0.450975
-0.327746
-0.198794
-0.066611
0.0563833
0.16727
0.272724
0.369775
0.45629
0.531073
0.593804
0.64486
0.685079
0.715519
0.737268
0.751328
0.758576
0.759781
0.755661
0.746929
0.734326
0.718608
0.700509
0.680685
0.659658
0.637779
0.615227
0.592028
0.568097
0.543281
0.517388
0.490198
0.461455
0.430857
0.398045
0.362616
0.324144
0.282212
0.236434
0.186479
0.132071
0.0729867
0.00904614
-0.0598891
-0.133904
-0.213005
-0.29707
-0.385794
-0.478609
-0.574596
-0.672381
-0.770027
-0.864938
-0.953809
-1.03266
-1.097
-1.14217
-1.16387
-1.15869
-1.12471
-1.06186
-0.971949
-0.858334
-0.725319
-0.577485
-0.419136
-0.253976
-0.0850564
0.0696953
0.206601
0.336345
0.455078
0.560127
0.650115
0.724849
0.78504
0.831961
0.8671
0.891901
0.907621
0.915299
0.91581
0.909963
0.898586
0.882573
0.862872
0.840421
0.816065
0.790465
0.764051
0.737011
0.709335
0.680876
0.651417
0.620714
0.588507
0.554501
0.518336
0.479572
0.437703
0.392185
0.342486
0.288128
0.228706
0.163892
0.093423
0.0170813
-0.0653153
-0.153905
-0.24875
-0.349782
-0.456729
-0.569021
-0.685678
-0.805177
-0.925298
-1.04297
-1.15418
-1.25392
-1.33642
-1.39554
-1.42544
-1.42144
-1.38086
-1.30359
-1.19215
-1.0512
-0.886628
-0.704544
-0.510468
-0.308919
-0.103386
0.0837401
0.247999
0.403007
0.543887
0.667389
0.77202
0.857853
0.926108
0.978651
1.01752
1.04457
1.06133
1.06896
1.06838
1.06044
1.04606
1.02629
1.00228
0.975223
0.946182
0.915983
0.885131
0.853806
0.821926
0.789252
0.755481
0.720317
0.683469
0.64462
0.603363
0.559177
0.511435
0.459459
0.402589
0.34024
0.271938
0.197312
0.116071
0.0279671
-0.0672291
-0.169722
-0.279659
-0.397061
-0.521735
-0.65317
-0.790398
-0.931836
-1.07507
-1.21665
-1.35185
-1.47463
-1.57775
-1.65328
-1.6935
-1.69205
-1.64522
-1.55282
-1.41832
-1.24812
-1.05015
-0.83239
-0.601759
-0.363566
-0.121568
0.0987292
0.292061
0.473587
0.637218
0.779087
0.897685
0.993542
1.06861
1.12554
1.16707
1.19555
1.21274
1.21987
1.21783
1.20746
1.1897
1.16576
1.13707
1.10509
1.07117
1.03633
1.00115
0.965761
0.929978
0.893418
0.855669
0.816377
0.775246
0.731961
0.686088
0.63702
0.58399
0.526158
0.462712
0.392952
0.316336
0.232468
0.141048
0.0418063
-0.0655303
-0.181249
-0.305607
-0.438755
-0.580629
-0.730836
-0.888504
-1.05209
-1.2191
-1.38581
-1.54688
-1.69519
-1.82186
-1.91683
-1.96998
-1.97277
-1.92007
-1.81152
-1.65187
-1.44986
-1.21608
-0.96087
-0.692714
-0.417663
-0.139506
0.114888
0.339417
0.548995
0.736092
0.896192
1.02791
1.13249
1.21289
1.27282
1.31586
1.34492
1.36197
1.36823
1.36444
1.35131
1.32979
1.30125
1.26741
1.23013
1.1911
1.15156
1.11218
1.073
1.03365
0.993554
0.952158
0.90905
0.863961
0.816626
0.766609
0.713209
0.655494
0.592423
0.522998
0.44639
0.361999
0.269428
0.16839
0.0586199
-0.0601994
-0.18845
-0.326533
-0.474766
-0.633263
-0.801807
-0.979702
-1.16556
-1.35696
-1.55006
-1.73903
-1.91567
-2.06931
-2.18735
-2.25664
-2.26576
-2.20759
-2.0815
-1.89395
-1.65682
-1.38424
-1.08946
-0.782742
-0.470767
-0.157037
0.132464
0.39075
0.630196
0.84156
1.01965
1.16342
1.27515
1.35915
1.42048
1.4638
1.49261
1.50905
1.51416
1.50842
1.49226
1.46659
1.43295
1.39345
1.35042
1.30599
1.26169
1.21827
1.17561
1.13309
1.08984
1.04512
0.998471
0.949705
0.898674
0.844976
0.787811
0.726036
0.658359
0.583551
0.500637
0.408973
0.308193
0.198068
0.0783572
-0.0512876
-0.191361
-0.34244
-0.505051
-0.679531
-0.865891
-1.06369
-1.27182
-1.48812
-1.7088
-1.92776
-2.13581
-2.32034
-2.46574
-2.5551
-2.57315
-2.51
-2.36453
-2.14549
-1.86906
-1.55403
-1.21724
-0.870959
-0.52226
-0.173941
0.151728
0.446806
0.718231
0.954721
1.15041
1.30486
1.42181
1.50739
1.56835
1.61064
1.63842
1.65388
1.65773
1.64994
1.63057
1.60035
1.56106
1.51528
1.46597
1.4158
1.36669
1.31943
1.27369
1.22844
1.18246
1.13473
1.08476
1.03254
0.978119
0.921198
0.860855
0.795676
0.724047
0.644453
0.555746
0.457263
0.348719
0.229991
0.100905
-0.0389094
-0.190075
-0.353385
-0.529624
-0.719381
-0.922942
-1.14019
-1.37042
-1.61191
-1.86123
-2.11226
-2.35503
-2.57487
-2.75269
-2.86689
-2.89713
-2.82963
-2.66239
-2.40726
-2.0863
-1.72444
-1.34296
-0.956209
-0.571361
-0.189945
0.172983
0.50841
0.814232
1.07673
1.28939
1.45279
1.57268
1.65747
1.71606
1.75596
1.78202
1.79631
1.79895
1.7892
1.7665
1.73133
1.68575
1.63299
1.57675
1.52044
1.46647
1.41566
1.36732
1.31988
1.27161
1.22118
1.16805
1.11249
1.05494
0.995242
0.932339
0.864451
0.789555
0.705773
0.611751
0.506842
0.390917
0.26402
0.126094
-0.0232344
-0.184738
-0.359481
-0.54855
-0.752822
-0.972868
-1.20895
-1.4609
-1.72765
-2.00642
-2.29149
-2.57241
-2.83248
-3.04861
-3.19343
-3.24
-3.16901
-2.97694
-2.67985
-2.30787
-1.89402
-1.46495
-1.03709
-0.617153
-0.204733
0.196569
0.576476
0.919431
1.20882
1.43752
1.6077
1.7278
1.8091
1.8631
1.8992
1.92297
1.93612
1.93783
1.92638
1.90034
1.85981
1.80721
1.74663
1.6827
1.6198
1.56091
1.50691
1.45658
1.40758
1.35753
1.30468
1.24844
1.18956
1.12905
1.06704
1.00224
0.932385
0.854944
0.767577
0.668672
0.557658
0.434661
0.299971
0.153706
-0.00447996
-0.175542
-0.36088
-0.561948
-0.779921
-1.01565
-1.2698
-1.54285
-1.8346
-2.14331
-2.46417
-2.78673
-3.09241
-3.35363
-3.53607
-3.60423
-3.53099
-3.31022
-2.96368
-2.5327
-2.0609
-1.58124
-1.11198
-0.658619
-0.217962
0.222864
0.652016
1.03518
1.3523
1.59573
1.77001
1.88712
1.96181
2.00877
2.03966
2.06076
2.07305
2.07436
2.06168
2.03242
1.98608
1.92562
1.85624
1.78374
1.71366
1.64985
1.59314
1.54155
1.49174
1.4405
1.38548
1.32607
1.26371
1.20036
1.13649
1.0705
0.999493
0.920281
0.829939
0.726526
0.609639
0.479798
0.337622
0.183481
0.0170948
-0.162711
-0.357769
-0.569979
-0.800814
-1.05135
-1.32265
-1.61593
-1.93208
-2.27078
-2.62881
-2.99646
-3.35354
-3.6676
-3.89604
-3.99252
-3.91886
-3.66448
-3.25897
-2.75924
-2.22271
-1.68951
-1.1791
-0.694678
-0.229274
0.252297
0.736147
1.16294
1.50855
1.76491
1.93999
2.05044
2.11502
2.15223
2.17651
2.19481
2.20683
2.20853
2.19536
2.16314
2.11049
2.04116
1.96186
1.87973
1.80181
1.73305
1.67427
1.62235
1.57258
1.52081
1.46389
1.40107
1.33488
1.26867
1.20345
1.13709
1.06579
0.985636
0.892953
0.785334
0.662696
0.526148
0.376721
0.215119
0.0411956
-0.146497
-0.35036
-0.572842
-0.8157
-1.08012
-1.3675
-1.6799
-2.01946
-2.38768
-2.78377
-3.19974
-3.61438
-3.98997
-4.2744
-4.40783
-4.3365
-4.04234
-3.56571
-2.9854
-2.37657
-1.78714
-1.23656
-0.724243
-0.238318
0.285349
0.83009
1.30432
1.67907
1.94591
2.11783
2.21746
2.268
2.29247
2.30879
2.32448
2.33721
2.34035
2.3277
2.29298
2.23339
2.15401
2.06353
1.97053
1.88393
1.81026
1.75023
1.69911
1.65037
1.59882
1.54027
1.47358
1.40295
1.33377
1.26775
1.20192
1.13127
1.0511
0.956742
0.84512
0.71672
0.573517
0.416987
0.248286
0.0674978
-0.127169
-0.338872
-0.570762
-0.824835
-1.1022
-1.40447
-1.73464
-2.09624
-2.49287
-2.92725
-3.39446
-3.87305
-4.3198
-4.67192
-4.8534
-4.78856
-4.44682
-3.88356
-3.2084
-2.51912
-1.87132
-1.28246
-0.746274
-0.24477
0.32257
0.935173
1.46102
1.86547
2.13952
2.30352
2.38779
2.41992
2.42835
2.43542
2.44913
2.46396
2.46982
2.45902
2.42251
2.35521
2.26432
2.16131
2.05597
1.95967
1.88114
1.82094
1.77199
1.72536
1.67494
1.61506
1.54378
1.46772
1.39534
1.32919
1.26497
1.19595
1.11676
1.02147
0.905918
0.771581
0.621695
0.458123
0.282616
0.09565
-0.105004
-0.323522
-0.563977
-0.828533
-1.11794
-1.43379
-1.7802
-2.16209
-2.5853
-3.05735
-3.57819
-4.1273
-4.65566
-5.08896
-5.33275
-5.28073
-4.88152
-4.2117
-3.42471
-2.64646
-1.93908
-1.31497
-0.75984
-0.248353
0.364597
1.05282
1.63488
2.06951
2.34642
2.49686
2.56098
2.56989
2.55855
2.5552
2.5681
2.58693
2.59692
2.58968
2.55248
2.47635
2.3722
2.25527
2.13589
2.02859
1.94529
1.88635
1.84123
1.79782
1.74959
1.68884
1.61185
1.52893
1.45298
1.38757
1.3262
1.25981
1.18273
1.08738
0.967769
0.827115
0.67047
0.499819
0.317709
0.125277
-0.0802758
-0.304506
-0.552723
-0.827157
-1.12775
-1.45579
-1.81675
-2.21688
-2.66403
-3.17212
-3.74829
-4.37453
-4.99563
-5.52522
-5.84964
-5.82003
-5.35071
-4.54866
-3.62983
-2.75421
-1.9874
-1.33241
-0.764184
-0.248857
0.412196
1.18451
1.82779
2.29315
2.56714
2.69736
2.73657
2.71697
2.6816
2.6668
2.68079
2.70613
2.72158
2.72005
2.6838
2.59727
2.47767
2.34556
2.21014
2.09015
2.00224
1.94639
1.90714
1.86797
1.82325
1.76233
1.67801
1.5862
1.5062
1.44265
1.38567
1.32281
1.24913
1.15479
1.03072
0.883112
0.719645
0.541763
0.353133
0.15598
-0.0532527
-0.281985
-0.537221
-0.821111
-1.13217
-1.47088
-1.84461
-2.26078
-2.72829
-3.26955
-3.90191
-4.61188
-5.33728
-5.97951
-6.40793
-6.41526
-5.85955
-4.892
-3.81817
-2.83758
-2.0134
-1.33341
-0.758771
-0.246155
0.466325
1.33178
2.04169
2.53865
2.80198
2.90414
2.91422
2.86022
2.79588
2.76876
2.78669
2.82176
2.84359
2.85046
2.81768
2.71837
2.58061
2.43246
2.27858
2.14372
2.05139
2.00105
1.97016
1.93599
1.89636
1.83648
1.74252
1.63902
1.55437
1.49425
1.44352
1.38484
1.31603
1.22417
1.09481
0.93928
0.769051
0.583648
0.388417
0.187337
-0.0241879
-0.256067
-0.517659
-0.810837
-1.13182
-1.47952
-1.86424
-2.29428
-2.77755
-3.34766
-4.03598
-4.83629
-5.67775
-6.44929
-7.01144
-7.07756
-6.41424
-5.2379
-3.98285
-2.89144
-2.01441
-1.31693
-0.743341
-0.240214
0.528248
1.49613
2.27843
2.80873
3.05092
3.11579
3.09378
2.99877
2.89953
2.85946
2.88535
2.93432
2.96254
2.98116
2.95577
2.83999
2.6806
2.51642
2.34116
2.18851
2.09205
2.0504
2.03092
2.00185
1.96933
1.91253
1.80565
1.68667
1.59673
1.54217
1.50003
1.44569
1.3835
1.29618
1.16005
0.995213
0.81859
0.625187
0.423041
0.218901
0.00668271
-0.22679
-0.494178
-0.796807
-1.12745
-1.48217
-1.87617
-2.31825
-2.81153
-3.40449
-4.14724
-5.04466
-6.0139
-6.93018
-7.66355
-7.82119
-7.02224
-5.58057
-4.11559
-2.91052
-1.98824
-1.28245
-0.71793
-0.2311
0.599716
1.67896
2.53965
3.10685
3.3135
3.3302
3.27558
3.13185
2.99047
2.93706
2.97652
3.04484
3.07761
3.11222
3.10032
2.96232
2.77689
2.59824
2.39788
2.22357
2.12335
2.09451
2.09035
2.06531
2.04247
1.99218
1.86769
1.72822
1.63234
1.58628
1.55577
1.50497
1.45149
1.37179
1.2264
1.05033
0.868282
0.666118
0.456426
0.250201
0.0391412
-0.194106
-0.46685
-0.779518
-1.11995
-1.47928
-1.88092
-2.3341
-2.83024
-3.43811
-4.23226
-5.234
-6.34266
-7.41534
-8.36675
-8.66456
-7.69252
-5.91148
-4.20659
-2.88967
-1.93327
-1.22994
-0.682889
-0.218979
0.683255
1.88142
2.82657
3.43751
3.5886
3.54426
3.4607
3.25881
3.06631
2.99953
3.06004
3.15502
3.18741
3.24344
3.2545
3.0853
2.86811
2.67922
2.44882
2.24774
2.14426
2.13359
2.14982
2.12571
2.11588
2.07772
1.9289
1.76243
1.66009
1.62649
1.61163
1.562
1.51982
1.45241
1.29373
1.10379
0.918343
0.70621
0.487912
0.280743
0.0729846
-0.157858
-0.435671
-0.759474
-1.11038
-1.47117
-1.87894
-2.34383
-2.834
-3.44671
-4.2873
-5.40153
-6.6616
-7.8946
-9.12185
-9.63162
-8.43577
-6.21829
-4.24455
-2.82414
-1.8487
-1.15997
-0.638869
-0.204108
0.782605
2.10429
3.13957
3.80689
3.87427
3.75349
3.6514
3.37914
3.1243
3.04455
3.13593
3.26762
3.28968
3.37412
3.42277
3.20844
2.95207
2.76146
2.49414
2.25956
2.15353
2.16784
2.21136
2.18182
2.18935
2.17231
1.98948
1.78774
1.67869
1.66278
1.66908
1.61568
1.58808
1.54005
1.36173
1.15439
0.969301
0.745262
0.516733
0.310017
0.108016
-0.117766
-0.400539
-0.737174
-1.10008
-1.45798
-1.87044
-2.35021
-2.82342
-3.42859
-4.3083
-5.54488
-6.96972
-8.35357
-9.92687
-10.7536
-9.26465
-6.4835
-4.21687
-2.71003
-1.73469
-1.07367
-0.586791
-0.186818
0.903359
2.34768
3.4778
4.22353
4.16734
3.95159
3.85175
3.49236
3.16124
3.06951
3.20425
3.38689
3.38088
3.50286
3.61148
3.33065
3.02539
2.84822
2.53401
2.25727
2.14967
2.19752
2.27793
2.23157
2.26219
2.28029
2.04939
1.80213
1.68662
1.69514
1.73034
1.66428
1.65552
1.63763
1.42983
1.20043
1.02215
0.783081
0.541988
0.337511
0.144029
-0.0734022
-0.361249
-0.713072
-1.09076
-1.4396
-1.85521
-2.357
-2.79936
-3.38223
-4.29066
-5.66205
-7.2687
-8.77244
-10.7756
-12.0713
-10.1939
-6.68271
-4.11008
-2.54471
-1.59243
-0.972735
-0.527803
-0.167501
1.05387
2.61082
3.83839
4.6995
4.46301
4.12982
4.06843
3.59789
3.17342
3.07149
3.26494
3.51918
3.45571
3.62726
3.82959
3.44986
3.08313
2.94443
2.56852
2.23874
2.13095
2.22275
2.35386
2.27169
2.33306
2.40761
2.10826
1.80315
1.68221
1.72352
1.79871
1.70523
1.72089
1.74932
1.49705
1.23951
1.07856
0.819444
0.562599
0.362739
0.180781
-0.0241726
-0.317493
-0.687523
-1.08464
-1.41557
-1.8323
-2.36924
-2.76277
-3.30643
-4.22902
-5.75135
-7.56456
-9.1247
-11.6557
-13.6382
-11.2405
-6.78246
-3.91056
-2.32735
-1.42424
-0.859318
-0.463213
-0.146582
1.2465
2.89156
4.21561
5.25168
4.75431
4.27622
4.31182
3.69474
3.15655
3.04726
3.3176
3.67378
3.5065
3.7435
4.08962
3.5627
3.11817
3.0574
2.59744
2.20139
2.09541
2.24341
2.44533
2.29737
2.39966
2.5624
2.16504
1.78784
1.66365
1.74765
1.87901
1.73475
1.78229
1.88094
1.56179
1.26835
1.14119
0.854016
0.57727
0.38528
0.217958
0.0307149
-0.268869
-0.660696
-1.08464
-1.385
-1.79977
-2.39362
-2.71451
-3.20044
-4.11705
-5.81103
-7.86984
-9.37572
-12.5457
-15.5239
-12.4234
-6.73761
-3.60583
-2.05937
-1.2335
-0.735935
-0.394422
-0.124505
1.49926
3.18598
4.59962
5.9037
5.0313
4.37468
4.59732
3.78097
3.10574
2.9934
3.36103
3.86395
3.52238
3.84584
4.40886
3.66395
3.12065
3.1977
2.61993
2.14222
2.0409
2.25881
2.56109
2.3017
2.45845
2.7557
2.2177
1.75274
1.62908
1.76691
1.97809
1.74748
1.83687
2.04058
1.62162
1.28248
1.21402
0.886235
0.584448
0.40484
0.255118
0.0922826
-0.214916
-0.632445
-1.09463
-1.34651
-1.75418
-2.43901
-2.65502
-3.06426
-3.94713
-5.8386
-8.20649
-9.48121
-13.4123
-17.8185
-13.7637
-6.48824
-3.18625
-1.74484
-1.02455
-0.605332
-0.322852
-0.101703
1.83794
3.48771
4.97493
6.6881
5.28022
4.40383
4.94716
3.853
3.01554
2.90641
3.39255
4.10823
3.48839
3.92598
4.81083
3.74585
3.07716
3.38028
2.63403
2.05781
1.96517
2.2673
2.71333
2.27507
2.50427
3.00228
2.26264
1.69392
1.57669
1.77992
2.10552
1.73602
1.88062
2.23929
1.67294
1.27599
1.30284
0.915127
0.582279
0.421333
0.291621
0.161828
-0.155167
-0.602127
-1.11972
-1.29819
-1.6901
-2.51708
-2.58384
-2.89903
-3.71007
-5.82974
-8.60922
-9.3857
-14.2059
-20.6383
-15.2834
-5.956
-2.64747
-1.39076
-0.802491
-0.470331
-0.249878
-0.0785878
2.29879
3.78724
5.31855
7.6492
5.48232
4.33572
5.39239
3.90452
2.88004
2.78298
3.40719
4.43212
3.38441
3.97237
5.32703
3.79736
2.96985
3.62581
2.63601
1.9444
1.86608
2.2657
2.9187
2.20449
2.52989
3.32173
2.29403
1.60715
1.50492
1.78408
2.27438
1.69031
1.90799
2.49185
1.71058
1.24113
1.4158
0.939049
0.568586
0.434992
0.326531
0.240986
-0.0892472
-0.56836
-1.16665
-1.23755
-1.59941
-2.64312
-2.49898
-2.7075
-3.39491
-5.77666
-9.12976
-9.02099
-14.8558
-24.1317
-17.0052
-5.04013
-1.99353
-1.00697
-0.572825
-0.333681
-0.176772
-0.0555299
2.93171
4.07101
5.59773
8.84632
5.6125
4.13437
5.97547
3.92514
2.69313
2.62036
3.39641
4.86999
3.18385
3.96933
5.99897
3.8032
2.77553
3.96234
2.61948
1.79804
1.74177
2.24852
3.19962
2.07272
2.52555
3.73967
2.30295
1.48802
1.41273
1.77503
2.5023
1.59706
1.91154
2.81777
1.7273
1.16798
1.5641
0.95536
0.54085
0.446498
0.358495
0.331805
-0.0170091
-0.5287
-1.24413
-1.16157
-1.47053
-2.8371
-2.39604
-2.49474
-2.98879
-5.66585
-9.84156
-8.30477
-15.2645
-28.4863
-18.9509
-3.61294
-1.24084
-0.605817
-0.341148
-0.197924
-0.10466
-0.0328519
3.80401
4.32047
5.76734
10.3575
5.63773
3.75418
6.75303
3.89859
2.44886
2.41687
3.34667
5.46734
2.85234
3.89607
6.88039
3.74273
2.46449
4.42717
2.57418
1.61481
1.59108
2.20698
3.58576
1.85743
2.47834
4.28917
2.27628
1.33225
1.29984
1.74575
2.81256
1.43896
1.88149
3.24233
1.71327
1.04402
1.76273
0.959983
0.496232
0.457141
0.385592
0.436858
0.0612735
-0.479257
-1.36332
-1.06678
-1.28749
-3.12479
-2.26708
-2.26894
-2.47701
-5.47516
-10.8452
-7.13953
-15.3013
-33.9371
-21.1394
-1.51517
-0.422857
-0.201268
-0.112738
-0.06528
-0.0344888
-0.0108217
)
;

boundaryField
{
    left
    {
        type            calculated;
        value           uniform 0;
    }
    right
    {
        type            calculated;
        value           uniform 0;
    }
    interface
    {
        type            calculated;
        value           nonuniform List<scalar> 
64
(
3.80401
4.32047
5.76734
10.3575
5.63773
3.75418
6.75303
3.89859
2.44886
2.41687
3.34667
5.46734
2.85234
3.89607
6.88039
3.74273
2.46449
4.42717
2.57418
1.61481
1.59108
2.20698
3.58576
1.85743
2.47834
4.28917
2.27628
1.33225
1.29984
1.74575
2.81256
1.43896
1.88149
3.24233
1.71327
1.04402
1.76273
0.959983
0.496232
0.457141
0.385592
0.436858
0.0612735
-0.479257
-1.36332
-1.06678
-1.28749
-3.12479
-2.26708
-2.26894
-2.47701
-5.47516
-10.8452
-7.13953
-15.3013
-33.9371
-21.1394
-1.51517
-0.422857
-0.201268
-0.112738
-0.06528
-0.0344888
-0.0108217
)
;
    }
    bottom
    {
        type            calculated;
        value           nonuniform List<scalar> 
64
(
0.00630496
0.0187344
0.0306389
0.0417204
0.0517501
0.0605787
0.0681357
0.0744191
0.0794783
0.0833964
0.0862731
0.0882127
0.0893172
0.0896834
0.0894037
0.0885673
0.087261
0.0855684
0.0835673
0.0813261
0.0789006
0.0763315
0.0736437
0.0708474
0.0679401
0.0649099
0.0617372
0.0583965
0.0548568
0.0510823
0.0470327
0.0426645
0.0379324
0.0327919
0.0272011
0.0211224
0.0145236
0.00737844
-0.000332611
-0.00862124
-0.017489
-0.0269236
-0.0368936
-0.0473417
-0.0581763
-0.0692627
-0.0804136
-0.091382
-0.101857
-0.111465
-0.119783
-0.12636
-0.130754
-0.132571
-0.131513
-0.127417
-0.120278
-0.110248
-0.097616
-0.0827655
-0.0661299
-0.0481505
-0.029247
-0.00980744
)
;
    }
    defaultFaces
    {
        type            empty;
    }
}


// ************************************************************************* //
