/*--------------------------------*- C++ -*----------------------------------*\
| =========                 |                                                 |
| \\      /  F ield         | OpenFOAM: The Open Source CFD Toolbox           |
|  \\    /   O peration     | Version:  5.x                                   |
|   \\  /    A nd           | Web:      www.OpenFOAM.org                      |
|    \\/     M anipulation  |                                                 |
\*---------------------------------------------------------------------------*/
FoamFile
{
    version     2.0;
    format      ascii;
    class       volScalarField;
    location    "10.4";
    object      T;
}
// * * * * * * * * * * * * * * * * * * * * * * * * * * * * * * * * * * * * * //

dimensions      [0 0 0 1 0 0 0];

internalField   nonuniform List<scalar> 
2048
(
9.81021
9.8104
9.81079
9.81136
9.8121
9.81298
9.81399
9.81511
9.81632
9.81759
9.81892
9.82029
9.82168
9.82308
9.82448
9.82587
9.82725
9.8286
9.82992
9.83121
9.83246
9.83368
9.83485
9.83598
9.83706
9.8381
9.83909
9.84003
9.84092
9.84174
9.84251
9.84321
9.84385
9.8444
9.84487
9.84525
9.84553
9.8457
9.84576
9.84569
9.84549
9.84515
9.84465
9.84399
9.84317
9.84218
9.84101
9.83966
9.83815
9.83648
9.83467
9.83274
9.83072
9.82865
9.82658
9.82454
9.82259
9.82078
9.81915
9.81773
9.81656
9.81567
9.81506
9.81475
9.43876
9.43935
9.4405
9.4422
9.44438
9.44701
9.45001
9.45334
9.45692
9.46071
9.46465
9.4687
9.47282
9.47697
9.48113
9.48525
9.48932
9.49332
9.49723
9.50105
9.50475
9.50834
9.51181
9.51514
9.51835
9.52142
9.52435
9.52713
9.52975
9.53221
9.53448
9.53656
9.53843
9.54007
9.54147
9.5426
9.54344
9.54396
9.54413
9.54394
9.54335
9.54234
9.54088
9.53894
9.53651
9.53358
9.53012
9.52614
9.52166
9.51671
9.51133
9.5056
9.4996
9.49345
9.48728
9.48122
9.47543
9.47004
9.46518
9.46096
9.45749
9.45482
9.45301
9.4521
9.08311
9.08408
9.086
9.08881
9.09242
9.09676
9.10172
9.10719
9.11309
9.11932
9.12579
9.13244
9.1392
9.14601
9.15281
9.15956
9.16622
9.17277
9.17917
9.1854
9.19146
9.19732
9.20299
9.20844
9.21369
9.21871
9.22349
9.22804
9.23233
9.23634
9.24006
9.24347
9.24654
9.24925
9.25154
9.25341
9.25479
9.25566
9.25598
9.25568
9.25474
9.25311
9.25075
9.24761
9.24365
9.23886
9.23322
9.22671
9.21937
9.21124
9.2024
9.19297
9.18308
9.17293
9.16273
9.15272
9.14314
9.13423
9.1262
9.11924
9.1135
9.1091
9.10613
9.10462
8.74235
8.74371
8.74639
8.75031
8.75536
8.7614
8.76829
8.77589
8.78407
8.79269
8.80164
8.81082
8.82014
8.82952
8.83888
8.84817
8.85734
8.86634
8.87513
8.88369
8.892
8.90004
8.90781
8.9153
8.9225
8.92939
8.93596
8.9422
8.9481
8.95362
8.95874
8.96344
8.96768
8.97141
8.9746
8.97719
8.97913
8.98037
8.98084
8.98048
8.97924
8.97705
8.97384
8.96957
8.96418
8.95763
8.94989
8.94096
8.93085
8.91963
8.9074
8.89432
8.88058
8.86646
8.85225
8.83829
8.82493
8.8125
8.8013
8.79161
8.78363
8.77752
8.77339
8.77131
8.41562
8.41738
8.42085
8.4259
8.4324
8.44016
8.449
8.45872
8.46915
8.48013
8.49151
8.50317
8.51499
8.52687
8.53873
8.55049
8.56207
8.57344
8.58453
8.59533
8.6058
8.61594
8.62573
8.63517
8.64423
8.65292
8.66121
8.66909
8.67653
8.68351
8.68999
8.69595
8.70133
8.70608
8.71014
8.71347
8.71597
8.71759
8.71825
8.71788
8.71638
8.71369
8.70973
8.70441
8.69767
8.68945
8.67971
8.66844
8.65565
8.64141
8.62584
8.60914
8.59156
8.57345
8.55519
8.53724
8.52004
8.50405
8.48967
8.47723
8.467
8.45918
8.45391
8.45125
8.10216
8.10434
8.10862
8.11485
8.12284
8.13236
8.14316
8.15501
8.16769
8.18101
8.19479
8.20888
8.22315
8.23748
8.25177
8.26592
8.27985
8.2935
8.30682
8.31976
8.33232
8.34446
8.35619
8.3675
8.37836
8.38877
8.39872
8.40817
8.41711
8.4255
8.43331
8.44049
8.44698
8.45274
8.45769
8.46175
8.46483
8.46687
8.46775
8.4674
8.46571
8.46259
8.45794
8.45166
8.44367
8.43388
8.42224
8.40872
8.39332
8.37612
8.35726
8.33694
8.31549
8.29333
8.27095
8.24891
8.2278
8.20817
8.19054
8.17532
8.16283
8.1533
8.14688
8.14365
7.80127
7.80388
7.80902
7.81648
7.82601
7.83733
7.85014
7.86414
7.87908
7.89472
7.91088
7.92737
7.94404
7.96077
7.97743
7.99391
8.01012
8.02598
8.04144
8.05646
8.07101
8.08508
8.09867
8.11176
8.12435
8.13643
8.14796
8.15894
8.16932
8.17908
8.18818
8.19656
8.20416
8.21091
8.21674
8.22155
8.22524
8.22771
8.22887
8.22859
8.22676
8.22328
8.21802
8.21087
8.20172
8.19046
8.17702
8.16134
8.14342
8.12332
8.10118
8.07724
8.05187
8.02558
7.99895
7.9727
7.94754
7.92417
7.90322
7.88517
7.8704
7.85916
7.8516
7.8478
7.51226
7.51535
7.52139
7.53015
7.5413
7.55449
7.56935
7.58554
7.60275
7.62071
7.63922
7.65807
7.67712
7.6962
7.71517
7.73393
7.75235
7.77036
7.78789
7.80489
7.82136
7.83728
7.85265
7.86746
7.88171
7.89538
7.90845
7.92089
7.93267
7.94376
7.95411
7.96367
7.97236
7.98011
7.98682
7.99239
7.99671
7.99966
8.00112
8.00096
7.99907
7.9953
7.98952
7.98159
7.97137
7.95875
7.94361
7.92587
7.90551
7.88257
7.85717
7.82959
7.80024
7.76969
7.73868
7.70804
7.67867
7.65143
7.62705
7.60612
7.58905
7.5761
7.5674
7.56304
7.23453
7.23812
7.24514
7.25528
7.26814
7.28328
7.30026
7.31867
7.33817
7.35845
7.37929
7.40048
7.42185
7.44324
7.46449
7.48546
7.50604
7.52613
7.54565
7.56457
7.58287
7.60056
7.61763
7.63409
7.64993
7.66514
7.67968
7.69354
7.70668
7.71906
7.73064
7.74135
7.75112
7.75986
7.76747
7.77381
7.77878
7.78223
7.78404
7.78407
7.78216
7.77818
7.77196
7.76334
7.75217
7.73828
7.72155
7.70186
7.67915
7.65342
7.6248
7.59356
7.56014
7.5252
7.48962
7.4544
7.42063
7.38935
7.36144
7.33757
7.31818
7.30353
7.29372
7.28882
6.9675
6.97164
6.97971
6.99133
7.00601
7.02319
7.04236
7.06304
7.08484
7.10743
7.13058
7.15408
7.17774
7.20139
7.22488
7.24803
7.27071
7.29281
7.31425
7.33501
7.35506
7.37443
7.39313
7.41117
7.42854
7.44523
7.4612
7.47643
7.49088
7.50452
7.51729
7.52913
7.53998
7.54971
7.55821
7.56535
7.57099
7.57498
7.57718
7.57743
7.57558
7.57145
7.56488
7.55567
7.54364
7.52861
7.5104
7.48887
7.4639
7.43547
7.40366
7.36872
7.33115
7.29167
7.2513
7.21126
7.17286
7.13737
7.10581
7.07896
7.05725
7.04092
7.03003
7.0246
6.71061
6.71535
6.72457
6.73779
6.75441
6.77374
6.79518
6.81818
6.84229
6.86719
6.89262
6.91839
6.9443
6.97019
6.99587
7.02115
7.04588
7.06993
7.09323
7.11574
7.13747
7.15845
7.1787
7.19825
7.21709
7.2352
7.25255
7.2691
7.28482
7.29967
7.31361
7.32657
7.33847
7.3492
7.35861
7.36657
7.3729
7.37746
7.38009
7.38062
7.37887
7.37468
7.36783
7.35813
7.34535
7.32928
7.30972
7.28646
7.25935
7.22829
7.19334
7.1547
7.11287
7.06868
7.02328
6.97814
6.93486
6.89494
6.85963
6.82975
6.80574
6.78778
6.77586
6.76992
6.46335
6.46876
6.47924
6.4942
6.51289
6.53449
6.55829
6.58364
6.61008
6.63727
6.66496
6.69296
6.72109
6.74917
6.777
6.80438
6.83111
6.85706
6.88214
6.90633
6.92965
6.95216
6.97389
6.99489
7.01514
7.03462
7.0533
7.07112
7.08807
7.10409
7.11917
7.13323
7.14618
7.1579
7.16824
7.17702
7.18407
7.18923
7.19233
7.19317
7.1916
7.1874
7.18037
7.17026
7.15684
7.13986
7.11906
7.0942
7.06507
7.0315
6.99346
6.95112
6.90495
6.85585
6.80515
6.7546
6.70612
6.66157
6.62238
6.58945
6.56319
6.54367
6.53078
6.52438
6.22524
6.23138
6.24325
6.26011
6.28103
6.30503
6.33127
6.35903
6.3878
6.41725
6.44715
6.47734
6.50766
6.5379
6.56785
6.59729
6.62597
6.65376
6.68056
6.70635
6.73117
6.75512
6.77827
6.80064
6.82225
6.84306
6.86302
6.88208
6.9002
6.91736
6.93354
6.94868
6.96268
6.9754
6.98667
6.99629
7.00409
7.00988
7.01347
7.01468
7.01333
7.0092
7.00205
6.99163
6.97768
6.9599
6.938
6.91168
6.88066
6.8447
6.80366
6.75762
6.70702
6.65282
6.59652
6.54018
6.48618
6.43674
6.39356
6.35759
6.32916
6.30818
6.29441
6.2876
5.9958
6.00276
6.01617
6.03511
6.05843
6.08498
6.11375
6.14395
6.17505
6.20673
6.23879
6.27112
6.30357
6.33595
6.368
6.39946
6.43007
6.45964
6.48807
6.51538
6.54163
6.56694
6.59141
6.61511
6.63803
6.66012
6.68132
6.70156
6.72082
6.73908
6.75633
6.77253
6.78757
6.80129
6.8135
6.82399
6.83255
6.83899
6.8431
6.84472
6.84364
6.83963
6.83246
6.82182
6.80743
6.78897
6.7661
6.73847
6.70572
6.66751
6.62357
6.57387
6.51877
6.45926
6.39702
6.33449
6.27456
6.21998
6.17271
6.13375
6.10325
6.08095
6.06641
6.05924
5.77459
5.78248
5.7976
5.81882
5.84474
5.87397
5.90536
5.93805
5.97146
6.00531
6.03947
6.07389
6.10844
6.14291
6.17704
6.21051
6.243
6.27429
6.3043
6.33304
6.36061
6.38719
6.41293
6.43789
6.46207
6.48542
6.50782
6.5292
6.54954
6.56885
6.58714
6.60438
6.62045
6.63518
6.64835
6.65972
6.66906
6.67617
6.68084
6.68289
6.68212
6.67831
6.67118
6.66041
6.64568
6.62666
6.60295
6.57416
6.53984
6.49954
6.45285
6.39955
6.3399
6.27487
6.20632
6.13712
6.07081
6.0108
5.95938
5.9175
5.88511
5.86166
5.84647
5.83902
5.5612
5.57011
5.58714
5.61087
5.63961
5.67168
5.70579
5.74098
5.77667
5.81262
5.84882
5.88526
5.92185
5.9584
5.99459
6.03005
6.06439
6.09736
6.12887
6.15894
6.18775
6.21551
6.24244
6.26861
6.29401
6.31857
6.34215
6.36462
6.38599
6.4063
6.42561
6.44386
6.46096
6.47671
6.49086
6.50312
6.51325
6.52104
6.52629
6.5288
6.5284
6.52483
6.51781
6.50699
6.49203
6.47255
6.44814
6.41834
6.38263
6.34044
6.29116
6.23436
6.17012
6.09937
6.02413
5.9477
5.87448
5.80874
5.75312
5.70847
5.6744
5.64999
5.63432
5.62667
5.35521
5.36529
5.38443
5.41094
5.44273
5.4778
5.51471
5.55242
5.59033
5.62831
5.66644
5.70484
5.74344
5.78203
5.82028
5.85773
5.89388
5.92849
5.96143
5.99274
6.02267
6.05152
6.07957
6.1069
6.13349
6.15924
6.18396
6.20748
6.22982
6.25109
6.27136
6.29062
6.30873
6.32552
6.34066
6.35383
6.36477
6.37325
6.37908
6.38209
6.38207
6.3788
6.37196
6.36118
6.34607
6.32624
6.30127
6.27061
6.2337
6.18982
6.13816
6.078
6.00918
5.93252
5.85015
5.76587
5.68513
5.61332
5.55351
5.5063
5.47081
5.4457
5.42972
5.42196
5.15623
5.16763
5.18913
5.21871
5.2538
5.29204
5.33183
5.37207
5.41214
5.45203
5.49199
5.53228
5.57283
5.61343
5.65376
5.6932
5.73115
5.76733
5.80162
5.83408
5.86502
5.89487
5.92396
5.9524
5.98015
6.00708
6.03292
6.05745
6.0807
6.10286
6.12406
6.1443
6.16343
6.18126
6.19741
6.2115
6.22326
6.23245
6.23888
6.24238
6.24279
6.23987
6.23328
6.2226
6.20743
6.18736
6.16194
6.13059
6.09266
6.04734
5.99353
5.9302
5.85683
5.77409
5.68416
5.59129
5.50229
5.42408
5.36014
5.31064
5.27407
5.24854
5.23243
5.22466
4.9639
4.97678
5.00091
5.0339
5.07257
5.11412
5.15687
5.19964
5.24177
5.28344
5.32511
5.36721
5.40968
5.45226
5.49468
5.53613
5.57584
5.61356
5.64914
5.68263
5.71446
5.7452
5.77528
5.80479
5.83366
5.86177
5.88873
5.91421
5.9383
5.96128
5.98338
6.00458
6.02472
6.04361
6.06081
6.07582
6.0884
6.09831
6.10533
6.10935
6.11021
6.10768
6.1014
6.0909
6.07574
6.05552
6.02977
5.99787
5.95912
5.91261
5.85695
5.79068
5.71283
5.62389
5.52597
5.42364
5.32549
5.24053
5.17262
5.12121
5.08394
5.05829
5.04227
5.03458
4.77785
4.79242
4.81946
4.85622
4.8988
4.94378
4.98955
5.03485
5.07893
5.12222
5.16546
5.20931
5.25364
5.29817
5.34271
5.38622
5.42766
5.46687
5.50368
5.53807
5.57067
5.60218
5.6332
5.66375
5.6937
5.72301
5.75109
5.77746
5.80231
5.82603
5.849
5.87114
5.89228
5.91227
5.93054
5.94648
5.95989
5.97052
5.97813
5.98265
5.98398
5.9819
5.97598
5.96572
5.95064
5.93035
5.90441
5.87209
5.83271
5.7853
5.7281
5.65917
5.57696
5.48174
5.37542
5.26263
5.15425
5.06219
4.99056
4.93773
4.90021
4.87477
4.85905
4.85155
4.59773
4.61423
4.64448
4.68544
4.73225
4.78078
4.82962
4.87746
4.92333
4.96807
5.01269
5.05824
5.10439
5.15081
5.19755
5.24318
5.2863
5.32695
5.36494
5.40011
5.43333
5.46549
5.4974
5.52896
5.55996
5.5905
5.61973
5.64692
5.67244
5.69682
5.72063
5.7437
5.76581
5.78693
5.80631
5.82318
5.83741
5.84876
5.85695
5.86198
5.86379
5.86219
5.8567
5.84675
5.8318
5.81152
5.78549
5.75289
5.71304
5.66503
5.60665
5.53543
5.44901
5.34749
5.23244
5.108
4.98802
4.88856
4.81363
4.75995
4.72268
4.69782
4.6826
4.67538
4.4232
4.44194
4.47567
4.52131
4.57276
4.62486
4.67683
4.72722
4.7747
4.82067
4.86648
4.91369
4.96163
5.00986
5.05889
5.10675
5.15146
5.19352
5.23266
5.26846
5.30214
5.33481
5.3676
5.40014
5.43214
5.46396
5.49439
5.52233
5.5484
5.57334
5.59797
5.62196
5.645
5.66731
5.68787
5.70564
5.72069
5.73277
5.74151
5.74704
5.74933
5.74826
5.74326
5.73367
5.7189
5.69867
5.67268
5.63989
5.59973
5.55145
5.49229
5.41919
5.32873
5.22098
5.097
4.95952
4.82623
4.71913
4.6415
4.58768
4.5512
4.52726
4.51276
4.50592
4.25394
4.27529
4.31274
4.36362
4.42016
4.47577
4.53092
4.58391
4.63276
4.67974
4.72649
4.77536
4.82508
4.87497
4.92644
4.97667
5.02286
5.0663
5.10658
5.14283
5.17683
5.20984
5.2435
5.27702
5.30993
5.34314
5.37486
5.40342
5.42993
5.45529
5.48076
5.50566
5.52957
5.55315
5.57496
5.59358
5.60945
5.62228
5.63152
5.63753
5.6403
5.63981
5.63536
5.62619
5.61163
5.59149
5.56566
5.53278
5.49241
5.44421
5.3847
5.31024
5.2159
5.10206
4.9692
4.817
4.66821
4.55339
4.47389
4.42074
4.38563
4.36297
4.34938
4.34301
4.08962
4.11407
4.15537
4.21218
4.27434
4.33325
4.39164
4.44736
4.49723
4.54499
4.59238
4.64299
4.69449
4.74579
4.79993
4.85276
4.90019
4.94501
4.98649
5.02295
5.0571
5.09025
5.12485
5.15935
5.19303
5.22777
5.26091
5.28994
5.31678
5.3424
5.36874
5.39456
5.41923
5.44419
5.46736
5.48674
5.50343
5.51703
5.52672
5.53318
5.53641
5.53655
5.53273
5.52404
5.50969
5.48966
5.46413
5.43121
5.39069
5.34298
5.28354
5.20834
5.11027
4.99054
4.84922
4.68032
4.51317
4.3908
4.31056
4.25903
4.22587
4.20482
4.19232
4.18648
3.92989
3.95812
4.00325
4.0668
4.13524
4.19703
4.25873
4.3174
4.36786
4.41619
4.46378
4.51632
4.56963
4.62197
4.67909
4.73483
4.78317
4.82937
4.87218
4.90856
4.94272
4.97574
5.01139
5.04692
5.08113
5.11762
5.15239
5.18166
5.2087
5.23437
5.26168
5.28844
5.31369
5.34017
5.36486
5.38486
5.40238
5.4168
5.42685
5.43374
5.43739
5.43824
5.4351
5.42695
5.41282
5.39286
5.36783
5.33489
5.29417
5.24741
5.18848
5.11332
5.01154
4.88618
4.7374
4.54944
4.36017
4.23088
4.15134
4.10244
4.07181
4.05268
4.04142
4.03618
3.77442
3.80735
3.85601
3.9273
4.00287
4.06677
4.13192
4.19391
4.24436
4.29308
4.34034
4.39511
4.45032
4.5031
4.56367
4.62277
4.67148
4.71912
4.76349
4.79939
4.83345
4.86598
4.90291
4.93954
4.9739
5.01245
5.04914
5.07833
5.10549
5.1309
5.15935
5.18711
5.21264
5.24089
5.2673
5.28767
5.30604
5.32137
5.33164
5.33896
5.34298
5.3446
5.34222
5.33468
5.32074
5.30079
5.2765
5.24353
5.20246
5.15719
5.09914
5.02503
4.91941
4.78864
4.63426
4.4244
4.20807
4.07314
3.99611
3.95093
3.92339
3.90643
3.89653
3.89195
3.62284
3.66179
3.7132
3.79353
3.87731
3.9421
4.01094
4.07684
4.1264
4.17549
4.22163
4.27916
4.33644
4.38874
4.45342
4.51654
4.56476
4.61398
4.6603
4.69515
4.72909
4.76063
4.7992
4.83705
4.87099
4.91204
4.95107
4.9797
5.00694
5.03169
5.06155
5.09041
5.11576
5.1461
5.17454
5.19491
5.21418
5.23057
5.24087
5.24861
5.25291
5.25542
5.25387
5.24702
5.23322
5.21312
5.18994
5.15688
5.11514
5.07205
5.01512
4.94339
4.83353
4.69746
4.54054
4.30541
4.05542
3.91718
3.84487
3.8045
3.78051
3.76595
3.75751
3.75362
3.47473
3.52158
3.5743
3.66532
3.75879
3.82255
3.89549
3.96622
4.01365
4.06327
4.10719
4.1683
4.22794
4.27838
4.34812
4.41616
4.46262
4.51368
4.56255
4.59555
4.62949
4.65933
4.70008
4.73936
4.77201
4.81619
4.85813
4.88549
4.9129
4.9364
4.96812
4.99821
5.02272
5.05562
5.08649
5.10629
5.12657
5.14423
5.15426
5.16249
5.16692
5.17047
5.1698
5.16375
5.15004
5.12954
5.10796
5.07473
5.03174
4.99176
4.93598
4.86841
4.75352
4.61196
4.45724
4.19282
3.90041
3.76271
3.69765
3.66314
3.64312
3.63112
3.62421
3.62103
3.32964
3.38708
3.43863
3.54255
3.64764
3.70755
3.78526
3.86215
3.90566
3.95639
3.99649
4.0624
4.12487
4.17142
4.24756
4.32176
4.36462
4.41792
4.47025
4.50023
4.53456
4.56164
4.60541
4.64643
4.67651
4.72469
4.77033
4.7954
4.82326
4.84467
4.87888
4.91047
4.93313
4.96924
5.00311
5.02152
5.04299
5.06223
5.07158
5.08043
5.08475
5.08954
5.08981
5.08469
5.07099
5.0497
5.03042
4.99688
4.95176
4.91614
4.86117
4.8002
4.67899
4.53116
4.38569
4.08723
3.74074
3.60962
3.55462
3.52689
3.51115
3.50181
3.49646
3.494
3.18702
3.25885
3.30537
3.42506
3.54441
3.59638
3.6799
3.76489
3.80191
3.85489
3.88888
3.96137
4.02738
4.06713
4.15152
4.2336
4.27019
4.32641
4.3835
4.40879
4.44426
4.4671
4.51506
4.55831
4.58395
4.63737
4.68776
4.70906
4.73798
4.75609
4.79373
4.82716
4.84655
4.88679
4.92442
4.94024
4.96321
4.98448
4.99255
5.00225
5.00615
5.01246
5.01368
5.00967
4.99592
4.97321
4.95724
4.92323
4.87465
4.84514
4.79004
4.73904
4.60952
4.45374
4.32761
3.9895
3.5735
3.45808
3.41599
3.39579
3.38452
3.37788
3.3741
3.37236
3.04619
3.1378
3.17341
3.31273
3.44985
3.48812
3.57905
3.67486
3.70171
3.75902
3.7836
3.86515
3.93579
3.96465
4.05983
4.15212
4.17868
4.23885
4.3025
4.32071
4.35869
4.37514
4.42896
4.47513
4.49373
4.55405
4.61059
4.62602
4.65709
4.67017
4.71256
4.74836
4.76247
4.8081
4.85053
4.86208
4.88703
4.91096
4.91688
4.92786
4.93083
4.93906
4.9412
4.93853
4.92468
4.89965
4.88838
4.8537
4.79972
4.77882
4.72176
4.68542
4.5447
4.37787
4.28518
3.90086
3.39498
3.30864
3.28208
3.26987
3.26315
3.2592
3.25696
3.25593
2.90634
3.02521
3.04135
3.20544
3.36502
3.38162
3.48234
3.59265
3.60417
3.66918
3.6797
3.77376
3.85055
3.8629
3.97231
4.07791
4.08927
4.15492
4.22762
4.23537
4.27808
4.28509
4.34705
4.39714
4.40509
4.47459
4.53913
4.54573
4.58076
4.58635
4.63532
4.67424
4.68028
4.73303
4.78161
4.78657
4.81423
4.84166
4.84423
4.85717
4.85852
4.86922
4.87217
4.87113
4.85719
4.82853
4.82385
4.78829
4.7262
4.71745
4.6553
4.64004
4.4842
4.30113
4.26109
3.82296
3.20056
3.16236
3.15321
3.14914
3.14692
3.14562
3.14488
3.14454
)
;

boundaryField
{
    left
    {
        type            zeroGradient;
    }
    right
    {
        type            zeroGradient;
    }
    interface
    {
        type            fixedValue;
        value           nonuniform List<scalar> 
64
(
2.83483
2.97289
2.97289
3.15312
3.32734
3.32734
3.43482
3.55509
3.55509
3.62672
3.62672
3.72955
3.81059
3.81059
3.92963
4.04415
4.04415
4.11375
4.19277
4.19277
4.23966
4.23966
4.30733
4.36011
4.36011
4.43591
4.50581
4.50581
4.5443
4.5443
4.59785
4.63888
4.63888
4.69647
4.74909
4.74909
4.77867
4.80845
4.80845
4.82292
4.82292
4.83529
4.83855
4.83855
4.8246
4.79313
4.79313
4.75703
4.68887
4.68887
4.62158
4.62158
4.45536
4.25985
4.25985
3.78976
3.09008
3.09008
3.09008
3.09008
3.09008
3.09008
3.09008
3.09008
)
;
    }
    bottom
    {
        type            fixedValue;
        value           uniform 10;
    }
    defaultFaces
    {
        type            empty;
    }
}


// ************************************************************************* //
