/*--------------------------------*- C++ -*----------------------------------*\
| =========                 |                                                 |
| \\      /  F ield         | OpenFOAM: The Open Source CFD Toolbox           |
|  \\    /   O peration     | Version:  5.x                                   |
|   \\  /    A nd           | Web:      www.OpenFOAM.org                      |
|    \\/     M anipulation  |                                                 |
\*---------------------------------------------------------------------------*/
FoamFile
{
    version     2.0;
    format      ascii;
    class       volScalarField;
    location    "3.7";
    object      gradTy;
}
// * * * * * * * * * * * * * * * * * * * * * * * * * * * * * * * * * * * * * //

dimensions      [0 -1 0 1 0 0 0];

internalField   nonuniform List<scalar> 
2048
(
-26.4239
-26.3963
-26.3419
-26.2623
-26.1595
-26.0361
-25.8948
-25.7386
-25.57
-25.3918
-25.2063
-25.0157
-24.8219
-24.6266
-24.4312
-24.2372
-24.0456
-23.8573
-23.6732
-23.4937
-23.3193
-23.1504
-22.9872
-22.83
-22.679
-22.5345
-22.3966
-22.2658
-22.1425
-22.0271
-21.9201
-21.8223
-21.7343
-21.6569
-21.5913
-21.5382
-21.499
-21.4746
-21.4664
-21.4756
-21.5034
-21.5512
-21.62
-21.7112
-21.8256
-21.964
-22.1268
-22.314
-22.5248
-22.7578
-23.0108
-23.2804
-23.5624
-23.8515
-24.1416
-24.4263
-24.6986
-24.952
-25.1805
-25.3787
-25.5421
-25.6675
-25.7524
-25.7952
-26.4462
-26.418
-26.3623
-26.281
-26.1762
-26.0505
-25.907
-25.7485
-25.5778
-25.3977
-25.2105
-25.0183
-24.8231
-24.6266
-24.4302
-24.2353
-24.0429
-23.854
-23.6694
-23.4895
-23.3149
-23.1458
-22.9824
-22.825
-22.6738
-22.529
-22.3909
-22.2598
-22.1361
-22.0202
-21.9127
-21.8143
-21.7256
-21.6475
-21.581
-21.5271
-21.4869
-21.4616
-21.4523
-21.4605
-21.4873
-21.534
-21.602
-21.6924
-21.8062
-21.9443
-22.1072
-22.2948
-22.5068
-22.7417
-22.9973
-23.2704
-23.5566
-23.8506
-24.1461
-24.4362
-24.7139
-24.9723
-25.205
-25.4067
-25.5729
-25.7003
-25.7864
-25.8298
-26.4889
-26.4594
-26.4014
-26.3167
-26.2078
-26.0779
-25.9299
-25.7671
-25.5925
-25.4087
-25.2182
-25.0231
-24.8253
-24.6265
-24.4281
-24.2314
-24.0377
-23.8477
-23.6621
-23.4816
-23.3065
-23.137
-22.9733
-22.8155
-22.664
-22.5187
-22.3801
-22.2484
-22.124
-22.0073
-21.8988
-21.7993
-21.7093
-21.6298
-21.5617
-21.5061
-21.4641
-21.4369
-21.4257
-21.4319
-21.4567
-21.5016
-21.5678
-21.6566
-21.7693
-21.9067
-22.0695
-22.2582
-22.4722
-22.7106
-22.9712
-23.2509
-23.5453
-23.8486
-24.1544
-24.4551
-24.7431
-25.011
-25.2519
-25.4604
-25.6318
-25.7628
-25.8513
-25.8958
-26.5501
-26.5187
-26.4571
-26.3675
-26.2528
-26.1165
-25.9621
-25.7932
-25.6129
-25.4239
-25.2288
-25.0295
-24.8281
-24.626
-24.4248
-24.2258
-24.0301
-23.8385
-23.6517
-23.4703
-23.2945
-23.1245
-22.9604
-22.8022
-22.6501
-22.5043
-22.365
-22.2325
-22.1071
-21.9892
-21.8794
-21.7782
-21.6864
-21.6049
-21.5345
-21.4765
-21.432
-21.4021
-21.3882
-21.3916
-21.4137
-21.4558
-21.5194
-21.606
-21.7168
-21.853
-22.0158
-22.2055
-22.4223
-22.6654
-22.933
-23.2221
-23.5281
-23.8452
-24.1658
-24.482
-24.785
-25.0665
-25.3193
-25.5373
-25.7159
-25.852
-25.9437
-25.9897
-26.6285
-26.5946
-26.5281
-26.4319
-26.3094
-26.1648
-26.0022
-25.8254
-25.6378
-25.4424
-25.2415
-25.0371
-24.8311
-24.6251
-24.4204
-24.2184
-24.0202
-23.8266
-23.6384
-23.456
-23.2794
-23.1089
-22.9443
-22.7856
-22.633
-22.4865
-22.3463
-22.2128
-22.0862
-21.9669
-21.8553
-21.7521
-21.6581
-21.5739
-21.5008
-21.4397
-21.392
-21.3588
-21.3414
-21.3413
-21.3598
-21.3984
-21.4587
-21.5422
-21.6505
-21.785
-21.9472
-22.138
-22.358
-22.6068
-22.883
-23.1839
-23.5049
-23.8395
-24.1797
-24.516
-24.8385
-25.1379
-25.4058
-25.6357
-25.8233
-25.9655
-26.0608
-26.1087
-26.7231
-26.6859
-26.6133
-26.5087
-26.3764
-26.2215
-26.0487
-25.8624
-25.6662
-25.4632
-25.2556
-25.0453
-24.8341
-24.6234
-24.4146
-24.2091
-24.008
-23.8122
-23.6224
-23.4388
-23.2616
-23.0905
-22.9254
-22.7662
-22.613
-22.4657
-22.3246
-22.1899
-22.0619
-21.9409
-21.8274
-21.7219
-21.6252
-21.538
-21.4615
-21.3969
-21.3453
-21.3081
-21.2867
-21.2824
-21.2966
-21.331
-21.3871
-21.4668
-21.5718
-21.704
-21.8651
-22.0567
-22.2798
-22.5348
-22.8209
-23.1358
-23.4747
-23.8309
-24.1951
-24.5564
-24.9032
-25.2243
-25.5103
-25.7544
-25.9521
-26.101
-26.2004
-26.2501
-26.8333
-26.7919
-26.7116
-26.5967
-26.4525
-26.2851
-26.1003
-25.903
-25.697
-25.4855
-25.2705
-25.0537
-24.8367
-24.6207
-24.4073
-24.1978
-23.9935
-23.7953
-23.6038
-23.4191
-23.2412
-23.0697
-22.9042
-22.7446
-22.5907
-22.4425
-22.3004
-22.1644
-22.035
-21.9122
-21.7965
-21.6884
-21.5886
-21.498
-21.4177
-21.3489
-21.2931
-21.2514
-21.2253
-21.2162
-21.2255
-21.255
-21.3062
-21.3813
-21.4823
-21.6112
-21.7705
-21.9622
-22.1881
-22.4495
-22.7465
-23.077
-23.4368
-23.8185
-24.2114
-24.6028
-24.9785
-25.3254
-25.6325
-25.8924
-26.101
-26.2569
-26.3602
-26.4115
-26.9585
-26.9122
-26.8225
-26.6949
-26.5365
-26.3545
-26.1558
-25.946
-25.7292
-25.5085
-25.2856
-25.0619
-24.8386
-24.617
-24.3985
-24.1846
-23.9767
-23.7759
-23.5826
-23.397
-23.2186
-23.0469
-22.8812
-22.7211
-22.5665
-22.4175
-22.2742
-22.137
-22.006
-21.8813
-21.7633
-21.6524
-21.5492
-21.4547
-21.3701
-21.2968
-21.2362
-21.1896
-21.1584
-21.1439
-21.1478
-21.1717
-21.2174
-21.2871
-21.383
-21.5079
-21.6643
-21.8552
-22.0833
-22.3509
-22.659
-23.0067
-23.3901
-23.8011
-24.2278
-24.6547
-25.0645
-25.4412
-25.7721
-26.0491
-26.2689
-26.4314
-26.538
-26.5908
-27.0988
-27.0463
-26.9452
-26.8025
-26.6272
-26.4282
-26.2137
-25.9901
-25.7618
-25.5315
-25.3004
-25.0696
-24.8397
-24.612
-24.388
-24.1693
-23.9575
-23.7539
-23.559
-23.3726
-23.1941
-23.0224
-22.8566
-22.6962
-22.541
-22.391
-22.2465
-22.108
-21.9754
-21.8488
-21.7284
-21.6144
-21.5076
-21.4089
-21.3197
-21.2414
-21.1756
-21.1236
-21.0869
-21.0667
-21.0647
-21.0823
-21.1218
-21.1853
-21.2754
-21.3951
-21.5476
-21.7365
-21.9657
-22.2386
-22.5579
-22.9238
-23.3332
-23.7777
-24.2435
-24.7118
-25.1614
-25.5722
-25.9293
-26.2243
-26.4549
-26.6229
-26.732
-26.7855
-27.2541
-27.1941
-27.0793
-26.9186
-26.7235
-26.505
-26.2729
-26.0343
-25.7939
-25.5537
-25.3146
-25.0765
-24.8399
-24.6058
-24.3758
-24.1518
-23.9359
-23.7295
-23.533
-23.3462
-23.1678
-22.9965
-22.831
-22.6704
-22.5144
-22.3634
-22.2177
-22.0778
-21.9437
-21.8153
-21.6924
-21.5753
-21.4645
-21.3613
-21.267
-21.1834
-21.1121
-21.0544
-21.0118
-20.9856
-20.9771
-20.9881
-21.0206
-21.0771
-21.1605
-21.2739
-21.4212
-21.6068
-21.8355
-22.1126
-22.4423
-22.827
-23.2646
-23.7467
-24.2574
-24.774
-25.2696
-25.7191
-26.1047
-26.4177
-26.6579
-26.8299
-26.9399
-26.9934
-27.4247
-27.3558
-27.2244
-27.0425
-26.8242
-26.5834
-26.3318
-26.0773
-25.8244
-25.5747
-25.3276
-25.0826
-24.8392
-24.5984
-24.3618
-24.1321
-23.9118
-23.7024
-23.5046
-23.3177
-23.1401
-22.9697
-22.8046
-22.6439
-22.4872
-22.335
-22.188
-22.0467
-21.9113
-21.7811
-21.6559
-21.5354
-21.4205
-21.3124
-21.2127
-21.1234
-21.0462
-20.9827
-20.934
-20.9014
-20.8862
-20.89
-20.915
-20.9638
-21.0394
-21.1455
-21.2862
-21.4667
-21.6932
-21.9726
-22.3116
-22.715
-23.1826
-23.7065
-24.2686
-24.8412
-25.3901
-25.8833
-26.2992
-26.6296
-26.8773
-27.0507
-27.1596
-27.212
-27.6112
-27.5314
-27.3803
-27.1732
-26.9281
-26.6622
-26.3892
-26.1179
-25.8526
-25.5937
-25.3395
-25.0878
-24.8377
-24.5898
-24.3462
-24.1102
-23.8849
-23.6726
-23.4737
-23.2874
-23.1112
-22.9422
-22.778
-22.6172
-22.4596
-22.306
-22.1576
-22.0151
-21.8785
-21.7468
-21.6192
-21.4955
-21.3762
-21.2627
-21.1572
-21.0619
-20.9786
-20.909
-20.8541
-20.815
-20.7928
-20.789
-20.806
-20.8463
-20.9134
-21.0109
-21.1436
-21.3172
-21.5393
-21.8185
-22.1648
-22.5861
-23.0852
-23.6552
-24.2759
-24.9134
-25.524
-26.0662
-26.514
-26.8602
-27.1122
-27.2837
-27.389
-27.4387
-27.8141
-27.7213
-27.5468
-27.3099
-27.0338
-26.7398
-26.4436
-26.1549
-25.8776
-25.6106
-25.3501
-25.0923
-24.8356
-24.5803
-24.3289
-24.0858
-23.8553
-23.6399
-23.4403
-23.2552
-23.0813
-22.9145
-22.7514
-22.5907
-22.432
-22.2768
-22.1267
-21.9831
-21.8456
-21.7128
-21.583
-21.4559
-21.3319
-21.2128
-21.101
-20.9993
-20.9098
-20.834
-20.7728
-20.7272
-20.6978
-20.6861
-20.6944
-20.7257
-20.7834
-20.8714
-20.9945
-21.1593
-21.3743
-21.6506
-22.0013
-22.439
-22.9703
-23.5904
-24.2777
-24.9909
-25.6732
-26.2703
-26.7506
-27.1098
-27.3617
-27.527
-27.6254
-27.671
-28.0344
-27.9259
-27.7235
-27.4518
-27.1401
-26.8146
-26.4935
-26.187
-25.8985
-25.6248
-25.3594
-25.0963
-24.8331
-24.57
-24.3101
-24.059
-23.8227
-23.6042
-23.4043
-23.2213
-23.0506
-22.8868
-22.7254
-22.5647
-22.4047
-22.2473
-22.0953
-21.9507
-21.8128
-21.6793
-21.5477
-21.4171
-21.2883
-21.1629
-21.0444
-20.936
-20.8401
-20.758
-20.6908
-20.6385
-20.6018
-20.5819
-20.5812
-20.6029
-20.6506
-20.728
-20.8402
-20.9942
-21.1993
-21.4689
-21.8204
-22.2718
-22.8355
-23.5097
-24.2721
-25.0736
-25.8399
-26.4984
-27.0111
-27.3787
-27.6247
-27.7787
-27.8665
-27.906
-28.2731
-28.1458
-27.9104
-27.5978
-27.2452
-26.8851
-26.5375
-26.2132
-25.9148
-25.6363
-25.3677
-25.1002
-24.8307
-24.5594
-24.2898
-24.0296
-23.7869
-23.5653
-23.3656
-23.1857
-23.0196
-22.8598
-22.7004
-22.5396
-22.3779
-22.2177
-22.0633
-21.9179
-21.7804
-21.6468
-21.5135
-21.3796
-21.2456
-21.1135
-20.9876
-20.8723
-20.7698
-20.6816
-20.6084
-20.5498
-20.5058
-20.4774
-20.4672
-20.4788
-20.5158
-20.5819
-20.6819
-20.8229
-21.0152
-21.274
-21.6216
-22.083
-22.678
-23.4097
-24.2567
-25.1618
-26.027
-26.754
-27.2977
-27.6673
-27.8999
-28.0364
-28.1096
-28.141
-28.5313
-28.3816
-28.1074
-27.7469
-27.3476
-26.9496
-26.5741
-26.232
-25.9257
-25.645
-25.3754
-25.1044
-24.8287
-24.5489
-24.2681
-23.9973
-23.7477
-23.5229
-23.3238
-23.1484
-22.9884
-22.8338
-22.6767
-22.5157
-22.352
-22.1881
-22.0307
-21.8848
-21.7484
-21.6156
-21.4811
-21.3437
-21.2043
-21.0648
-20.9309
-20.8083
-20.6992
-20.605
-20.5261
-20.4614
-20.4102
-20.3731
-20.353
-20.354
-20.38
-20.4342
-20.5207
-20.647
-20.8235
-21.0667
-21.4047
-21.871
-22.4952
-23.287
-24.2284
-25.2556
-26.2384
-27.0416
-27.6127
-27.9756
-28.1859
-28.2979
-28.352
-28.3732
-28.8105
-28.634
-28.3145
-27.8979
-27.4452
-27.0065
-26.6019
-26.2424
-25.9306
-25.651
-25.3829
-25.1095
-24.8278
-24.539
-24.2452
-23.9619
-23.7049
-23.4768
-23.2788
-23.1094
-22.9574
-22.8094
-22.655
-22.4935
-22.3272
-22.1584
-21.9969
-21.8511
-21.717
-21.5862
-21.4507
-21.3098
-21.1648
-21.017
-20.8741
-20.7441
-20.6286
-20.5285
-20.4443
-20.374
-20.3158
-20.2696
-20.2392
-20.2293
-20.2441
-20.2859
-20.3579
-20.468
-20.6257
-20.848
-21.1695
-21.6342
-22.2844
-23.1374
-24.183
-25.3548
-26.4792
-27.3667
-27.9588
-28.3034
-28.4807
-28.5606
-28.591
-28.5999
-29.1123
-28.9035
-28.5316
-28.0495
-27.5359
-27.0542
-26.6196
-26.243
-25.9289
-25.6543
-25.3912
-25.1159
-24.8282
-24.5305
-24.2212
-23.9229
-23.6583
-23.4268
-23.23
-23.0686
-22.927
-22.7874
-22.6355
-22.4732
-22.304
-22.1285
-21.9616
-21.8165
-21.6864
-21.5589
-21.4226
-21.2782
-21.1276
-20.9703
-20.8174
-20.6799
-20.5579
-20.4521
-20.3634
-20.2881
-20.223
-20.1676
-20.1263
-20.1052
-20.1088
-20.138
-20.1947
-20.2874
-20.4237
-20.6192
-20.9163
-21.3712
-22.0427
-22.9565
-24.1147
-25.4591
-26.7561
-27.7357
-28.3386
-28.6499
-28.7818
-28.8215
-28.8238
-28.8186
-29.4385
-29.1907
-28.7592
-28.2002
-27.617
-27.0914
-26.6261
-26.2322
-25.9202
-25.6555
-25.4013
-25.1242
-24.8305
-24.5245
-24.1963
-23.8794
-23.6078
-23.3728
-23.1771
-23.0261
-22.8975
-22.7685
-22.6188
-22.4551
-22.283
-22.0983
-21.924
-21.7807
-21.6566
-21.5344
-21.3973
-21.2491
-21.0932
-20.9248
-20.7603
-20.6157
-20.4875
-20.3759
-20.2836
-20.204
-20.1326
-20.0675
-20.0146
-19.982
-19.9747
-19.9917
-20.0321
-20.1068
-20.2198
-20.382
-20.6457
-21.0806
-21.7679
-22.7394
-24.0161
-25.5674
-27.078
-28.1563
-28.7544
-29.0136
-29.0865
-29.0779
-29.0479
-29.0267
-29.7913
-29.4957
-28.9978
-28.3483
-27.685
-27.117
-26.6205
-26.2084
-25.9041
-25.6548
-25.4148
-25.135
-24.8346
-24.5223
-24.1706
-23.8305
-23.5533
-23.3146
-23.119
-22.9817
-22.8694
-22.7538
-22.6052
-22.4391
-22.2649
-22.0677
-21.8829
-21.7433
-21.6278
-21.5134
-21.3748
-21.2226
-21.0623
-20.8807
-20.7024
-20.5517
-20.4173
-20.3
-20.2051
-20.1222
-20.0451
-19.9697
-19.9045
-19.86
-19.8426
-19.8478
-19.871
-19.9277
-20.0166
-20.1385
-20.3585
-20.7611
-21.4583
-22.4816
-23.8767
-25.6777
-27.4569
-28.6377
-29.2079
-29.3923
-29.3914
-29.3268
-29.2608
-29.2223
-30.1733
-29.818
-29.2488
-28.492
-27.7358
-27.1307
-26.6025
-26.1695
-25.8804
-25.6527
-25.4336
-25.1483
-24.8404
-24.5262
-24.1443
-23.7742
-23.4955
-23.2525
-23.0548
-22.9356
-22.843
-22.7447
-22.5947
-22.4251
-22.251
-22.0367
-21.8368
-21.704
-21.6
-21.497
-21.3554
-21.1984
-21.0359
-20.8381
-20.643
-20.4879
-20.3476
-20.224
-20.1283
-20.0431
-19.9611
-19.8746
-19.7962
-19.7393
-19.7127
-19.7076
-19.7118
-19.7515
-19.8172
-19.8907
-20.0564
-20.4112
-21.113
-22.1791
-23.6824
-25.7866
-27.9091
-29.1899
-29.6998
-29.7825
-29.6927
-29.565
-29.4603
-29.4036
-30.5875
-30.1557
-29.5147
-28.6295
-27.7638
-27.1332
-26.5721
-26.1125
-25.8492
-25.6496
-25.4606
-25.1642
-24.8468
-24.5392
-24.1174
-23.7079
-23.4352
-23.1868
-22.9826
-22.8877
-22.8185
-22.7431
-22.5874
-22.4124
-22.2432
-22.005
-21.7835
-21.6624
-21.5734
-21.4866
-21.339
-21.1761
-21.0156
-20.7969
-20.5807
-20.4249
-20.2787
-20.1474
-20.0534
-19.9671
-19.8814
-19.7826
-19.6895
-19.6197
-19.5856
-19.5721
-19.5547
-19.5794
-19.6254
-19.641
-19.7413
-20.0287
-20.7325
-21.8294
-23.4143
-25.8884
-28.4571
-29.8242
-30.2292
-30.1795
-29.9862
-29.7897
-29.6445
-29.5692
-31.0381
-30.5051
-29.7997
-28.7585
-27.761
-27.1267
-26.5302
-26.0333
-25.8114
-25.6452
-25.4999
-25.1821
-24.8518
-24.5658
-24.0902
-23.6272
-23.3745
-23.1183
-22.8998
-22.8387
-22.7959
-22.7517
-22.5829
-22.3996
-22.2443
-21.9725
-21.72
-21.6185
-21.5476
-21.4843
-21.3253
-21.1545
-21.0034
-20.7572
-20.5135
-20.3634
-20.2109
-20.0695
-19.9808
-19.8943
-19.8069
-19.6939
-19.5846
-19.5008
-19.4614
-19.443
-19.3991
-19.4122
-19.4458
-19.3914
-19.4163
-19.6104
-20.3189
-21.4334
-23.0463
-25.974
-29.132
-30.5519
-30.7929
-30.5775
-30.2673
-29.9981
-29.8118
-29.7181
-31.5303
-30.8594
-30.1107
-28.8769
-27.7167
-27.116
-26.4785
-25.926
-25.7687
-25.6387
-25.5572
-25.2007
-24.8516
-24.613
-24.0628
-23.526
-23.3168
-23.0485
-22.8025
-22.7897
-22.7744
-22.7741
-22.5803
-22.3841
-22.2588
-21.9393
-21.642
-21.573
-21.5221
-21.4931
-21.3135
-21.1317
-21.0026
-20.7189
-20.4385
-20.3049
-20.1448
-19.989
-19.911
-19.8247
-19.7385
-19.6086
-19.4814
-19.382
-19.3402
-19.3225
-19.2438
-19.2499
-19.2839
-19.1436
-19.0859
-19.1512
-19.8764
-20.9969
-22.5435
-26.0297
-29.9769
-31.3836
-31.3849
-30.9693
-30.5316
-30.1879
-29.9612
-29.8497
-32.0716
-31.2067
-30.4591
-28.9824
-27.6157
-27.1095
-26.4201
-25.7819
-25.7249
-25.6274
-25.6409
-25.2177
-24.8399
-24.6908
-24.0351
-23.3949
-23.2676
-22.9793
-22.6851
-22.7431
-22.7524
-22.8159
-22.578
-22.362
-22.2929
-21.9051
-21.5434
-21.5276
-21.4954
-21.5172
-21.3024
-21.1044
-21.018
-20.682
-20.3514
-20.2516
-20.0811
-19.9038
-19.8452
-19.7582
-19.6777
-19.5268
-19.3797
-19.2623
-19.2217
-19.2135
-19.0865
-19.0917
-19.1474
-18.8979
-18.7568
-18.6426
-19.4114
-20.5342
-21.8592
-26.0348
-31.0514
-32.3272
-31.9952
-31.3464
-30.7744
-30.3572
-30.0918
-29.9638
-32.6725
-31.528
-30.8621
-29.0728
-27.4366
-27.1205
-26.3592
-25.5883
-25.6867
-25.6061
-25.7627
-25.2297
-24.8068
-24.8137
-24.0071
-23.2204
-23.2359
-22.9136
-22.539
-22.703
-22.7262
-22.8847
-22.5739
-22.3268
-22.3561
-21.87
-21.4159
-21.4856
-21.4647
-21.563
-21.2903
-21.0676
-21.0567
-20.6462
-20.2459
-20.2074
-20.0208
-19.811
-19.7849
-19.694
-19.6262
-19.4481
-19.2796
-19.1405
-19.1053
-19.1207
-18.9233
-18.9356
-19.046
-18.6526
-18.4391
-18.0714
-18.9324
-20.0714
-20.9313
-25.9593
-32.4379
-33.3847
-32.6098
-31.6998
-30.9918
-30.5044
-30.2036
-30.0604
-33.3477
-31.7938
-31.346
-29.1457
-27.1497
-27.1699
-26.3016
-25.327
-25.6657
-25.565
-25.9396
-25.2316
-24.7377
-25.0024
-23.9786
-22.9832
-23.235
-22.8552
-22.352
-22.6769
-22.6894
-22.9916
-22.5643
-22.2689
-22.4616
-21.8335
-21.2481
-21.4533
-21.425
-21.6393
-21.2744
-21.0139
-21.1287
-20.611
-20.1134
-20.178
-19.9651
-19.7061
-19.7329
-19.6306
-19.5867
-19.3721
-19.1812
-19.0149
-18.9895
-19.0505
-18.7488
-18.7778
-18.9931
-18.4022
-18.1485
-17.4173
-18.4495
-19.6523
-19.6781
-25.7601
-34.2491
-34.5482
-33.2099
-32.0202
-31.1803
-30.6287
-30.2964
-30.1403
-34.1182
-31.9597
-31.949
-29.1989
-26.7136
-27.288
-26.255
-24.9718
-25.6805
-25.4879
-26.1955
-25.2163
-24.611
-25.2861
-23.9491
-22.6564
-23.2846
-22.8093
-22.1069
-22.6769
-22.6311
-23.1522
-22.5447
-22.1746
-22.6283
-21.7952
-21.0242
-21.4409
-21.3677
-21.7586
-21.2509
-20.9325
-21.2482
-20.5757
-19.9416
-20.172
-19.9154
-19.5828
-19.6934
-19.5653
-19.5625
-19.2974
-19.085
-18.8834
-18.8719
-19.0124
-18.5554
-18.612
-19.0071
-18.1358
-17.9085
-16.6501
-17.9736
-19.3446
-17.9935
-25.377
-36.6381
-35.7937
-33.7723
-32.2984
-31.3374
-30.7298
-30.371
-30.2039
-35.0135
-31.9615
-32.7263
-29.2302
-26.0724
-27.5184
-26.2287
-24.4861
-25.7605
-25.3483
-26.5638
-25.1743
-24.396
-25.7049
-23.9176
-22.203
-23.4127
-22.7819
-21.7791
-22.7217
-22.5339
-23.3886
-22.5085
-22.0241
-22.8819
-21.754
-20.723
-21.4647
-21.2789
-21.9385
-21.2144
-20.8082
-21.4348
-20.5391
-19.7138
-20.2018
-19.8735
-19.4323
-19.673
-19.4936
-19.5585
-19.2221
-18.9922
-18.7435
-18.7482
-19.0195
-18.3328
-18.4285
-19.1132
-17.8339
-17.754
-15.727
-17.5147
-19.2485
-15.7413
-24.7265
-39.8106
-37.073
-34.2703
-32.5268
-31.4614
-30.8081
-30.4281
-30.2524
-36.0745
-31.7079
-33.7551
-29.2373
-25.1504
-27.9219
-26.2339
-23.8193
-25.9495
-25.1062
-27.0906
-25.0931
-24.0507
-26.3129
-23.8826
-21.5734
-23.6584
-22.7806
-21.3352
-22.8401
-22.3713
-23.7308
-22.4474
-21.7902
-23.2575
-21.708
-20.3159
-21.5493
-21.1375
-22.2032
-21.1583
-20.6201
-21.7153
-20.4993
-19.4079
-20.2849
-19.8408
-19.2426
-19.6815
-19.4087
-19.5815
-19.1429
-18.9045
-18.5927
-18.6119
-19.0904
-18.0672
-18.2136
-19.3461
-17.465
-17.7363
-14.5882
-17.0793
-19.5065
-12.7487
-23.6956
-44.0402
-38.3029
-34.6756
-32.6994
-31.5521
-30.8643
-30.4687
-30.2869
-37.357
-31.0726
-35.141
-29.2174
-23.848
-28.5809
-26.2834
-22.903
-26.3122
-24.7016
-27.8386
-24.957
-23.518
-27.182
-23.8417
-20.7017
-24.0747
-22.8142
-20.7298
-23.0739
-22.1039
-24.2201
-22.3506
-21.4363
-23.8017
-21.6543
-19.7655
-21.7307
-20.9119
-22.5857
-21.0734
-20.3401
-22.1251
-20.4535
-18.9945
-20.4451
-19.8189
-18.9975
-19.733
-19.3
-19.6409
-19.0547
-18.8249
-18.4278
-18.4533
-19.2501
-17.7414
-17.9475
-19.7534
-16.9805
-17.9282
-13.1531
-16.6668
-20.3149
-8.79943
-22.1334
-49.6852
-39.3522
-34.9617
-32.8133
-31.6103
-30.9
-30.4943
-30.3084
-38.9363
-29.8857
-37.0274
-29.1672
-22.0356
-29.6049
-26.3914
-21.6459
-26.9398
-24.0491
-28.8914
-24.7459
-22.7226
-28.4061
-23.7914
-19.5028
-24.7327
-22.8926
-19.9025
-23.4831
-21.6757
-24.9117
-22.2045
-20.9141
-24.5753
-21.5886
-19.0231
-22.0602
-20.5568
-23.1303
-20.9488
-19.9313
-22.7111
-20.398
-18.4361
-20.7149
-19.8093
-18.676
-19.8479
-19.1531
-19.7499
-18.9508
-18.7584
-18.2468
-18.2589
-19.5324
-17.3339
-17.6039
-20.4
-16.3096
-18.4323
-11.316
-16.2655
-21.9373
-3.62748
-19.8427
-57.21
-40.0257
-35.1094
-32.869
-31.6384
-30.9171
-30.5065
-30.3189
)
;

boundaryField
{
    left
    {
        type            calculated;
        value           nonuniform List<scalar> 
32
(
-26.4239
-26.4462
-26.4889
-26.5501
-26.6285
-26.7231
-26.8333
-26.9585
-27.0988
-27.2541
-27.4247
-27.6112
-27.8141
-28.0344
-28.2731
-28.5313
-28.8105
-29.1123
-29.4385
-29.7913
-30.1733
-30.5875
-31.0381
-31.5303
-32.0716
-32.6725
-33.3477
-34.1182
-35.0135
-36.0745
-37.357
-38.9363
)
;
    }
    right
    {
        type            calculated;
        value           nonuniform List<scalar> 
32
(
-25.7952
-25.8298
-25.8958
-25.9897
-26.1087
-26.2501
-26.4115
-26.5908
-26.7855
-26.9934
-27.212
-27.4387
-27.671
-27.906
-28.141
-28.3732
-28.5999
-28.8186
-29.0267
-29.2223
-29.4036
-29.5692
-29.7181
-29.8497
-29.9638
-30.0604
-30.1403
-30.2039
-30.2524
-30.2869
-30.3084
-30.3189
)
;
    }
    interface
    {
        type            calculated;
        value           nonuniform List<scalar> 
64
(
-39.8109
-29.1302
-38.1163
-29.1342
-20.9836
-30.2237
-26.4618
-20.9192
-27.3333
-23.6483
-29.5059
-24.6189
-22.2485
-29.1201
-23.7634
-18.8096
-25.1322
-22.9444
-19.4249
-23.7404
-21.4131
-25.3159
-22.1173
-20.6041
-25.0281
-21.5521
-18.597
-22.2695
-20.3403
-23.4495
-20.875
-19.6895
-23.0548
-20.3673
-18.1155
-20.8819
-19.8078
-18.4934
-19.9244
-19.0681
-19.8188
-18.8939
-18.7293
-18.152
-18.1508
-19.7091
-17.1068
-17.409
-20.7925
-15.917
-18.7774
-10.2821
-16.0653
-22.9896
-0.699254
-18.4873
-61.5077
-40.2395
-35.1469
-32.8827
-31.6453
-30.9213
-30.5096
-30.3216
)
;
    }
    bottom
    {
        type            calculated;
        value           nonuniform List<scalar> 
64
(
-26.4181
-26.3907
-26.3366
-26.2574
-26.1551
-26.0323
-25.8916
-25.736
-25.568
-25.3903
-25.2052
-25.015
-24.8216
-24.6266
-24.4315
-24.2377
-24.0463
-23.8582
-23.6742
-23.4948
-23.3205
-23.1516
-22.9885
-22.8313
-22.6804
-22.5359
-22.3981
-22.2674
-22.1442
-22.0289
-21.922
-21.8243
-21.7365
-21.6594
-21.5939
-21.5412
-21.5021
-21.478
-21.4701
-21.4795
-21.5076
-21.5556
-21.6248
-21.7161
-21.8307
-21.9692
-22.132
-22.3189
-22.5294
-22.762
-23.0143
-23.283
-23.5638
-23.8517
-24.1404
-24.4237
-24.6946
-24.9468
-25.1741
-25.3714
-25.5341
-25.659
-25.7435
-25.7862
)
;
    }
    defaultFaces
    {
        type            empty;
    }
}


// ************************************************************************* //
