/*--------------------------------*- C++ -*----------------------------------*\
| =========                 |                                                 |
| \\      /  F ield         | OpenFOAM: The Open Source CFD Toolbox           |
|  \\    /   O peration     | Version:  5.x                                   |
|   \\  /    A nd           | Web:      www.OpenFOAM.org                      |
|    \\/     M anipulation  |                                                 |
\*---------------------------------------------------------------------------*/
FoamFile
{
    version     2.0;
    format      ascii;
    class       volScalarField;
    location    "15.3";
    object      gradTx;
}
// * * * * * * * * * * * * * * * * * * * * * * * * * * * * * * * * * * * * * //

dimensions      [0 -1 0 1 0 0 0];

internalField   nonuniform List<scalar> 
6300
(
-31.9432
-32.014
-32.1548
-32.3642
-32.6401
-32.9791
-33.3772
-33.8288
-34.3273
-34.8645
-35.4311
-36.0166
-36.6101
-37.2003
-37.7764
-31.8725
-31.9439
-32.0861
-32.2978
-32.5768
-32.9202
-33.3237
-33.782
-34.2885
-34.8351
-35.4121
-36.0087
-36.6134
-37.2142
-37.7998
-31.7303
-31.8031
-31.948
-32.1641
-32.4493
-32.801
-33.2153
-33.687
-34.2098
-34.7752
-35.3734
-35.9928
-36.6207
-37.2435
-37.8484
-31.5153
-31.59
-31.7389
-31.9612
-32.2554
-32.6192
-33.0493
-33.5411
-34.0883
-34.6826
-35.3135
-35.9685
-36.6328
-37.2908
-37.9265
-31.2257
-31.3027
-31.4564
-31.6864
-31.9918
-32.3711
-32.8217
-33.3399
-33.9198
-34.5533
-35.2297
-35.9347
-36.6514
-37.3603
-38.041
-30.8592
-30.9386
-31.0976
-31.3362
-31.6543
-32.0516
-32.5266
-33.0768
-33.6975
-34.3813
-35.1171
-35.8893
-36.6778
-37.458
-38.2025
-30.4132
-30.495
-30.6591
-30.9064
-31.2378
-31.6543
-32.1564
-32.7433
-33.4123
-34.1573
-34.968
-35.8276
-36.7125
-37.5913
-38.4262
-29.8854
-29.9691
-30.1376
-30.3924
-30.7361
-31.1714
-31.7013
-32.3277
-33.0509
-33.8678
-34.7699
-35.7407
-36.7533
-37.7685
-38.7336
-29.2738
-29.3586
-29.5296
-29.7897
-30.1427
-30.5941
-31.1496
-31.8152
-32.5959
-33.4932
-34.5031
-35.6118
-36.7917
-37.9956
-39.1526
-28.5774
-28.6618
-28.8327
-29.0938
-29.4511
-29.9125
-30.4877
-31.1878
-32.0241
-33.0059
-34.1374
-35.4119
-36.8059
-38.2697
-39.7151
-27.7965
-27.8787
-28.0455
-28.3018
-28.6554
-29.1172
-29.701
-30.4243
-31.3068
-32.3691
-33.6286
-35.0926
-36.7505
-38.5623
-40.4417
-26.9334
-27.0109
-27.1687
-27.4125
-27.7517
-28.1997
-28.7749
-29.5014
-30.4097
-31.5353
-32.9152
-34.5797
-36.5413
-38.7875
-41.2896
-25.9929
-26.0629
-26.2058
-26.4278
-26.7391
-27.155
-27.6973
-28.3968
-29.2953
-30.4472
-31.9173
-33.7704
-36.0482
-38.7584
-41.991
-24.9824
-25.0419
-25.1637
-25.3538
-25.622
-25.9839
-26.4627
-27.0933
-27.9276
-29.041
-30.537
-32.5376
-35.1262
-38.2129
-41.6315
-23.9124
-23.9587
-24.0535
-24.2016
-24.4113
-24.6958
-25.0761
-25.5861
-26.2809
-27.2524
-28.6533
-30.7203
-33.7155
-37.358
-37.9796
-38.2853
-38.725
-39.1406
-39.5301
-39.8925
-40.2279
-40.5367
-40.8192
-41.0758
-41.3063
-41.5101
-41.6862
-41.8335
-41.9515
-42.0398
-42.0994
-42.1323
-42.1412
-42.1302
-42.1033
-42.0649
-42.0188
-41.9679
-41.9139
-41.8574
-41.7978
-41.7336
-41.6629
-41.5838
-41.4947
-41.3952
-41.2854
-41.167
-41.0421
-40.9135
-40.7842
-40.6568
-40.5331
-40.4139
-40.2992
-40.1875
-40.0772
-39.9657
-39.851
-39.7312
-39.6054
-39.4737
-39.3372
-39.1978
-39.0581
-38.9204
-38.7872
-38.66
-38.5395
-38.4254
-38.3163
-38.2103
-38.1051
-37.9986
-37.889
-37.7753
-37.6575
-37.5367
-37.4146
-37.2936
-37.176
-37.0641
-36.9593
-36.8625
-36.7732
-36.6906
-36.613
-36.5385
-36.4655
-36.393
-36.3209
-36.2502
-36.1831
-36.1227
-36.0729
-36.0376
-36.0206
-36.0249
-36.052
-36.1022
-36.1739
-36.2636
-36.3664
-36.4761
-36.5858
-38.3156
-38.7598
-39.1782
-39.5689
-39.9315
-40.2664
-40.5744
-40.8565
-41.1134
-41.3448
-41.5499
-41.7275
-41.876
-41.994
-42.0812
-42.138
-42.1666
-42.1701
-42.1529
-42.1199
-42.0761
-42.0257
-41.9722
-41.9175
-41.8619
-41.8044
-41.743
-41.6751
-41.598
-41.5099
-41.4098
-41.298
-41.1763
-41.0473
-40.9145
-40.7816
-40.6515
-40.5265
-40.4076
-40.2946
-40.1858
-40.0787
-39.9705
-39.8583
-39.7398
-39.6139
-39.4806
-39.3413
-39.1984
-39.055
-38.9141
-38.7786
-38.6504
-38.5304
-38.4181
-38.3118
-38.2091
-38.1071
-38.0031
-37.8948
-37.7811
-37.6619
-37.5385
-37.4131
-37.2886
-37.1679
-37.0538
-36.948
-36.8514
-36.7637
-36.6834
-36.6084
-36.5363
-36.4648
-36.3925
-36.3189
-36.2451
-36.1734
-36.1076
-36.0519
-36.0113
-35.9901
-35.9918
-36.0188
-36.0714
-36.1479
-36.2448
-36.3564
-36.476
-36.5958
-38.3785
-38.8318
-39.2555
-39.6483
-40.0104
-40.3434
-40.6494
-40.9303
-41.1875
-41.421
-41.6295
-41.8108
-41.9622
-42.0811
-42.1662
-42.2174
-42.237
-42.2288
-42.1984
-42.1521
-42.0965
-42.0372
-41.9784
-41.9224
-41.869
-41.8166
-41.7618
-41.7003
-41.6282
-41.5424
-41.4412
-41.325
-41.1959
-41.058
-40.9159
-40.7747
-40.6387
-40.5111
-40.393
-40.2839
-40.1815
-40.082
-39.981
-39.8745
-39.7591
-39.633
-39.4962
-39.3507
-39.1999
-39.0481
-38.9
-38.7594
-38.6291
-38.5102
-38.402
-38.3021
-38.2069
-38.1121
-38.0137
-37.9085
-37.7948
-37.6724
-37.5432
-37.4104
-37.278
-37.1504
-37.0314
-36.9234
-36.8277
-36.7435
-36.6686
-36.5998
-36.5332
-36.4654
-36.3937
-36.3172
-36.2368
-36.1554
-36.0777
-36.0094
-35.957
-35.9264
-35.9226
-35.9488
-36.006
-36.0927
-36.2046
-36.3351
-36.4757
-36.6167
-38.4791
-38.9463
-39.3775
-39.7719
-40.1313
-40.4593
-40.7603
-41.0384
-41.2959
-41.5332
-41.7483
-41.9372
-42.095
-42.217
-42.2998
-42.3425
-42.3473
-42.3195
-42.2666
-42.1978
-42.1223
-42.048
-41.9807
-41.9232
-41.8749
-41.8324
-41.79
-41.7408
-41.6783
-41.597
-41.4942
-41.3703
-41.2285
-41.0746
-40.9161
-40.7603
-40.6141
-40.4818
-40.3654
-40.2637
-40.1729
-40.0872
-39.9996
-39.9036
-39.7938
-39.6674
-39.5243
-39.3677
-39.2027
-39.0361
-38.875
-38.7253
-38.5914
-38.4747
-38.374
-38.2857
-38.2039
-38.1222
-38.0342
-37.9346
-37.8208
-37.6927
-37.5531
-37.4069
-37.2606
-37.1207
-36.993
-36.8814
-36.7873
-36.7098
-36.645
-36.5878
-36.5319
-36.4714
-36.4019
-36.3211
-36.2299
-36.1321
-36.0341
-35.9441
-35.8713
-35.8241
-35.81
-35.834
-35.8982
-36.001
-36.1376
-36.2992
-36.4748
-36.6512
-38.6262
-39.1125
-39.5524
-39.946
-40.2975
-40.6141
-40.9044
-41.176
-41.4334
-41.6775
-41.9048
-42.1084
-42.2795
-42.4093
-42.4911
-42.5222
-42.5048
-42.4462
-42.3578
-42.2532
-42.1462
-42.0487
-41.969
-41.9107
-41.8724
-41.848
-41.8279
-41.8007
-41.7552
-41.6825
-41.5778
-41.4414
-41.2784
-41.0981
-40.9121
-40.7324
-40.5692
-40.4297
-40.3166
-40.2278
-40.1571
-40.0951
-40.0305
-39.9525
-39.8525
-39.7257
-39.5721
-39.3966
-39.2077
-39.0162
-38.8334
-38.6687
-38.5288
-38.416
-38.3283
-38.2597
-38.201
-38.1416
-38.0711
-37.9812
-37.8674
-37.7297
-37.5724
-37.4037
-37.2338
-37.0734
-36.9314
-36.8139
-36.7233
-36.6575
-36.6107
-36.574
-36.5373
-36.4906
-36.4262
-36.34
-36.2325
-36.109
-35.9789
-35.8543
-35.7485
-35.6742
-35.6427
-35.6615
-35.7347
-35.861
-36.0343
-36.2434
-36.4725
-36.7034
-38.8337
-39.3454
-39.7941
-40.1808
-40.5137
-40.8068
-41.0756
-41.3338
-41.5901
-41.8459
-42.0953
-42.3264
-42.5235
-42.6707
-42.7555
-42.7716
-42.7214
-42.6158
-42.4723
-42.3121
-42.1565
-42.0238
-41.9264
-41.8695
-41.85
-41.8575
-41.8761
-41.8869
-41.8712
-41.814
-41.7072
-41.5507
-41.3532
-41.1297
-40.8991
-40.6805
-40.4903
-40.3397
-40.2326
-40.1658
-40.129
-40.1066
-40.0806
-40.033
-39.9497
-39.8225
-39.6516
-39.4448
-39.2164
-38.984
-38.7656
-38.5765
-38.4271
-38.3211
-38.2551
-38.2194
-38.1991
-38.1769
-38.1359
-38.0623
-37.9486
-37.7947
-37.6081
-37.4021
-37.1936
-36.9995
-36.8344
-36.7079
-36.6235
-36.578
-36.5617
-36.5603
-36.557
-36.5353
-36.4819
-36.3895
-36.2581
-36.0956
-35.9159
-35.7374
-35.5801
-35.463
-35.4026
-35.4109
-35.4945
-35.6532
-35.8797
-36.1586
-36.4678
-36.7802
-39.1229
-39.6692
-40.1252
-40.4928
-40.7875
-41.0344
-41.2619
-41.4945
-41.7475
-42.0235
-42.3123
-42.5933
-42.8393
-43.0221
-43.1186
-43.1165
-43.018
-42.8401
-42.6109
-42.3643
-42.1338
-41.9479
-41.8256
-41.7743
-41.7885
-41.851
-41.9356
-42.0113
-42.0469
-42.0172
-41.9079
-41.7192
-41.4653
-41.1715
-40.8687
-40.5877
-40.3546
-40.1869
-40.0908
-40.0606
-40.0799
-40.1235
-40.1617
-40.1652
-40.1099
-39.9824
-39.7827
-39.5242
-39.2308
-38.9316
-38.6555
-38.4272
-38.263
-38.1685
-38.1384
-38.1568
-38.1999
-38.2395
-38.2475
-38.2012
-38.0877
-37.9069
-37.6716
-37.4043
-37.1326
-36.8839
-36.6817
-36.5412
-36.4679
-36.4564
-36.4912
-36.5493
-36.6032
-36.6256
-36.5939
-36.4952
-36.3287
-36.1067
-35.8511
-35.5901
-35.3537
-35.1702
-35.0636
-35.052
-35.146
-35.348
-35.6494
-36.0303
-36.4584
-36.8927
-39.527
-40.1232
-40.5834
-40.9098
-41.1301
-41.2901
-41.4408
-41.6259
-41.8718
-42.1826
-42.5406
-42.9107
-43.2462
-43.4979
-43.6237
-43.6
-43.4289
-43.1382
-42.7747
-42.3932
-42.0469
-41.7803
-41.6227
-41.5849
-41.6576
-41.8127
-42.0081
-42.1932
-42.3165
-42.3349
-42.2231
-41.9815
-41.6349
-41.2264
-40.8068
-40.4259
-40.1248
-39.9309
-39.8539
-39.8844
-39.9958
-40.1479
-40.2929
-40.3819
-40.3743
-40.2463
-39.9983
-39.6539
-39.2537
-38.8457
-38.4768
-38.1857
-37.9982
-37.9233
-37.9519
-38.0588
-38.2058
-38.3474
-38.4373
-38.4369
-38.3236
-38.0976
-37.7812
-37.4129
-37.0382
-36.7016
-36.44
-36.2778
-36.2233
-36.268
-36.3872
-36.5442
-36.6948
-36.7937
-36.8025
-36.6983
-36.4794
-36.166
-35.7941
-35.4075
-35.0513
-34.7666
-34.5878
-34.5408
-34.6424
-34.8993
-35.3049
-35.8339
-36.4399
-37.0588
-40.0967
-40.7729
-41.2344
-41.4797
-41.5595
-41.5589
-41.5702
-41.6699
-41.9026
-42.2735
-42.7516
-43.2777
-43.7738
-44.1548
-44.3443
-44.296
-44.0117
-43.5413
-42.9646
-42.3713
-41.8454
-41.4556
-41.2472
-41.2366
-41.4078
-41.7163
-42.0954
-42.4642
-42.7374
-42.8398
-42.7255
-42.3948
-41.8937
-41.2973
-40.6894
-40.1491
-39.7406
-39.5066
-39.4621
-39.5917
-39.853
-40.1828
-40.5046
-40.7379
-40.8118
-40.6832
-40.3527
-39.864
-39.2878
-38.7037
-38.1859
-37.7951
-37.5714
-37.5289
-37.6528
-37.9029
-38.2194
-38.5297
-38.7573
-38.8351
-38.722
-38.4183
-37.9655
-37.4306
-36.889
-36.4113
-36.0553
-35.8591
-35.8361
-35.9722
-36.2289
-36.5485
-36.8609
-37.0915
-37.1739
-37.0664
-36.7662
-36.3097
-35.7581
-35.1811
-34.6458
-34.2105
-33.9222
-33.8156
-33.915
-34.2366
-34.7826
-35.5268
-36.403
-37.3076
-40.9088
-41.7318
-42.197
-42.2876
-42.1048
-41.8107
-41.5724
-41.5224
-41.7345
-42.2101
-42.8935
-43.6879
-44.4674
-45.0873
-45.4072
-45.3319
-44.8627
-44.0973
-43.1783
-42.2522
-41.4481
-40.8695
-40.5868
-40.6263
-40.9604
-41.5182
-42.1974
-42.8729
-43.4043
-43.6568
-43.5395
-43.0532
-42.2901
-41.3845
-40.4747
-39.6824
-39.1052
-38.8094
-38.8196
-39.1094
-39.6115
-40.2291
-40.8439
-41.3234
-41.5408
-41.4108
-40.9348
-40.2
-39.3335
-38.466
-37.7121
-37.1639
-36.8837
-36.8948
-37.1719
-37.6515
-38.2419
-38.831
-39.2932
-39.5081
-39.3947
-38.9538
-38.2681
-37.4581
-36.6477
-35.9459
-35.4405
-35.191
-35.2196
-35.5028
-35.9798
-36.5631
-37.1447
-37.6027
-37.819
-37.712
-37.2779
-36.5904
-35.7587
-34.8947
-34.0962
-33.4428
-32.9948
-32.7937
-32.8677
-33.2507
-33.975
-35.0295
-36.3252
-37.6888
-42.0728
-43.2058
-43.6991
-43.4895
-42.8105
-41.982
-41.3032
-40.9976
-41.1867
-41.8475
-42.8757
-44.1195
-45.3906
-46.4519
-47.0392
-46.9349
-46.1402
-44.8745
-43.4021
-41.9576
-40.726
-39.8575
-39.4625
-39.592
-40.1908
-41.1452
-42.3049
-43.4892
-44.4728
-45.0062
-44.8847
-44.1105
-42.8915
-41.4776
-40.0909
-38.9059
-38.0647
-37.6716
-37.7746
-38.3212
-39.2036
-40.2795
-41.378
-42.2864
-42.7701
-42.6368
-41.8895
-40.7255
-39.3807
-38.0647
-36.9422
-36.1467
-35.7767
-35.8775
-36.3994
-37.2405
-38.2663
-39.315
-40.1852
-40.6541
-40.5388
-39.8419
-38.7497
-37.4861
-36.2499
-35.1978
-34.4572
-34.1223
-34.2367
-34.754
-35.5779
-36.5803
-37.6064
-38.4618
-38.9295
-38.8286
-38.1547
-37.0788
-35.8059
-34.5141
-33.3376
-32.3793
-31.7121
-31.3759
-31.3751
-31.7734
-32.6921
-34.1846
-36.1497
-38.2901
-43.7146
-45.5999
-46.2127
-45.3686
-43.7322
-41.9377
-40.4962
-39.7602
-39.9599
-40.9558
-42.5475
-44.5119
-46.6159
-48.4991
-49.6671
-49.5322
-48.0958
-45.9496
-43.5855
-41.3564
-39.4812
-38.1634
-37.5831
-37.8819
-38.9091
-40.4764
-42.3772
-44.3943
-46.1895
-47.2985
-47.17
-45.8082
-43.7736
-41.5317
-39.4164
-37.6346
-36.3787
-35.8195
-36.0908
-37.0495
-38.5171
-40.2976
-42.1855
-43.8612
-44.8877
-44.7468
-43.4445
-41.5112
-39.3865
-37.385
-35.7012
-34.5166
-33.9919
-34.2538
-35.1672
-36.5636
-38.2578
-40.0559
-41.6552
-42.641
-42.5207
-41.299
-39.4781
-37.4746
-35.5872
-34.0011
-32.8896
-32.4065
-32.6736
-33.5639
-34.9188
-36.5635
-38.3138
-39.8795
-40.8587
-40.7703
-39.6103
-37.8508
-35.8801
-33.9676
-32.2648
-30.8967
-29.9525
-29.475
-29.308
-29.5469
-30.5827
-32.6593
-35.722
-39.2756
-45.8211
-49.8213
-50.8193
-48.3895
-44.8855
-41.3856
-38.6732
-37.1751
-37.5864
-39.2063
-41.6823
-44.7035
-48.159
-51.5763
-54.1712
-54.0036
-51.0736
-47.3386
-43.5744
-40.2457
-37.4338
-35.4072
-34.4377
-35.1228
-36.8495
-39.3277
-42.2817
-45.6192
-48.8943
-51.373
-51.2312
-48.4748
-44.9542
-41.4036
-38.2617
-35.6057
-33.6897
-32.7715
-33.417
-35.0449
-37.3802
-40.1609
-43.2986
-46.371
-48.6862
-48.5292
-45.9081
-42.5724
-39.2151
-36.2475
-33.7417
-31.936
-31.0745
-31.6921
-33.2395
-35.4577
-38.0997
-41.083
-44.0088
-46.2207
-46.0887
-43.6191
-40.4693
-37.2961
-34.4903
-32.1212
-30.4169
-29.6106
-30.2131
-31.7049
-33.8424
-36.3946
-39.2871
-42.1416
-44.3252
-44.2551
-41.9293
-38.9269
-35.8708
-33.1188
-30.7103
-28.8038
-27.5208
-27.1269
-26.6566
-26.1727
-26.9745
-29.7139
-34.5874
-40.9768
-47.3436
-58.3544
-60.3322
-52.9452
-46.0418
-39.7046
-35.1029
-31.8408
-33.4723
-36.2242
-40.0322
-44.2697
-49.7569
-55.838
-62.6532
-62.453
-55.2104
-48.7696
-42.9363
-38.391
-34.2553
-31.1287
-28.91
-30.8637
-33.7076
-37.4939
-41.6341
-46.9338
-52.7461
-59.2207
-59.0575
-52.2418
-46.1778
-40.6871
-36.4071
-32.5115
-29.5636
-27.4718
-29.3285
-32.0217
-35.6019
-39.5099
-44.506
-49.971
-56.0449
-55.8599
-49.4007
-43.6649
-38.4822
-34.4453
-30.7738
-27.996
-26.0271
-27.7912
-30.3461
-33.7416
-37.4498
-42.1932
-47.3903
-53.1756
-53.0227
-46.9189
-41.4941
-36.5883
-32.7647
-29.2841
-26.651
-24.7861
-26.4721
-28.916
-32.1687
-35.7355
-40.3152
-45.3698
-51.037
-50.9882
-45.2225
-40.0804
-35.4235
-31.7753
-28.4328
-25.813
-23.8086
-24.8891
-24.0247
-20.9471
-20.5763
-23.6953
-31.27
-44.1083
-41.2161
-79.9259
-83.2243
-56.6963
-46.3674
-35.526
-29.6041
-19.4597
-27.7448
-31.7214
-37.7633
-42.0363
-50.4998
-59.0423
-81.2377
-81.0432
-58.1928
-49.326
-40.4432
-35.9464
-29.6239
-25.5431
-17.3737
-25.323
-29.2086
-35.1507
-39.3166
-47.5103
-55.6441
-76.627
-76.4634
-54.9262
-46.576
-38.2274
-33.9987
-28.0527
-24.2049
-16.4861
-24.0355
-27.7213
-33.3516
-37.292
-45.038
-52.6943
-72.4165
-72.2254
-51.8514
-43.9611
-36.0994
-32.1167
-26.5191
-22.8912
-15.6042
-22.7514
-26.2423
-31.5752
-35.3095
-42.6499
-49.9248
-68.6814
-68.526
-49.241
-41.7713
-34.3223
-30.5453
-25.2265
-21.7789
-14.8484
-21.6395
-24.9624
-30.0429
-33.618
-40.6592
-47.7159
-65.9798
-65.9538
-47.6175
-40.5353
-33.5236
-29.9916
-25.1145
-21.9361
-15.6543
-25.4518
-24.5801
-11.8235
-9.15261
-11.2606
-20.3732
-50.2145
-36.6978
-36.8013
-36.8762
-36.9169
-36.9218
-36.8927
-36.8343
-36.7534
-36.6583
-36.5574
-36.4591
-36.3708
-36.2989
-36.2481
-36.2219
-36.7178
-36.83
-36.9102
-36.9527
-36.9558
-36.922
-36.8567
-36.7677
-36.664
-36.5549
-36.4491
-36.3545
-36.2776
-36.2236
-36.1957
-36.76
-36.8906
-36.9821
-37.0279
-37.0269
-36.9827
-36.9028
-36.7967
-36.6753
-36.549
-36.4279
-36.3204
-36.2337
-36.1729
-36.1416
-36.8297
-36.9904
-37.0996
-37.1499
-37.141
-37.0792
-36.975
-36.8411
-36.6912
-36.538
-36.393
-36.2657
-36.1637
-36.0926
-36.0562
-36.9357
-37.1415
-37.2762
-37.331
-37.3081
-37.2181
-37.0767
-36.9017
-36.7105
-36.5189
-36.3404
-36.1856
-36.0628
-35.9778
-35.9343
-37.0924
-37.3636
-37.5326
-37.5899
-37.5424
-37.4084
-37.2121
-36.9783
-36.7301
-36.4868
-36.264
-36.0736
-35.924
-35.8213
-35.7691
-37.3232
-37.6879
-37.9008
-37.9536
-37.8631
-37.6612
-37.3849
-37.0695
-36.7447
-36.4342
-36.1554
-35.9206
-35.7385
-35.6144
-35.5516
-37.6661
-38.1638
-38.4292
-38.4605
-38.2951
-37.9883
-37.5969
-37.1699
-36.7451
-36.3499
-36.0026
-35.7151
-35.4949
-35.3462
-35.2713
-38.1847
-38.872
-39.1918
-39.1642
-38.8684
-38.4
-37.8446
-37.2681
-36.7161
-36.2176
-35.7899
-35.4424
-35.1797
-35.0041
-34.9162
-38.9914
-39.9475
-40.3017
-40.1362
-39.6145
-38.8985
-38.1133
-37.3418
-36.6335
-36.0146
-35.497
-35.0847
-34.7776
-34.5743
-34.4731
-40.2949
-41.6251
-41.9312
-41.4645
-40.5549
-39.4664
-38.3682
-37.3523
-36.4615
-35.7103
-35.0989
-34.6218
-34.2718
-34.0424
-33.9289
-42.5162
-44.327
-44.3334
-43.2356
-41.674
-40.0442
-38.5406
-37.2378
-36.15
-35.2661
-34.5665
-34.0318
-33.6453
-33.3945
-33.2712
-46.5947
-48.8331
-47.8399
-45.4706
-42.8613
-40.4956
-38.5124
-36.9083
-35.6347
-34.6374
-33.8693
-33.2936
-32.8832
-32.6193
-32.4901
-54.9101
-56.5709
-52.7226
-47.9454
-43.805
-40.5647
-38.1051
-36.2481
-34.8432
-33.7796
-32.9797
-32.3901
-31.9745
-31.7092
-31.58
-74.4916
-69.8178
-58.5341
-49.7835
-43.8487
-39.8529
-37.0953
-35.1358
-33.7102
-32.6581
-31.8799
-31.3125
-30.9154
-30.6632
-30.5405
-22.8891
-22.9212
-22.9869
-23.089
-23.2329
-23.4272
-23.6863
-24.0351
-24.5178
-25.2197
-26.3176
-28.2103
-31.8514
-39.4059
-53.2895
-21.9365
-21.9548
-21.9918
-22.0485
-22.1265
-22.2288
-22.3607
-22.532
-22.7628
-23.0971
-23.6445
-24.7245
-27.4808
-36.9638
-79.2267
-20.9712
-20.9754
-20.9832
-20.9932
-21.0034
-21.01
-21.0076
-20.9876
-20.9357
-20.8264
-20.6026
-20.0859
-18.5079
-11.7662
25.4411
-20.003
-19.9935
-19.9729
-19.9379
-19.8826
-19.7974
-19.6669
-19.4653
-19.1485
-18.635
-17.7631
-16.1888
-13.1835
-7.73283
-3.8442
-19.0414
-19.0193
-18.9727
-18.8967
-18.7826
-18.6163
-18.3754
-18.0231
-17.4979
-16.692
-15.4095
-13.2797
-9.56787
-2.62181
13.4424
-18.0951
-18.062
-17.993
-17.882
-17.7188
-17.487
-17.1612
-16.701
-16.0422
-15.0801
-13.644
-11.4661
-8.19749
-3.84547
-1.97839
-17.1718
-17.1296
-17.0423
-16.9035
-16.7025
-16.4231
-16.0402
-15.5169
-14.7972
-13.7974
-12.394
-10.409
-7.57903
-3.3441
4.91084
-16.2778
-16.2287
-16.1275
-15.9682
-15.7409
-15.4309
-15.0169
-14.4692
-13.7467
-12.795
-11.5479
-9.93858
-7.93609
-5.63453
-3.48113
-15.418
-15.3638
-15.2529
-15.08
-14.8367
-14.5108
-14.0865
-13.5428
-12.8552
-11.9979
-10.9535
-9.74111
-8.50077
-7.82212
-10.3777
-14.5957
-14.5384
-14.4215
-14.2408
-13.9897
-13.6593
-13.2388
-12.7164
-12.0817
-11.3306
-10.4759
-9.56303
-8.67537
-7.7637
-5.0527
-13.8133
-13.7542
-13.6344
-13.4505
-13.1978
-12.8703
-12.4619
-11.9681
-11.3889
-10.7352
-10.0385
-9.36747
-8.86665
-8.95482
-11.8414
-13.0719
-13.0123
-12.8918
-12.708
-12.4577
-12.1374
-11.7444
-11.2791
-10.7479
-10.1698
-9.58335
-9.05371
-8.64889
-8.20261
-5.57577
-12.3719
-12.3126
-12.1931
-12.0117
-11.7663
-11.455
-11.0772
-10.6357
-10.1396
-9.61008
-9.08874
-8.65326
-8.45993
-8.96468
-12.5448
-11.7131
-11.6548
-11.5374
-11.3599
-11.1207
-10.8188
-10.4543
-10.0301
-9.55443
-9.0447
-8.53452
-8.08466
-7.7862
-7.59108
-5.47196
-11.0948
-11.0379
-10.9236
-10.7509
-10.5187
-10.226
-9.87278
-9.46033
-8.99294
-8.47965
-7.93839
-7.41091
-7.0407
-7.55358
-13.4555
-10.5161
-10.4609
-10.3502
-10.1831
-9.95859
-9.67537
-9.33239
-8.9287
-8.46333
-7.93402
-7.3327
-6.62796
-5.68194
-3.77366
3.47872
-9.97557
-9.92253
-9.81605
-9.65534
-9.43925
-9.16623
-8.83415
-8.4399
-7.97812
-7.4384
-6.79884
-6.01256
-4.99142
-3.70491
-3.56702
-9.47192
-9.42125
-9.31953
-9.166
-8.95946
-8.69809
-8.3791
-7.99801
-7.54704
-7.01212
-6.36686
-5.56028
-4.48518
-2.83849
0.859144
-9.00347
-8.95542
-8.85899
-8.71349
-8.51776
-8.26996
-7.96718
-7.60463
-7.17426
-6.66248
-6.04692
-5.29446
-4.37588
-3.39635
-3.52294
-8.5684
-8.52319
-8.43253
-8.29586
-8.11221
-7.88002
-7.59678
-7.25836
-6.85803
-6.3849
-5.82205
-5.14403
-4.30891
-3.18606
-0.91634
-8.16471
-8.12254
-8.03804
-7.91086
-7.74037
-7.52554
-7.2647
-6.9551
-6.59235
-6.16965
-5.67716
-5.10269
-4.44175
-3.77219
-3.81002
-7.79032
-7.75129
-7.67319
-7.55593
-7.39932
-7.20303
-6.96649
-6.68875
-6.36829
-6.00287
-5.5892
-5.12142
-4.58059
-3.86705
-2.36706
-7.44304
-7.40718
-7.33555
-7.22834
-7.08583
-6.90847
-6.6969
-6.45207
-6.17547
-5.86961
-5.53882
-5.19087
-4.83938
-4.50806
-4.24523
-7.12066
-7.08792
-7.02263
-6.92525
-6.79655
-6.63767
-6.4504
-6.23745
-6.00299
-5.75365
-5.50037
-5.26278
-5.08417
-5.10149
-5.94081
-6.82104
-6.79125
-6.732
-6.64394
-6.52822
-6.3866
-6.22176
-6.03777
-5.84084
-5.64045
-5.45103
-5.29374
-5.19292
-5.12405
-4.58429
-6.5421
-6.51506
-6.46137
-6.38184
-6.27789
-6.15166
-6.00641
-5.84709
-5.6811
-5.51962
-5.37939
-5.28549
-5.27948
-5.47361
-6.48778
-6.28195
-6.25739
-6.20868
-6.13672
-6.04303
-5.92992
-5.80086
-5.66104
-5.51823
-5.38405
-5.27559
-5.2162
-5.22706
-5.25368
-4.63526
-6.03887
-6.01648
-5.97213
-5.90671
-5.82167
-5.71926
-5.60277
-5.47707
-5.34938
-5.23063
-5.13771
-5.09815
-5.16371
-5.48169
-6.81344
-5.81134
-5.79084
-5.75023
-5.69031
-5.61238
-5.51839
-5.4111
-5.29449
-5.17434
-5.05926
-4.96278
-4.90709
-4.92506
-5.00568
-4.47472
-5.59805
-5.57917
-5.54174
-5.48643
-5.41426
-5.32675
-5.22589
-5.11438
-4.99578
-4.87499
-4.75953
-4.66489
-4.64292
-4.95436
-7.20886
-5.39788
-5.3804
-5.34569
-5.29424
-5.22682
-5.14438
-5.04809
-4.9392
-4.81875
-4.68703
-4.54182
-4.37224
-4.12925
-3.55367
-1.05677
-5.20985
-5.19359
-5.16125
-5.11317
-5.04979
-4.97163
-4.87906
-4.77204
-4.64955
-4.50843
-4.34103
-4.13058
-3.84656
-3.48721
-3.62245
-5.03312
-5.01796
-4.98776
-4.94271
-4.88305
-4.8089
-4.72006
-4.61563
-4.4933
-4.3481
-4.17015
-3.94
-3.61619
-3.07728
-1.71193
-4.86692
-4.85278
-4.82457
-4.78241
-4.72638
-4.65637
-4.5719
-4.47166
-4.35292
-4.21052
-4.03553
-3.81447
-3.5352
-3.24126
-3.42323
-4.71055
-4.69738
-4.67109
-4.63175
-4.57941
-4.5139
-4.4347
-4.34055
-4.22898
-4.09556
-3.93292
-3.72936
-3.46441
-3.07473
-2.16604
-4.56333
-4.55109
-4.52666
-4.49014
-4.44159
-4.38094
-4.30788
-4.22154
-4.12022
-4.00091
-3.85874
-3.68688
-3.48025
-3.26862
-3.37255
-4.42462
-4.41327
-4.39064
-4.35688
-4.31216
-4.25662
-4.19028
-4.11294
-4.02397
-3.92214
-3.80517
-3.66855
-3.49957
-3.24334
-2.59352
-4.2938
-4.28328
-4.26236
-4.23125
-4.19026
-4.1398
-4.08034
-4.01241
-3.93665
-3.85388
-3.76526
-3.67271
-3.57948
-3.49139
-3.42082
-4.17028
-4.16052
-4.14115
-4.11247
-4.07495
-4.02924
-3.97627
-3.91732
-3.85422
-3.78969
-3.72809
-3.67733
-3.65585
-3.72724
-4.19906
-4.05355
-4.04445
-4.02642
-3.99984
-3.96531
-3.92373
-3.87637
-3.82513
-3.77277
-3.72346
-3.68341
-3.66161
-3.66772
-3.685
-3.44913
-3.94314
-3.93457
-3.91763
-3.89274
-3.86059
-3.82222
-3.77917
-3.73371
-3.68922
-3.6508
-3.62606
-3.62653
-3.67186
-3.81854
-4.39111
-3.83869
-3.83052
-3.81437
-3.79069
-3.7602
-3.72397
-3.68365
-3.64161
-3.60147
-3.56865
-3.55121
-3.56029
-3.60561
-3.65632
-3.35664
-3.73993
-3.732
-3.71634
-3.69337
-3.66378
-3.62859
-3.58931
-3.54821
-3.50865
-3.47581
-3.45794
-3.46889
-3.53564
-3.7374
-4.48803
-3.64667
-3.63886
-3.6234
-3.60067
-3.57125
-3.53603
-3.49626
-3.45374
-3.41115
-3.37259
-3.34468
-3.33874
-3.37191
-3.43731
-3.16417
-3.55885
-3.55102
-3.53551
-3.5126
-3.48277
-3.44664
-3.40511
-3.35933
-3.31088
-3.26196
-3.21616
-3.18145
-3.18579
-3.37232
-4.62703
-3.47647
-3.46853
-3.45276
-3.42936
-3.39865
-3.36102
-3.31692
-3.26679
-3.21092
-3.14917
-3.07996
-2.99703
-2.87316
-2.56554
-1.1979
-3.3996
-3.39148
-3.3753
-3.3512
-3.31935
-3.27989
-3.23291
-3.17822
-3.11507
-3.04155
-2.95331
-2.84104
-2.68814
-2.49487
-2.58223
-3.32839
-3.32003
-3.30335
-3.27843
-3.24532
-3.204
-3.15427
-3.09553
-3.02642
-2.94417
-2.84333
-2.71327
-2.53116
-2.22932
-1.46446
-3.26298
-3.25436
-3.23714
-3.21135
-3.17699
-3.13395
-3.08189
-3.02005
-2.94691
-2.8597
-2.75366
-2.62164
-2.45734
-2.28529
-2.37821
-3.20356
-3.19466
-3.17688
-3.15023
-3.1147
-3.07017
-3.0163
-2.95241
-2.87718
-2.78831
-2.68204
-2.55242
-2.38889
-2.15725
-1.64042
-3.15032
-3.14113
-3.12278
-3.09529
-3.05867
-3.01287
-2.95769
-2.89266
-2.81692
-2.729
-2.62663
-2.50677
-2.36776
-2.22725
-2.25971
-3.10347
-3.09398
-3.07503
-3.04668
-3.00902
-2.9621
-2.90591
-2.84034
-2.76512
-2.67974
-2.58337
-2.47441
-2.34767
-2.17712
-1.80663
-3.06322
-3.05339
-3.0338
-3.00455
-2.9658
-2.91776
-2.86065
-2.79474
-2.72038
-2.63811
-2.54886
-2.45439
-2.35802
-2.26582
-2.19109
-3.0298
-3.0196
-2.99928
-2.96902
-2.92905
-2.87972
-2.8215
-2.755
-2.68114
-2.60133
-2.51797
-2.43571
-2.36548
-2.34238
-2.52361
-3.00346
-2.99283
-2.97168
-2.94022
-2.89879
-2.84787
-2.78809
-2.72038
-2.64604
-2.56701
-2.48632
-2.40868
-2.3402
-2.27703
-2.1055
-2.9845
-2.97337
-2.95124
-2.91836
-2.87514
-2.82216
-2.7602
-2.69038
-2.6142
-2.53385
-2.45255
-2.37531
-2.31124
-2.28692
-2.4447
-2.97328
-2.96156
-2.93826
-2.90368
-2.85827
-2.80268
-2.73779
-2.66478
-2.58526
-2.50136
-2.41597
-2.33278
-2.25469
-2.17034
-1.95229
-2.9702
-2.95779
-2.93313
-2.89653
-2.84847
-2.78966
-2.72101
-2.64372
-2.55936
-2.4699
-2.37787
-2.2867
-2.2025
-2.14659
-2.24956
-2.97573
-2.96253
-2.93629
-2.89733
-2.84615
-2.78348
-2.71023
-2.62758
-2.53701
-2.44022
-2.33917
-2.23579
-2.13068
-2.01251
-1.77397
-2.99044
-2.97633
-2.94828
-2.90661
-2.85183
-2.78464
-2.70597
-2.61696
-2.51897
-2.41351
-2.30208
-2.18608
-2.06792
-1.96201
-1.97702
-3.01494
-2.99982
-2.96974
-2.925
-2.86612
-2.79378
-2.70889
-2.61257
-2.50613
-2.39095
-2.26817
-2.13787
-1.99667
-1.82753
-1.54263
-3.04995
-3.03371
-3.00136
-2.95322
-2.88976
-2.81164
-2.71975
-2.61521
-2.49936
-2.37367
-2.23949
-2.09724
-1.94482
-1.77344
-1.5582
-3.09625
-3.07878
-3.04396
-2.99209
-2.92358
-2.83907
-2.7394
-2.6257
-2.49941
-2.36231
-2.2164
-2.06369
-1.90614
-1.74979
-1.64271
-3.15468
-3.13589
-3.09842
-3.0425
-2.96852
-2.87702
-2.76879
-2.64494
-2.50698
-2.35706
-2.19803
-2.03349
-1.86663
-1.69191
-1.4344
-3.22616
-3.20597
-3.16568
-3.10547
-3.02563
-2.9266
-2.80905
-2.67396
-2.52287
-2.35814
-2.1835
-2.00489
-1.83259
-1.69151
-1.696
-3.31166
-3.29002
-3.24678
-3.18207
-3.09606
-2.98905
-2.86148
-2.71411
-2.54822
-2.3661
-2.17172
-1.97193
-1.77688
-1.59
-1.31194
-3.4122
-3.38906
-3.3428
-3.27346
-3.18109
-3.06576
-2.92766
-2.76711
-2.58487
-2.38257
-2.1637
-1.93567
-1.7155
-1.55182
-1.63509
-3.52881
-3.50416
-3.45486
-3.38085
-3.28205
-3.15831
-3.00943
-2.83517
-2.63543
-2.41055
-2.16206
-1.89394
-1.61489
-1.34214
-1.11571
-3.66253
-3.63639
-3.58407
-3.50545
-3.40033
-3.26832
-3.10882
-2.92094
-2.70346
-2.45494
-2.17403
-1.85981
-1.5099
-1.10029
-0.439069
-3.8144
-3.7868
-3.73154
-3.64847
-3.53728
-3.39741
-3.22792
-3.02726
-2.79304
-2.52183
-2.20915
-1.85048
-1.44638
-1.03317
-0.897951
-3.98544
-3.95643
-3.89834
-3.81102
-3.69414
-3.54708
-3.36868
-3.15689
-2.90832
-2.6175
-2.2762
-1.87268
-1.38917
-0.772994
0.331814
-4.17664
-4.14625
-4.08543
-3.99409
-3.87197
-3.71852
-3.53262
-3.31207
-3.05293
-2.74824
-2.38646
-1.95045
-1.42411
-0.852139
-0.761731
-4.38894
-4.35719
-4.29372
-4.19853
-4.07155
-3.91251
-3.7206
-3.49406
-3.22918
-2.91862
-2.54828
-2.09093
-1.49073
-0.596863
1.29808
-4.62329
-4.59018
-4.52404
-4.42504
-4.29342
-4.12931
-3.93265
-3.70268
-3.43714
-3.13053
-2.77051
-2.33063
-1.76129
-1.03677
-0.839949
-4.88064
-4.84609
-4.77717
-4.67423
-4.53783
-4.36873
-4.16783
-3.936
-3.67362
-3.37954
-3.0482
-2.66024
-2.13961
-1.11023
2.67251
-5.16198
-5.12588
-5.05393
-4.94665
-4.80495
-4.63023
-4.42449
-4.19053
-3.93213
-3.65441
-3.36521
-3.08198
-2.87122
-3.09575
-6.06321
-5.4684
-5.43057
-5.35521
-5.24297
-5.09501
-4.91327
-4.70074
-4.46203
-4.20405
-3.93726
-3.67809
-3.45338
-3.30054
-3.17646
-1.98455
-5.80108
-5.76133
-5.68211
-5.56409
-5.40854
-5.21768
-4.99518
-4.74693
-4.48209
-4.21481
-3.96704
-3.77489
-3.70988
-3.99873
-5.90072
-6.16138
-6.1195
-6.03596
-5.91128
-5.7466
-5.54406
-5.3075
-5.04334
-4.76184
-4.4788
-4.21737
-4.00811
-3.87347
-3.70075
-2.31514
-6.55075
-6.50661
-6.41837
-6.28626
-6.11094
-5.89408
-5.639
-5.35178
-5.04266
-4.7278
-4.43146
-4.18951
-4.06352
-4.24507
-5.88401
-6.97077
-6.92434
-6.83126
-6.69123
-6.50414
-6.27063
-5.99281
-5.67544
-5.32747
-4.96392
-4.60779
-4.29039
-4.04
-3.7773
-2.47433
-7.42304
-7.37447
-7.27675
-7.12887
-6.92959
-6.67796
-6.37409
-6.02035
-5.62309
-5.19489
-4.75723
-4.34473
-4.02502
-4.03195
-5.62259
-7.90904
-7.85872
-7.75709
-7.60221
-7.39138
-7.12156
-6.79001
-6.39548
-5.94019
-5.43244
-4.88919
-4.33464
-3.7832
-3.18678
-2.41266
-8.42997
-8.37862
-8.27442
-8.11439
-7.89415
-7.60804
-7.24965
-6.81282
-6.29373
-5.69464
-5.02901
-4.3224
-3.57262
-2.46502
1.33486
-8.98658
-8.93521
-8.8305
-8.66839
-8.44265
-8.14471
-7.76377
-7.28728
-6.70283
-6.00304
-5.19728
-4.34012
-3.61053
-3.61289
-6.95646
-9.57885
-9.52886
-9.42645
-9.26659
-9.04128
-8.73903
-8.34424
-7.8367
-7.19204
-6.38504
-5.40125
-4.26926
-3.14015
-2.44046
-2.89206
-10.2058
-10.1589
-10.0623
-9.91024
-9.69335
-9.39762
-9.00301
-8.48136
-7.79397
-6.88982
-5.70812
-4.19641
-2.37154
-0.468535
0.858756
-10.8654
-10.8235
-10.7367
-10.5989
-10.4002
-10.1249
-9.75001
-9.2411
-8.54643
-7.58734
-6.24418
-4.34101
-1.65721
1.9032
5.5313
-11.5541
-11.5191
-11.4464
-11.33
-11.1601
-10.9213
-10.5901
-10.1299
-9.4825
-8.55158
-7.16915
-5.02773
-1.55163
4.22791
12.7234
-12.2672
-12.241
-12.1864
-12.0982
-11.9679
-11.7819
-11.5197
-11.1486
-10.6155
-9.82937
-8.62118
-6.6413
-3.04567
4.66658
25.8151
-146.473
-88.02
-61.5394
-48.8871
-42.1114
-38.0656
-35.4379
-33.6269
-32.3294
-31.3789
-30.6785
-30.1685
-29.812
-29.5854
-29.4753
-182.186
-82.3641
-54.6685
-43.9914
-38.6362
-35.4559
-33.3639
-31.8987
-30.833
-30.0425
-29.4539
-29.0221
-28.7185
-28.5248
-28.4305
46.9187
-26.6205
-35.9791
-35.3999
-33.6506
-32.0905
-30.8546
-29.8931
-29.1456
-28.5657
-28.1205
-27.7868
-27.5486
-27.3952
-27.3201
-7.04547
-15.4468
-24.191
-27.6211
-28.5335
-28.5
-28.1548
-27.7388
-27.3417
-26.9955
-26.7096
-26.4851
-26.3198
-26.2113
-26.1576
25.9092
-4.03506
-16.0931
-21.5907
-24.0734
-25.1258
-25.5042
-25.5714
-25.5025
-25.3833
-25.2562
-25.1422
-25.0516
-24.9894
-24.9578
-1.42614
-5.04424
-12.5512
-17.6539
-20.6065
-22.2198
-23.0698
-23.4984
-23.6983
-23.7767
-23.7937
-23.7831
-23.7636
-23.7461
-23.7361
11.4583
-3.35283
-10.6788
-15.2103
-18.0697
-19.8438
-20.9281
-21.5843
-21.9783
-22.2127
-22.3505
-22.43
-22.4744
-22.4976
-22.5075
-3.07882
-6.85948
-10.7471
-13.9278
-16.2866
-17.9468
-19.0837
-19.8523
-20.3691
-20.7159
-20.9478
-21.1012
-21.1998
-21.2584
-21.2857
-14.9905
-10.2919
-11.3062
-13.2161
-14.9885
-16.4131
-17.4952