/*--------------------------------*- C++ -*----------------------------------*\
| =========                 |                                                 |
| \\      /  F ield         | OpenFOAM: The Open Source CFD Toolbox           |
|  \\    /   O peration     | Version:  5.x                                   |
|   \\  /    A nd           | Web:      www.OpenFOAM.org                      |
|    \\/     M anipulation  |                                                 |
\*---------------------------------------------------------------------------*/
FoamFile
{
    version     2.0;
    format      ascii;
    class       volScalarField;
    location    "0.4";
    object      gradTx;
}
// * * * * * * * * * * * * * * * * * * * * * * * * * * * * * * * * * * * * * //

dimensions      [0 -1 0 1 0 0 0];

internalField   nonuniform List<scalar> 
3200
(
47.8463
2.94879
1.19303
1.10234
0.532425
0.499896
0.30438
0.29202
0.199141
0.191956
0.113628
0.110029
0.102888
0.101526
0.0775305
0.0755586
0.0518484
0.0501047
0.0317764
0.030501
0.0181464
0.0173181
0.00977745
0.00928516
0.00501716
0.0047447
0.00248225
0.00234434
0.00127917
0.00170202
0.000597731
0.000201653
0.000177736
7.07641e-05
6.44667e-05
2.77176e-05
2.54681e-05
9.52923e-06
8.42841e-06
-1.68003e-06
-2.58071e-06
-1.39042e-05
-1.50796e-05
-3.18581e-05
-3.36141e-05
-5.89798e-05
-6.14412e-05
-9.54339e-05
-9.80423e-05
-0.000124365
-0.000131628
-0.000277577
-0.000293673
-0.000532622
-0.000560634
-0.00098856
-0.00103958
-0.00182558
-0.00192066
-0.00339401
-0.00357659
-0.0064311
-0.00680135
-0.0126785
-0.0135087
-0.026994
-0.0292145
-0.0661063
-0.0742525
-0.209147
-0.56255
-0.407446
-0.668185
-0.700798
-1.26963
-1.24452
-0.0558596
-0.00753526
-0.00152559
-50.5507
50.2362
2.45934
1.15564
0.969341
0.512397
0.442821
0.284634
0.2581
0.18339
0.168108
0.106568
0.098902
0.0922761
0.089326
0.0704594
0.066294
0.0475777
0.0438881
0.0293877
0.0266858
0.0168967
0.0151406
0.00915815
0.0081138
0.00472416
0.00414592
0.00234844
0.00205662
0.00122854
0.0014276
0.000575028
0.000212371
0.000158792
7.04572e-05
5.68001e-05
2.70606e-05
2.22362e-05
9.44457e-06
7.09463e-06
-9.87494e-07
-2.90497e-06
-1.19197e-05
-1.44164e-05
-2.77375e-05
-3.14607e-05
-5.15437e-05
-5.67512e-05
-8.35509e-05
-8.91728e-05
-0.000111414
-0.000126897
-0.000242293
-0.000276478
-0.000466862
-0.000526472
-0.000867491
-0.000976098
-0.00160276
-0.00180526
-0.00298108
-0.00337035
-0.00565283
-0.00644399
-0.0111622
-0.0129451
-0.0238655
-0.0286897
-0.0592145
-0.0774341
-0.199948
-0.472186
-0.388658
-0.588994
-0.656259
-1.08533
-1.03276
-0.121967
-0.0209134
-0.00438682
-52.5972
52.6132
2.03507
1.07363
0.847241
0.476913
0.389324
0.259644
0.226128
0.165287
0.146135
0.0973782
0.0877602
0.081553
0.0778001
0.0628381
0.0576488
0.0427385
0.0381353
0.0265513
0.0231769
0.0153421
0.0131473
0.00835141
0.00704536
0.00432447
0.00360106
0.00215751
0.00179311
0.00113856
0.0011973
0.000533569
0.000211034
0.000141468
6.726e-05
4.98523e-05
2.54386e-05
1.93477e-05
8.95057e-06
5.99573e-06
-5.42994e-07
-2.94814e-06
-1.02033e-05
-1.33288e-05
-2.40146e-05
-2.86682e-05
-4.47249e-05
-5.12216e-05
-7.25475e-05
-7.96727e-05
-9.87732e-05
-0.000118214
-0.000210339
-0.000253125
-0.000406478
-0.000481216
-0.000755972
-0.000892172
-0.00139735
-0.00165141
-0.00260035
-0.00308922
-0.00493551
-0.00593101
-0.00976563
-0.0120185
-0.020985
-0.0271416
-0.052823
-0.0764533
-0.184777
-0.396089
-0.35854
-0.51515
-0.597269
-0.920319
-0.855352
-0.155686
-0.0309107
-0.00673231
-54.6441
54.9742
1.66527
0.962299
0.730964
0.430156
0.33754
0.230827
0.195267
0.145536
0.125368
0.0866452
0.0765056
0.070763
0.0667552
0.0548592
0.0494252
0.037516
0.0326889
0.0234084
0.0198664
0.0135766
0.0112711
0.00741419
0.00604143
0.00385012
0.00308946
0.00192627
0.00154362
0.00102166
0.000997607
0.000479242
0.000199883
0.000124533
6.18841e-05
4.3251e-05
2.31142e-05
1.66528e-05
8.16708e-06
5.04494e-06
-2.64763e-07
-2.79997e-06
-8.65852e-06
-1.19466e-05
-2.05451e-05
-2.54334e-05
-3.83078e-05
-4.51204e-05
-6.21403e-05
-6.97239e-05
-8.61538e-05
-0.000106664
-0.000180428
-0.000225434
-0.000349366
-0.000428107
-0.000650216
-0.000793743
-0.00120235
-0.00147021
-0.00223869
-0.00275455
-0.00425335
-0.00530579
-0.00843434
-0.0108258
-0.0182205
-0.0248168
-0.0465206
-0.0720938
-0.165505
-0.329977
-0.320677
-0.444305
-0.528663
-0.770845
-0.70335
-0.166414
-0.0368842
-0.00833259
-56.6913
57.3187
1.34018
0.832164
0.617521
0.375105
0.286346
0.199181
0.164989
0.12462
0.105362
0.0747881
0.065096
0.0599302
0.0560539
0.0466505
0.0414887
0.0320353
0.027444
0.020055
0.0166828
0.0116646
0.00946816
0.00638563
0.00507701
0.00332319
0.00259779
0.00166633
0.00130176
0.000886282
0.000819113
0.000416051
0.000180861
0.00010727
5.48338e-05
3.67672e-05
2.02708e-05
1.40574e-05
7.17674e-06
4.18572e-06
-9.80832e-08
-2.52124e-06
-7.22197e-06
-1.0359e-05
-1.72342e-05
-2.18912e-05
-3.21498e-05
-3.86299e-05
-5.21348e-05
-5.94477e-05
-7.34018e-05
-9.30211e-05
-0.000151726
-0.000194658
-0.00029417
-0.000369394
-0.000547792
-0.000684937
-0.00101332
-0.00126937
-0.00188768
-0.00238123
-0.00359002
-0.0045987
-0.00713425
-0.00943499
-0.0154911
-0.0218917
-0.0400695
-0.0650287
-0.143404
-0.27084
-0.277517
-0.375048
-0.453761
-0.633774
-0.570138
-0.160849
-0.0388186
-0.00906431
-58.7387
59.6476
1.05102
0.690349
0.505235
0.313935
0.23511
0.165432
0.134972
0.102876
0.0858233
0.0621123
0.0535233
0.0490682
0.0455974
0.0382963
0.0337475
0.0263815
0.0223307
0.0165571
0.0135793
0.00965086
0.00771005
0.00529302
0.0041361
0.00275911
0.00211758
0.0013859
0.00106368
0.000738218
0.000655224
0.000346751
0.000155638
8.93148e-05
4.64857e-05
3.02696e-05
1.70407e-05
1.15044e-05
6.0377e-06
3.38161e-06
-6.16566e-09
-2.15348e-06
-5.85248e-06
-8.62774e-06
-1.40208e-05
-1.81355e-05
-2.61568e-05
-3.18744e-05
-4.23972e-05
-4.89283e-05
-6.04494e-05
-7.78472e-05
-0.000123706
-0.000161683
-0.000240037
-0.000306667
-0.000447177
-0.000568677
-0.00082745
-0.00105438
-0.00154214
-0.00197988
-0.00293552
-0.00383156
-0.005845
-0.00789581
-0.0127506
-0.0184989
-0.0333523
-0.0558341
-0.119354
-0.216553
-0.23074
-0.30656
-0.374822
-0.506463
-0.450764
-0.143797
-0.0370619
-0.00890247
-60.7862
61.963
0.789911
0.541556
0.393233
0.248291
0.183526
0.130127
0.105032
0.0805415
0.0665643
0.0488451
0.0418001
0.0381849
0.0353135
0.0298518
0.0261382
0.0206124
0.0173023
0.0129607
0.0105256
0.0075667
0.00597866
0.00415569
0.00320862
0.00216892
0.00164359
0.0010909
0.000827155
0.000581492
0.000501287
0.000273261
0.000125649
7.05486e-05
3.71384e-05
2.36928e-05
1.3524e-05
8.96148e-06
4.79213e-06
2.60955e-06
3.59462e-08
-1.72539e-06
-4.52359e-06
-6.79676e-06
-1.08655e-05
-1.42321e-05
-2.02674e-05
-2.49401e-05
-3.28359e-05
-3.82279e-05
-4.72833e-05
-6.15619e-05
-9.60424e-05
-0.000127145
-0.000186448
-0.000241079
-0.000347453
-0.000447089
-0.00064308
-0.000829229
-0.00119899
-0.00155831
-0.00228407
-0.00302056
-0.00455545
-0.00624598
-0.00997645
-0.0147447
-0.0263343
-0.045004
-0.0939664
-0.165603
-0.18151
-0.238386
-0.293359
-0.386657
-0.341449
-0.118739
-0.0321624
-0.00790484
-62.8338
64.2674
0.549784
0.388797
0.281125
0.179459
0.131501
0.0937002
0.0750767
0.0577966
0.047465
0.0351616
0.0299513
0.027286
0.0251483
0.0213527
0.0186164
0.0147684
0.0123275
0.00929854
0.00750179
0.00543483
0.00426261
0.00298779
0.00228845
0.00156074
0.00117274
0.000785774
0.000591014
0.000418964
0.000353978
0.000196951
9.21428e-05
5.10166e-05
2.70448e-05
1.70167e-05
9.79977e-06
6.41289e-06
3.47179e-06
1.85531e-06
4.54699e-08
-1.25718e-06
-3.21853e-06
-4.89784e-06
-7.74375e-06
-1.02287e-05
-1.44413e-05
-1.78872e-05
-2.33876e-05
-2.73955e-05
-3.39252e-05
-4.44899e-05
-6.85456e-05
-9.15211e-05
-0.000133104
-0.000173494
-0.0002481
-0.000321774
-0.000459278
-0.000596957
-0.000856562
-0.00112245
-0.00163272
-0.00217828
-0.00326061
-0.00451575
-0.00716252
-0.0107199
-0.0190365
-0.0329668
-0.0676805
-0.116894
-0.130653
-0.170299
-0.210373
-0.272399
-0.239242
-0.0882393
-0.0247702
-0.00619438
-64.8813
66.5637
0.324187
0.233929
0.168797
0.108492
0.07908
0.0565134
0.0450744
0.0347807
0.0284519
0.0212018
0.018009
0.0163761
0.0150602
0.0128222
0.0111497
0.00887785
0.00738509
0.00559451
0.00449525
0.00327229
0.00255491
0.00180008
0.00137198
0.000940846
0.000703291
0.000473981
0.000354755
0.00025274
0.000210856
0.000118837
5.62234e-05
3.0872e-05
1.64316e-05
1.02508e-05
5.93448e-06
3.85369e-06
2.10191e-06
1.11036e-06
3.46595e-08
-7.63601e-07
-1.92676e-06
-2.95505e-06
-4.64037e-06
-6.16106e-06
-8.65212e-06
-1.07596e-05
-1.40081e-05
-1.64726e-05
-2.04179e-05
-2.68938e-05
-4.11148e-05
-5.51825e-05
-7.98487e-05
-0.000104594
-0.000148856
-0.000193997
-0.000275594
-0.000359966
-0.000514094
-0.000677091
-0.000980336
-0.00131502
-0.00195951
-0.00273071
-0.00431338
-0.00650635
-0.0115165
-0.0201018
-0.0408204
-0.0696113
-0.0787678
-0.102201
-0.126515
-0.161955
-0.141752
-0.0542405
-0.0155825
-0.00394225
-66.9288
68.8551
0.107124
0.0780718
0.0562882
0.0362975
0.0263913
0.018886
0.0150302
0.0116103
0.00947994
0.00708438
0.00600945
0.00545943
0.00501541
0.00427571
0.00371333
0.00296196
0.0024599
0.00186731
0.00149752
0.0010926
0.000851238
0.000601224
0.000457172
0.000314329
0.000234386
0.000158403
0.000118283
8.44658e-05
7.00401e-05
3.97199e-05
1.88955e-05
1.03355e-05
5.51111e-06
3.42408e-06
1.98714e-06
1.28567e-06
7.03711e-07
3.6971e-07
1.27314e-08
-2.56024e-07
-6.41594e-07
-9.87655e-07
-1.54591e-06
-2.05753e-06
-2.88208e-06
-3.59092e-06
-4.66551e-06
-5.49667e-06
-6.81662e-06
-8.99721e-06
-1.37038e-05
-1.8438e-05
-2.66155e-05
-3.49458e-05
-4.96208e-05
-6.48175e-05
-9.18744e-05
-0.000120281
-0.0001714
-0.000226288
-0.000326915
-0.00043966
-0.000653736
-0.000913736
-0.00144056
-0.00218112
-0.003855
-0.00675356
-0.013641
-0.0231194
-0.0263162
-0.0340716
-0.0422163
-0.0537406
-0.0469587
-0.0182892
-0.00531434
-0.00135236
-68.9763
68.9604
0.110407
0.0884747
0.0698539
0.0507527
0.0402414
0.0305545
0.0249183
0.0190484
0.0152746
0.0109713
0.00895953
0.00777145
0.00693996
0.00573629
0.00488371
0.00381483
0.00312504
0.00234024
0.00185982
0.00134487
0.00104098
0.000729657
0.000551289
0.000375505
0.000277492
0.000184652
0.000135482
9.349e-05
7.48271e-05
4.09105e-05
1.82026e-05
9.01375e-06
4.0212e-06
1.94246e-06
6.20571e-07
3.30245e-08
-3.68995e-07
-5.51275e-07
-6.77566e-07
-7.32008e-07
-7.6366e-07
-7.72515e-07
-7.68399e-07
-7.57981e-07
-7.34649e-07
-7.08546e-07
-6.60706e-07
-6.11768e-07
-5.36692e-07
-5.33458e-07
-6.02453e-07
-6.65726e-07
-7.66354e-07
-8.92567e-07
-1.1594e-06
-1.57085e-06
-2.51352e-06
-4.03007e-06
-7.55791e-06
-1.33062e-05
-2.67686e-05
-4.90004e-05
-0.000101615
-0.000190938
-0.000407322
-0.000797679
-0.00178862
-0.00375116
-0.00865067
-0.0158952
-0.0199106
-0.0286715
-0.0379885
-0.05165
-0.0459462
-0.0179485
-0.00521965
-0.00132771
-69.2308
66.8795
0.333868
0.265299
0.209589
0.151922
0.120698
0.0915082
0.0747705
0.0570671
0.0458503
0.0328266
0.0268496
0.0233041
0.0208387
0.0171985
0.0146632
0.0114323
0.00938151
0.00701067
0.00558266
0.0040276
0.00312443
0.00218456
0.00165448
0.00112393
0.000832679
0.000552502
0.000406385
0.000279707
0.000225236
0.000122367
5.41068e-05
2.68961e-05
1.19591e-05
5.80431e-06
1.8365e-06
9.42902e-08
-1.11417e-06
-1.65499e-06
-2.03485e-06
-2.19641e-06
-2.29149e-06
-2.31773e-06
-2.30516e-06
-2.2742e-06
-2.20381e-06
-2.12628e-06
-1.98195e-06
-1.83616e-06
-1.60704e-06
-1.59733e-06
-1.80742e-06
-1.99551e-06
-2.29788e-06
-2.67195e-06
-3.47237e-06
-4.69138e-06
-7.51796e-06
-1.20106e-05
-2.25866e-05
-3.96132e-05
-7.99612e-05
-0.000145796
-0.000303395
-0.000567763
-0.00121506
-0.0023691
-0.00532717
-0.0111363
-0.0258587
-0.0478155
-0.0595426
-0.0859931
-0.113792
-0.155725
-0.138731
-0.0532349
-0.0153055
-0.00387074
-67.6926
64.7934
0.565345
0.441631
0.349425
0.252056
0.201096
0.151984
0.124681
0.0948437
0.0765137
0.0544128
0.0446543
0.0388055
0.0347961
0.0286274
0.0244805
0.0190113
0.0156585
0.0116498
0.00931603
0.00668857
0.0052129
0.00362576
0.00275985
0.00186437
0.00138865
0.000915873
0.000677191
0.000463547
0.000378014
0.000202692
8.84872e-05
4.4355e-05
1.95818e-05
9.60023e-06
2.97582e-06
1.42096e-07
-1.88127e-06
-2.76191e-06
-3.39874e-06
-3.66187e-06
-3.82087e-06
-3.86349e-06
-3.84179e-06
-3.7912e-06
-3.67254e-06
-3.546e-06
-3.30262e-06
-3.0633e-06
-2.66811e-06
-2.65192e-06
-3.01275e-06
-3.32021e-06
-3.82606e-06
-4.43389e-06
-5.76844e-06
-7.74783e-06
-1.24568e-05
-1.97501e-05
-3.73625e-05
-6.49966e-05
-0.000132152
-0.000238951
-0.00050096
-0.000929363
-0.0020027
-0.00386864
-0.00875216
-0.0181657
-0.042779
-0.0801473
-0.098588
-0.143263
-0.189033
-0.262159
-0.234257
-0.0866193
-0.0243318
-0.00608273
-66.1546
62.6988
0.810431
0.616739
0.489506
0.350371
0.281456
0.211622
0.174724
0.132189
0.107354
0.0755267
0.0623222
0.0542532
0.0488595
0.0399936
0.0343676
0.0265202
0.0219747
0.0162326
0.0130702
0.00931063
0.00731173
0.0050426
0.00386999
0.00259065
0.00194656
0.00127134
0.000948128
0.000643109
0.000535113
0.000280991
0.000120259
6.11507e-05
2.66718e-05
1.32976e-05
3.98397e-06
1.70583e-07
-2.68617e-06
-3.87324e-06
-4.77402e-06
-5.12886e-06
-5.35292e-06
-5.41016e-06
-5.37815e-06
-5.30961e-06
-5.14036e-06
-4.96925e-06
-4.62209e-06
-4.29571e-06
-3.71319e-06
-3.69064e-06
-4.21937e-06
-4.63612e-06
-5.34936e-06
-6.16611e-06
-8.03845e-06
-1.06954e-05
-1.72941e-05
-2.70807e-05
-5.17461e-05
-8.88143e-05
-0.000182788
-0.000325949
-0.000691964
-0.00126532
-0.00275891
-0.00524792
-0.0119968
-0.0245884
-0.0591916
-0.11324
-0.136588
-0.200492
-0.263183
-0.372638
-0.334575
-0.116591
-0.0315969
-0.00776357
-64.6171
60.5927
1.07508
0.789241
0.630118
0.44593
0.361904
0.26999
0.225037
0.168866
0.13851
0.0959253
0.0798123
0.0696218
0.0630892
0.0512556
0.0443672
0.0339176
0.0283569
0.0207271
0.0168611
0.0118723
0.00942967
0.00642183
0.00498943
0.00329518
0.00250859
0.00161476
0.00121992
0.000815966
0.000699086
0.000356134
0.00014823
7.71145e-05
3.29985e-05
1.68821e-05
4.80026e-06
1.79032e-07
-3.54697e-06
-4.98856e-06
-6.16624e-06
-6.59738e-06
-6.88887e-06
-6.95806e-06
-6.91396e-06
-6.83021e-06
-6.60656e-06
-6.39794e-06
-5.93925e-06
-5.53703e-06
-4.73472e-06
-4.7062e-06
-5.42927e-06
-5.93896e-06
-6.86741e-06
-7.85519e-06
-1.02767e-05
-1.34858e-05
-2.20063e-05
-3.38214e-05
-6.56455e-05
-0.000110377
-0.000231497
-0.000404101
-0.000874804
-0.00156467
-0.00347569
-0.00645741
-0.0150088
-0.0301326
-0.0748299
-0.147567
-0.172971
-0.257776
-0.335467
-0.489021
-0.442093
-0.141244
-0.0364158
-0.00874517
-63.0802
58.4724
1.36574
0.956741
0.771801
0.537549
0.442732
0.32654
0.275857
0.204562
0.170202
0.115303
0.0971005
0.08488
0.0775663
0.0623525
0.0545396
0.0411455
0.0348453
0.02509
0.0207132
0.0143448
0.0115809
0.007746
0.00612583
0.00396807
0.00307861
0.00194081
0.00149412
0.000978834
0.000873449
0.00042661
0.000171058
9.21913e-05
3.8306e-05
2.03684e-05
5.35342e-06
1.74962e-07
-4.48544e-06
-6.10489e-06
-7.58213e-06
-8.06677e-06
-8.4302e-06
-8.50751e-06
-8.4488e-06
-8.35405e-06
-8.06999e-06
-7.83457e-06
-7.25226e-06
-6.79261e-06
-5.72384e-06
-5.69029e-06
-6.64617e-06
-7.2235e-06
-8.38163e-06
-9.48571e-06
-1.24829e-05
-1.60643e-05
-2.65898e-05
-3.97683e-05
-7.90437e-05
-0.00012891
-0.0002782
-0.000470415
-0.00104904
-0.00181544
-0.00415013
-0.00744489
-0.0177594
-0.0344961
-0.0893513
-0.183795
-0.206984
-0.31535
-0.404723
-0.613429
-0.559772
-0.15806
-0.0381487
-0.00890651
-61.5441
56.3358
1.68943
1.11536
0.915541
0.623674
0.524496
0.380544
0.327572
0.238843
0.202772
0.133258
0.114192
0.0999859
0.0924026
0.0731932
0.0649726
0.0481215
0.0415005
0.0292609
0.0246652
0.0166886
0.0137881
0.00899121
0.00729168
0.00459584
0.00366309
0.00224232
0.00177354
0.0011271
0.00106315
0.000490318
0.000187198
0.0001065
4.22939e-05
2.38143e-05
5.55489e-06
1.78484e-07
-5.52925e-06
-7.2153e-06
-9.03031e-06
-9.53524e-06
-9.97873e-06
-1.00588e-05
-9.98198e-06
-9.88258e-06
-9.52882e-06
-9.28257e-06
-8.55807e-06
-8.07042e-06
-6.66979e-06
-6.63308e-06
-7.87632e-06
-8.48291e-06
-9.89623e-06
-1.1039e-05
-1.46651e-05
-1.83655e-05
-3.10708e-05
-4.46789e-05
-9.20365e-05
-0.000143497
-0.00032325
-0.000521374
-0.00121597
-0.00200379
-0.00478677
-0.00815249
-0.0202548
-0.0373376
-0.102295
-0.222882
-0.237599
-0.373692
-0.469213
-0.748338
-0.691378
-0.163606
-0.0362551
-0.00819025
-60.0091
54.182
2.05379
1.25911
1.06306
0.702188
0.608145
0.430996
0.3808
0.271093
0.236748
0.149249
0.131139
0.114879
0.107755
0.0836414
0.0757952
0.0547257
0.0484145
0.0331531
0.0287764
0.0188474
0.0160866
0.0101237
0.00850684
0.00515962
0.00427249
0.00250935
0.00206302
0.00125413
0.00127526
0.000544252
0.000194863
0.000120416
4.45857e-05
2.73413e-05
5.28838e-06
2.28658e-07
-6.71536e-06
-8.30684e-06
-1.05224e-05
-1.09994e-05
-1.15369e-05
-1.1612e-05
-1.15124e-05
-1.14179e-05
-1.09802e-05
-1.07467e-05
-9.85171e-06
-9.38222e-06
-7.55912e-06
-7.52268e-06
-9.12971e-06
-9.70779e-06
-1.14195e-05
-1.24911e-05
-1.68436e-05
-2.03068e-05
-3.552e-05
-4.82478e-05
-0.000104887
-0.000152986
-0.000367641
-0.000552588
-0.00137941
-0.00211268
-0.0054008
-0.00851165
-0.022553
-0.0382671
-0.113019
-0.266216
-0.263368
-0.433666
-0.526368
-0.896699
-0.841824
-0.153138
-0.0303899
-0.00661995
-58.4755
52.0117
2.46703
1.37902
1.2173
0.770142
0.695229
0.47647
0.436505
0.300412
0.27293
0.162524
0.148069
0.129466
0.123848
0.0934931
0.0871982
0.0607826
0.0557262
0.0366408
0.0331375
0.02074
0.0185315
0.0110952
0.00980225
0.00563238
0.00492322
0.00272777
0.00237044
0.00135029
0.00151993
0.000584057
0.000191978
0.000134691
4.46778e-05
3.11644e-05
4.39399e-06
3.92924e-07
-8.09509e-06
-9.35753e-06
-1.20745e-05
-1.24532e-05
-1.3108e-05
-1.31672e-05
-1.30385e-05
-1.2963e-05
-1.24199e-05
-1.22339e-05
-1.11252e-05
-1.07452e-05
-8.37464e-06
-8.34426e-06
-1.04217e-05
-1.08847e-05
-1.2966e-05
-1.38098e-05
-1.90567e-05
-2.17783e-05
-4.00735e-05
-5.00689e-05
-0.000118102
-0.000155849
-0.000413305
-0.000558251
-0.00154686
-0.00211976
-0.00602271
-0.00843469
-0.0247865
-0.0368384
-0.120614
-0.315805
-0.282223
-0.496755
-0.572429
-1.06208
-1.01763
-0.120035
-0.0205654
-0.00431545
-56.9435
49.8281
2.93767
1.46202
1.38307
0.823333
0.788192
0.514907
0.496166
0.325484
0.312521
0.172027
0.165229
0.143603
0.140997
0.102444
0.0994654
0.0660334
0.0636449
0.0395399
0.0378867
0.022248
0.0212065
0.011835
0.0112255
0.00597488
0.00564068
0.00287713
0.00270832
0.00140137
0.00181179
0.00060334
0.000176161
0.000150618
4.18609e-05
3.56371e-05
2.64393e-06
7.8129e-07
-9.74188e-06
-1.03318e-05
-1.37098e-05
-1.38869e-05
-1.46968e-05
-1.47243e-05
-1.45579e-05
-1.45223e-05
-1.38413e-05
-1.3754e-05
-1.2366e-05
-1.21845e-05
-9.09397e-06
-9.07898e-06
-1.17752e-05
-1.19939e-05
-1.45592e-05
-1.49498e-05
-2.13697e-05
-2.26267e-05
-4.49644e-05
-4.9577e-05
-0.000132558
-0.000149962
-0.000463568
-0.000530294
-0.00173125
-0.00199402
-0.00670518
-0.0078013
-0.0271947
-0.0325441
-0.123759
-0.374562
-0.291165
-0.565411
-0.601943
-1.24883
-1.22757
-0.0550107
-0.00741129
-0.00150122
-55.4135
49.8228
2.93731
1.46203
1.38312
0.823727
0.78861
0.515535
0.496799
0.326031
0.313056
0.172343
0.165534
0.143864
0.141253
0.102633
0.0996501
0.0661634
0.0637709
0.0396272
0.0379713
0.0223075
0.0212641
0.0118753
0.0112645
0.00600214
0.00566717
0.00289704
0.00272797
0.0014204
0.00184488
0.000620094
0.000188349
0.000162515
5.23164e-05
4.60013e-05
1.2375e-05
1.04722e-05
-3.61041e-07
-9.68831e-07
-4.45501e-06
-4.6472e-06
-5.70043e-06
-5.75473e-06
-5.98372e-06
-5.98843e-06
-5.86964e-06
-5.84565e-06
-5.39634e-06
-5.32975e-06
-4.12077e-06
-4.13104e-06
-5.55621e-06
-5.69799e-06
-7.63023e-06
-7.97233e-06
-1.38771e-05
-1.50879e-05
-3.68467e-05
-4.13984e-05
-0.000123529
-0.000140809
-0.00045237
-0.000518755
-0.00171388
-0.00197563
-0.00666923
-0.00776219
-0.0271012
-0.0324393
-0.123467
-0.373818
-0.290647
-0.564681
-0.601193
-1.24777
-1.22654
-0.0549651
-0.00740553
-0.00149716
-55.4192
52.0069
2.46674
1.37902
1.21735
0.770476
0.695612
0.477019
0.437064
0.300905
0.273396
0.162819
0.148341
0.129702
0.124073
0.0936663
0.0873608
0.0609019
0.0558372
0.0367211
0.0332121
0.0207947
0.0185823
0.0111322
0.00983662
0.00565746
0.00494664
0.00274604
0.00238815
0.00136811
0.00154756
0.000599678
0.000203284
0.000145342
5.41445e-05
4.04327e-05
1.31537e-05
9.06643e-06
3.31211e-07
-9.69701e-07
-3.77599e-06
-4.18695e-06
-5.03529e-06
-5.15147e-06
-5.3368e-06
-5.34696e-06
-5.2525e-06
-5.20136e-06
-4.84202e-06
-4.70326e-06
-3.78182e-06
-3.80482e-06
-4.91393e-06
-5.21635e-06
-6.79115e-06
-7.53146e-06
-1.23672e-05
-1.49904e-05
-3.28233e-05
-4.26882e-05
-0.000110035
-0.000147514
-0.000403313
-0.000547526
-0.0015314
-0.00210211
-0.00599078
-0.0083959
-0.024703
-0.0367297
-0.120337
-0.315182
-0.281735
-0.49611
-0.571743
-1.06116
-1.01677
-0.119935
-0.0205506
-0.00430496
-56.9485
54.1778
2.05356
1.25909
1.06313
0.702471
0.608489
0.431469
0.381287
0.271528
0.237151
0.149518
0.13138
0.115088
0.107952
0.0837964
0.0759368
0.0548329
0.0485113
0.0332253
0.0288414
0.0188965
0.0161309
0.010157
0.00853681
0.00518218
0.00429298
0.00252578
0.00207878
0.00127035
0.00129829
0.000558423
0.000205133
0.000129839
5.30191e-05
3.55216e-05
1.30552e-05
7.88677e-06
7.43476e-07
-8.96579e-07
-3.18706e-06
-3.70473e-06
-4.39773e-06
-4.54414e-06
-4.69647e-06
-4.70939e-06
-4.63357e-06
-4.56937e-06
-4.27889e-06
-4.1081e-06
-3.40509e-06
-3.43517e-06
-4.30405e-06
-4.68401e-06
-5.98613e-06
-6.92771e-06
-1.09485e-05
-1.42881e-05
-2.91281e-05
-4.16914e-05
-9.77686e-05
-0.000145529
-0.000358824
-0.000542844
-0.00136577
-0.00209627
-0.0053726
-0.0084747
-0.0224786
-0.0381603
-0.112766
-0.265694
-0.262923
-0.433101
-0.525754
-0.895912
-0.841108
-0.153009
-0.0303701
-0.00660777
-58.4799
56.3321
1.68925
1.11534
0.915604
0.623912
0.524797
0.380947
0.327989
0.239221
0.203116
0.133498
0.114401
0.100168
0.0925716
0.0733289
0.0650944
0.0482156
0.0415837
0.0293244
0.0247212
0.0167317
0.0138261
0.00902046
0.00731745
0.00461569
0.00368077
0.00225677
0.00178732
0.00114145
0.00108222
0.000502834
0.00019631
0.000114699
4.96609e-05
3.09098e-05
1.23127e-05
6.82111e-06
9.52132e-07
-7.85455e-07
-2.66356e-06
-3.21161e-06
-3.78037e-06
-3.93546e-06
-4.0613e-06
-4.07511e-06
-4.01412e-06
-3.94642e-06
-3.71098e-06
-3.53423e-06
-2.99905e-06
-3.03199e-06
-3.71384e-06
-4.115e-06
-5.19611e-06
-6.20171e-06
-9.55946e-06
-1.31294e-05
-2.55324e-05
-3.89662e-05
-8.58629e-05
-0.000136963
-0.000315596
-0.000512732
-0.00120412
-0.00198898
-0.00476219
-0.00811854
-0.0201894
-0.0372372
-0.102069
-0.222449
-0.237203
-0.373205
-0.468675
-0.747673
-0.690787
-0.163466
-0.0362331
-0.00817962
-60.013
58.4693
1.3656
0.956722
0.77186
0.537746
0.442988
0.326877
0.276207
0.204881
0.170489
0.115509
0.0972781
0.0850353
0.0777084
0.0624681
0.054642
0.0412259
0.0349153
0.0251443
0.0207604
0.0143817
0.0116129
0.00777102
0.00614753
0.00398506
0.00309353
0.00195319
0.00150587
0.000991157
0.000889009
0.00043734
0.000178914
9.91595e-05
4.45805e-05
2.63791e-05
1.10899e-05
5.80073e-06
1.01065e-06
-6.58382e-07
-2.18825e-06
-2.71432e-06
-3.17803e-06
-3.32697e-06
-3.43023e-06
-3.44362e-06
-3.39489e-06
-3.33016e-06
-3.14072e-06
-2.97471e-06
-2.57029e-06
-2.60288e-06
-3.13496e-06
-3.51898e-06
-4.40964e-06
-5.38251e-06
-8.16394e-06
-1.16205e-05
-2.19027e-05
-3.49139e-05
-7.38138e-05
-0.000123333
-0.000271707
-0.000462969
-0.00103896
-0.00180251
-0.00412917
-0.00741483
-0.0177031
-0.0344059
-0.0891562
-0.18344
-0.206644
-0.314939
-0.404265
-0.612878
-0.559291
-0.157922
-0.0381266
-0.00889866
-61.5474
60.5902
1.07497
0.789224
0.630169
0.446087
0.362114
0.270262
0.225322
0.169127
0.138743
0.0960967
0.0799581
0.0697493
0.063205
0.0513507
0.0444507
0.0339838
0.0284141
0.0207719
0.0168995
0.0119027
0.00945582
0.00644247
0.00500714
0.00330921
0.00252079
0.00162499
0.00122961
0.000826153
0.000711465
0.000364992
0.000154754
8.2841e-05
3.81597e-05
2.18059e-05
9.5058e-06
4.78595e-06
9.57639e-07
-5.28135e-07
-1.74866e-06
-2.21668e-06
-2.58692e-06
-2.71949e-06
-2.80241e-06
-2.81443e-06
-2.77624e-06
-2.71888e-06
-2.56954e-06
-2.42474e-06
-2.12406e-06
-2.15382e-06
-2.56209e-06
-2.90288e-06
-3.62034e-06
-4.49176e-06
-6.74317e-06
-9.84168e-06
-1.81701e-05
-2.98363e-05
-6.13608e-05
-0.000105782
-0.000226169
-0.000397922
-0.000866513
-0.00155383
-0.00345839
-0.00643194
-0.014962
-0.0300553
-0.074668
-0.147284
-0.172689
-0.25744
-0.335091
-0.488578
-0.441711
-0.141119
-0.036395
-0.00874016
-63.0828
62.6968
0.81035
0.616725
0.489548
0.350492
0.28162
0.211832
0.174944
0.132391
0.107534
0.0756613
0.062436
0.0543526
0.0489493
0.0400678
0.0344324
0.0265721
0.0220191
0.0162677
0.0131001
0.00933445
0.00733204
0.00505876
0.00388374
0.00260164
0.00195605
0.00127936
0.000955712
0.000651089
0.00054454
0.000287923
0.000125391
6.56225e-05
3.07031e-05
1.71316e-05
7.65117e-06
3.75652e-06
8.22168e-07
-4.01328e-07
-1.33543e-06
-1.72063e-06
-2.00416e-06
-2.11333e-06
-2.17712e-06
-2.18709e-06
-2.15832e-06
-2.11127e-06
-1.99818e-06
-1.88101e-06
-1.66462e-06
-1.68964e-06
-1.992e-06
-2.27188e-06
-2.82524e-06
-3.5465e-06
-5.28999e-06
-7.85616e-06
-1.43093e-05
-2.39732e-05
-4.84094e-05
-8.52217e-05
-0.000178633
-0.00032109
-0.000685483
-0.00125672
-0.00274534
-0.00522757
-0.0119599
-0.0245262
-0.0590644
-0.113025
-0.136367
-0.200231
-0.262889
-0.372298
-0.334284
-0.116485
-0.0315788
-0.00776098
-64.6192
64.792
0.56529
0.44162
0.349456
0.252141
0.201213
0.152134
0.124837
0.0949883
0.076642
0.0545097
0.0447357
0.0388766
0.0348602
0.0286805
0.0245267
0.0190484
0.0156902
0.011675
0.00933736
0.00670565
0.00522739
0.00363735
0.00276966
0.00187226
0.00139543
0.000921632
0.000682634
0.000469274
0.000384648
0.000207664
9.21828e-05
4.75596e-05
2.24705e-05
1.23414e-05
5.59912e-06
2.70508e-06
6.27198e-07
-2.80498e-07
-9.41167e-07
-1.22683e-06
-1.42746e-06
-1.50845e-06
-1.55375e-06
-1.56119e-06
-1.54108e-06
-1.5063e-06
-1.42699e-06
-1.34125e-06
-1.19553e-06
-1.21439e-06
-1.42287e-06
-1.63007e-06
-2.02373e-06
-2.56092e-06
-3.80505e-06
-5.71723e-06
-1.0324e-05
-1.75263e-05
-3.49766e-05
-6.24204e-05
-0.000129178
-0.000235454
-0.000496311
-0.000923141
-0.00199294
-0.00385382
-0.0087255
-0.0181202
-0.0426875
-0.0799953
-0.0984292
-0.143076
-0.188823
-0.26192
-0.234053
-0.0865393
-0.0243178
-0.00608194
-66.1561
66.8786
0.333836
0.265292
0.209608
0.151973
0.120769
0.0915975
0.0748642
0.0571539
0.0459271
0.0328849
0.0268985
0.0233468
0.0208771
0.0172304
0.0146908
0.0114546
0.00940049
0.00702582
0.00559546
0.00403788
0.00313313
0.00219153
0.00166037
0.00112868
0.000836749
0.00055597
0.000409662
0.000283154
0.000229178
0.000125358
5.63358e-05
2.88233e-05
1.36961e-05
7.45018e-06
3.41203e-06
1.63275e-06
3.91903e-07
-1.65536e-07
-5.59746e-07
-7.35132e-07
-8.54883e-07
-9.04614e-07
-9.3172e-07
-9.3631e-07
-9.24409e-07
-9.03096e-07
-8.56053e-07
-8.03905e-07
-7.19865e-07
-7.31571e-07
-8.5384e-07
-9.80896e-07
-1.21669e-06
-1.54746e-06
-2.29422e-06
-3.47203e-06
-6.23791e-06
-1.06747e-05
-2.1154e-05
-3.80635e-05
-7.81734e-05
-0.000143686
-0.000300597
-0.000563997
-0.00120918
-0.0023601
-0.00531104
-0.0111085
-0.0258036
-0.047725
-0.059447
-0.0858813
-0.113666
-0.155582
-0.13861
-0.0531848
-0.0152967
-0.00387101
-67.6935
68.9601
0.110396
0.0884725
0.0698603
0.0507696
0.0402649
0.0305842
0.0249494
0.0190773
0.0153002
0.0109908
0.00897585
0.00778571
0.00695274
0.00574695
0.00489294
0.00382229
0.00313137
0.00234529
0.00186409
0.0013483
0.00104388
0.000731986
0.000553252
0.000377089
0.000278849
0.000185809
0.000136576
9.46402e-05
7.61348e-05
4.19085e-05
1.89475e-05
9.65693e-06
4.60082e-06
2.49128e-06
1.146e-06
5.45959e-07
1.33194e-07
-5.469e-08
-1.85769e-07
-2.44874e-07
-2.84699e-07
-3.0146e-07
-3.10486e-07
-3.12036e-07
-3.08095e-07
-3.0092e-07
-2.85326e-07
-2.67835e-07
-2.40374e-07
-2.4434e-07
-2.84643e-07
-3.27435e-07
-4.05991e-07
-5.17624e-07
-7.66664e-07
-1.16424e-06
-2.08677e-06
-3.58449e-06
-7.08017e-06
-1.2789e-05
-2.61722e-05
-4.82952e-05
-0.000100681
-0.000189677
-0.000405355
-0.000794658
-0.00178322
-0.00374185
-0.00863226
-0.0158651
-0.0198786
-0.0286343
-0.0379465
-0.0516026
-0.0459061
-0.0179312
-0.00521663
-0.0013281
-69.2311
68.8554
0.107081
0.0779689
0.0561132
0.0359824
0.0259138
0.0181005
0.0139208
0.0100666
0.00846601
0.0078287
0.00732883
0.00645727
0.00575262
0.00475589
0.00405742
0.00318915
0.00262526
0.00197776
0.00157836
0.00114642
0.000890366
0.000626805
0.000475399
0.000325793
0.000242193
0.000162846
0.000120847
8.5167e-05
6.95457e-05
3.86851e-05
1.75844e-05
8.91641e-06
4.0435e-06
1.94465e-06
5.12948e-07
-1.7828e-07
-7.4169e-07
-1.06736e-06
-1.42247e-06
-1.69833e-06
-2.10387e-06
-2.4626e-06
-3.03198e-06
-3.53767e-06
-4.33291e-06
-5.00028e-06
-5.99048e-06
-6.72991e-06
-7.90394e-06
-1.00736e-05
-1.48979e-05
-1.97151e-05
-2.79832e-05
-3.63764e-05
-5.11334e-05
-6.64021e-05
-9.35741e-05
-0.000122096
-0.000173416
-0.000228516
-0.000329521
-0.000442676
-0.0006575
-0.000918341
-0.00144675
-0.00218924
-0.00386704
-0.00677129
-0.0136714
-0.023165
-0.0263602
-0.0341171
-0.0422641
-0.0537908
-0.047
-0.0183056
-0.00531855
-0.00135308
-68.9759
66.5644
0.32406
0.233621
0.168275
0.107547
0.077653
0.0541574
0.0417506
0.0301106
0.0253607
0.0234823
0.0220033
0.0193674
0.0172719
0.0142581
0.0121813
0.0095573
0.00788096
0.00592489
0.00473772
0.00343329
0.00267227
0.0018766
0.00142666
0.000975127
0.000726709
0.000487259
0.000362454
0.000254822
0.00020935
0.000115725
5.2284e-05
2.66134e-05
1.20279e-05
5.81213e-06
1.51194e-06
-5.38334e-07
-2.23372e-06
-3.20047e-06
-4.27046e-06
-5.08992e-06
-6.31381e-06
-7.37987e-06
-9.09921e-06
-1.06023e-05
-1.3005e-05
-1.49893e-05
-1.79832e-05
-2.01744e-05
-2.36744e-05
-3.01176e-05
-4.46984e-05
-5.90132e-05
-8.39528e-05
-0.000108885
-0.000153394
-0.000198749
-0.000280693
-0.000365408
-0.000520141
-0.000683766
-0.000988152
-0.00132406
-0.00197079
-0.00274449
-0.00433193
-0.00653062
-0.0115526
-0.0201548
-0.0409115
-0.0697485
-0.0788996
-0.102337
-0.126658
-0.162106
-0.141877
-0.0542889
-0.0155949
-0.0039446
-66.9277
64.2686
0.549577
0.388285
0.280263
0.177887
0.129142
0.0897746
0.0695527
0.0498822
0.0421442
0.0391249
0.03673
0.0322625
0.0288349
0.0237298
0.0203338
0.0158936
0.0131534
0.00984592
0.00790576
0.00570161
0.00445819
0.00311455
0.00237957
0.0016175
0.00121177
0.000807727
0.000603866
0.000422358
0.000351393
0.000191739
8.55569e-05
4.39144e-05
1.97024e-05
9.61756e-06
2.42901e-06