/*--------------------------------*- C++ -*----------------------------------*\
| =========                 |                                                 |
| \\      /  F ield         | OpenFOAM: The Open Source CFD Toolbox           |
|  \\    /   O peration     | Version:  5.x                                   |
|   \\  /    A nd           | Web:      www.OpenFOAM.org                      |
|    \\/     M anipulation  |                                                 |
\*---------------------------------------------------------------------------*/
FoamFile
{
    version     2.0;
    format      ascii;
    class       volScalarField;
    location    "0.4";
    object      T;
}
// * * * * * * * * * * * * * * * * * * * * * * * * * * * * * * * * * * * * * //

dimensions      [0 0 0 1 0 0 0];

internalField   nonuniform List<scalar> 
3200
(
2.25261
2.53203
2.54749
2.65133
2.65772
2.70457
2.70771
2.73501
2.73691
2.75492
2.75611
2.76629
2.76711
2.77658
2.77726
2.78433
2.78482
2.78951
2.78983
2.79269
2.79288
2.79451
2.79461
2.79548
2.79554
2.79599
2.79601
2.79623
2.79625
2.79636
2.79642
2.79642
2.79644
2.79644
2.79645
2.79645
2.79645
2.79645
2.79645
2.79645
2.79645
2.79645
2.79645
2.79645
2.79644
2.79644
2.79644
2.79644
2.79643
2.79643
2.79642
2.79642
2.79639
2.79639
2.79634
2.79633
2.79624
2.79623
2.79605
2.79603
2.79572
2.79568
2.79507
2.795
2.7938
2.79365
2.7911
2.79072
2.78449
2.7833
2.76358
2.72704
2.72283
2.66022
2.65275
2.53326
2.5283
2.52768
2.52755
2.52752
2.40498
2.61864
2.65092
2.7342
2.74785
2.78544
2.79214
2.8139
2.81795
2.83224
2.83476
2.8429
2.84465
2.85213
2.85358
2.85917
2.86021
2.86393
2.8646
2.86687
2.86727
2.86856
2.86878
2.86947
2.86959
2.86995
2.87001
2.87018
2.87021
2.8703
2.87035
2.87036
2.87038
2.87038
2.87038
2.87038
2.87039
2.87039
2.87039
2.87039
2.87039
2.87039
2.87038
2.87038
2.87038
2.87038
2.87038
2.87038
2.87037
2.87037
2.87036
2.87035
2.87033
2.87033
2.87029
2.87027
2.8702
2.87018
2.87004
2.87
2.86974
2.86966
2.86918
2.86901
2.86806
2.86772
2.86567
2.86485
2.85975
2.85711
2.83976
2.80989
2.80089
2.75099
2.73527
2.64246
2.63199
2.63026
2.6299
2.62982
2.54881
2.7125
2.75232
2.81987
2.83704
2.86756
2.87597
2.89352
2.89859
2.91005
2.9132
2.91979
2.92198
2.92794
2.92976
2.93423
2.93552
2.9385
2.93934
2.94116
2.94165
2.94269
2.94297
2.94353
2.94367
2.94396
2.94403
2.94417
2.94421
2.94429
2.94433
2.94434
2.94435
2.94436
2.94436
2.94436
2.94436
2.94436
2.94436
2.94436
2.94436
2.94436
2.94436
2.94436
2.94436
2.94436
2.94436
2.94435
2.94435
2.94435
2.94434
2.94433
2.94432
2.94431
2.94428
2.94426
2.9442
2.94417
2.94406
2.94401
2.9438
2.9437
2.94331
2.9431
2.94233
2.9419
2.94023
2.93919
2.93495
2.93154
2.91647
2.89193
2.88062
2.84042
2.82089
2.74839
2.73536
2.73282
2.73227
2.73214
2.68609
2.81133
2.85261
2.90756
2.92571
2.95057
2.95946
2.97366
2.97899
2.98821
2.99153
2.99688
2.99918
3.00395
3.00585
3.00944
3.0108
3.01319
3.01407
3.01553
3.01605
3.01689
3.01718
3.01763
3.01778
3.01801
3.01809
3.01821
3.01825
3.01831
3.01835
3.01836
3.01837
3.01837
3.01837
3.01837
3.01837
3.01838
3.01838
3.01838
3.01838
3.01838
3.01837
3.01837
3.01837
3.01837
3.01837
3.01837
3.01836
3.01836
3.01835
3.01835
3.01834
3.01833
3.0183
3.01828
3.01824
3.0182
3.01812
3.01806
3.01789
3.01778
3.01747
3.01725
3.01662
3.01617
3.0148
3.01369
3.01015
3.00648
2.9936
2.97348
2.96153
2.92905
2.90866
2.85197
2.83833
2.83532
2.83464
2.83449
2.81835
2.91352
2.95237
2.99673
3.01412
3.03424
3.04276
3.05416
3.05925
3.06662
3.06979
3.0741
3.0763
3.08009
3.08191
3.08476
3.08605
3.08796
3.0888
3.08997
3.09047
3.09114
3.09141
3.09177
3.09192
3.09211
3.09218
3.09227
3.09231
3.09236
3.09239
3.0924
3.09241
3.09241
3.09242
3.09242
3.09242
3.09242
3.09242
3.09242
3.09242
3.09242
3.09242
3.09242
3.09242
3.09242
3.09241
3.09241
3.09241
3.09241
3.0924
3.0924
3.09239
3.09238
3.09236
3.09234
3.0923
3.09227
3.0922
3.09214
3.09201
3.09191
3.09165
3.09145
3.09094
3.0905
3.08939
3.08831
3.08538
3.08181
3.07104
3.05473
3.04329
3.01722
2.99791
2.95385
2.9409
2.93776
2.93702
2.93685
2.9468
3.01796
3.05191
3.08699
3.10243
3.11839
3.12594
3.13493
3.13944
3.14522
3.14802
3.15143
3.15337
3.15633
3.15793
3.16016
3.16131
3.1628
3.16354
3.16446
3.1649
3.16542
3.16567
3.16595
3.16608
3.16623
3.16629
3.16637
3.1664
3.16644
3.16647
3.16648
3.16648
3.16648
3.16649
3.16649
3.16649
3.16649
3.16649
3.16649
3.16649
3.16649
3.16649
3.16649
3.16649
3.16649
3.16648
3.16648
3.16648
3.16648
3.16647
3.16647
3.16646
3.16645
3.16644
3.16642
3.16639
3.16637
3.16631
3.16626
3.16616
3.16606
3.16586
3.16568
3.16528
3.16489
3.164
3.16304
3.16067
3.15746
3.14873
3.1358
3.12566
3.10515
3.08818
3.0545
3.0431
3.04012
3.03939
3.03923
3.07241
3.12389
3.1514
3.17804
3.19073
3.20287
3.20908
3.21589
3.21958
3.22394
3.22624
3.22883
3.23042
3.23264
3.23395
3.23563
3.23656
3.23769
3.23829
3.23899
3.23935
3.23974
3.23994
3.24016
3.24027
3.24038
3.24043
3.24048
3.24051
3.24054
3.24056
3.24057
3.24057
3.24058
3.24058
3.24058
3.24058
3.24058
3.24058
3.24058
3.24058
3.24058
3.24058
3.24058
3.24058
3.24058
3.24058
3.24058
3.24057
3.24057
3.24057
3.24057
3.24056
3.24055
3.24054
3.24053
3.24051
3.24048
3.24044
3.2404
3.24032
3.24025
3.24009
3.23994
3.23964
3.23932
3.23864
3.23784
3.23601
3.23334
3.22661
3.21678
3.20846
3.19294
3.17912
3.15428
3.14498
3.14241
3.14176
3.14161
3.19596
3.23078
3.25094
3.26966
3.27905
3.28761
3.2922
3.29698
3.29971
3.30276
3.30445
3.30627
3.30745
3.309
3.30996
3.31114
3.31183
3.31261
3.31306
3.31354
3.31381
3.31409
3.31423
3.31438
3.31446
3.31454
3.31458
3.31462
3.31464
3.31466
3.31468
3.31468
3.31468
3.31469
3.31469
3.31469
3.31469
3.31469
3.31469
3.31469
3.31469
3.31469
3.31469
3.31469
3.31469
3.31469
3.31469
3.31468
3.31468
3.31468
3.31468
3.31468
3.31467
3.31467
3.31466
3.31465
3.31464
3.31462
3.31459
3.31456
3.3145
3.31445
3.31434
3.31423
3.31401
3.31378
3.3133
3.31271
3.31139
3.30941
3.30463
3.29772
3.29156
3.28069
3.27052
3.25345
3.2466
3.24463
3.24412
3.24401
3.31811
3.33826
3.35053
3.36165
3.36741
3.3725
3.37532
3.37815
3.37983
3.38163
3.38267
3.38375
3.38447
3.38539
3.38598
3.38667
3.38709
3.38756
3.38783
3.38812
3.38828
3.38844
3.38854
3.38862
3.38867
3.38872
3.38874
3.38877
3.38878
3.38879
3.3888
3.3888
3.38881
3.38881
3.38881
3.38881
3.38881
3.38881
3.38881
3.38881
3.38881
3.38881
3.38881
3.38881
3.38881
3.38881
3.38881
3.38881
3.38881
3.3888
3.3888
3.3888
3.3888
3.3888
3.38879
3.38879
3.38878
3.38877
3.38875
3.38873
3.3887
3.38866
3.3886
3.38853
3.3884
3.38826
3.38797
3.38761
3.38682
3.3856
3.38274
3.37864
3.37486
3.36842
3.36221
3.35222
3.34803
3.3468
3.34648
3.3464
3.43946
3.44605
3.45017
3.45386
3.4558
3.45749
3.45844
3.45938
3.45994
3.46054
3.46089
3.46125
3.46149
3.46179
3.46199
3.46222
3.46236
3.46252
3.46261
3.4627
3.46276
3.46281
3.46284
3.46287
3.46289
3.46291
3.46291
3.46292
3.46293
3.46293
3.46293
3.46293
3.46293
3.46293
3.46293
3.46294
3.46294
3.46294
3.46294
3.46294
3.46294
3.46294
3.46294
3.46294
3.46294
3.46293
3.46293
3.46293
3.46293
3.46293
3.46293
3.46293
3.46293
3.46293
3.46293
3.46293
3.46292
3.46292
3.46292
3.46291
3.4629
3.46289
3.46287
3.46284
3.4628
3.46275
3.46266
3.46253
3.46227
3.46186
3.46091
3.45955
3.45827
3.45614
3.45405
3.45076
3.44936
3.44894
3.44883
3.4488
3.4447
3.45134
3.45574
3.46018
3.46273
3.46526
3.46675
3.46831
3.46925
3.47022
3.47077
3.47132
3.47167
3.47209
3.47236
3.47267
3.47285
3.47305
3.47316
3.47328
3.47335
3.47342
3.47345
3.47349
3.47351
3.47353
3.47354
3.47355
3.47355
3.47356
3.47356
3.47356
3.47356
3.47356
3.47356
3.47356
3.47356
3.47356
3.47356
3.47356
3.47356
3.47356
3.47356
3.47356
3.47356
3.47356
3.47356
3.47356
3.47356
3.47356
3.47356
3.47356
3.47356
3.47356
3.47356
3.47356
3.47356
3.47356
3.47356
3.47356
3.47356
3.47356
3.47356
3.47355
3.47355
3.47353
3.47351
3.47345
3.47333
3.47308
3.47246
3.47149
3.47047
3.46862
3.46667
3.46346
3.46208
3.46166
3.46155
3.46153
3.33385
3.3541
3.36723
3.38063
3.38819
3.39582
3.40026
3.40497
3.40774
3.41068
3.41233
3.41396
3.41501
3.41629
3.41709
3.41801
3.41856
3.41915
3.4195
3.41986
3.42006
3.42026
3.42037
3.42048
3.42053
3.42059
3.42062
3.42064
3.42066
3.42067
3.42068
3.42068
3.42069
3.42069
3.42069
3.42069
3.42069
3.42069
3.42069
3.42069
3.42069
3.42069
3.42069
3.42069
3.42069
3.42069
3.42069
3.42069
3.42069
3.42069
3.42069
3.42069
3.42069
3.42069
3.42069
3.42069
3.42069
3.42069
3.42068
3.42068
3.42068
3.42068
3.42067
3.42067
3.42064
3.42061
3.42052
3.42037
3.41999
3.41926
3.4174
3.41448
3.41145
3.40588
3.40007
3.3903
3.3862
3.38498
3.38467
3.38459
3.22219
3.25715
3.27872
3.30131
3.31366
3.32652
3.33377
3.34172
3.34624
3.3512
3.35389
3.35664
3.35836
3.36052
3.36184
3.36339
3.36428
3.36529
3.36585
3.36645
3.36678
3.36712
3.3673
3.36748
3.36758
3.36767
3.36772
3.36776
3.36779
3.36781
3.36782
3.36783
3.36783
3.36783
3.36783
3.36783
3.36783
3.36783
3.36783
3.36783
3.36783
3.36783
3.36783
3.36783
3.36783
3.36783
3.36783
3.36783
3.36783
3.36783
3.36783
3.36783
3.36783
3.36783
3.36783
3.36783
3.36783
3.36783
3.36783
3.36783
3.36783
3.36782
3.36781
3.3678
3.36776
3.36771
3.36756
3.36732
3.36669
3.3655
3.36241
3.35749
3.35255
3.34316
3.33365
3.31695
3.31022
3.30828
3.30779
3.30767
3.10913
3.16075
3.19017
3.22242
3.23913
3.25746
3.26727
3.27862
3.28474
3.29184
3.29548
3.29939
3.30171
3.30482
3.3066
3.30882
3.31003
3.31147
3.31223
3.31309
3.31354
3.31402
3.31427
3.31453
3.31466
3.31479
3.31485
3.31491
3.31495
3.31498
3.315
3.31501
3.31501
3.31501
3.31501
3.31501
3.31501
3.31501
3.31501
3.31501
3.31501
3.31501
3.31501
3.31501
3.31501
3.31501
3.31501
3.31501
3.31501
3.31501
3.31501
3.31501
3.31501
3.31501
3.31501
3.31501
3.31501
3.31501
3.31501
3.31501
3.315
3.315
3.31498
3.31496
3.31492
3.31484
3.31464
3.31431
3.31344
3.31185
3.30752
3.30053
3.29386
3.28048
3.26754
3.24322
3.23409
3.23156
3.23093
3.23078
2.99402
3.06525
3.10153
3.14417
3.16454
3.18876
3.20073
3.21576
3.22324
3.23265
3.23709
3.24224
3.24507
3.2492
3.25138
3.25433
3.25582
3.25772
3.25865
3.25979
3.26034
3.26098
3.26128
3.26162
3.26178
3.26195
3.26203
3.26211
3.26215
3.2622
3.26222
3.26223
3.26224
3.26224
3.26224
3.26224
3.26224
3.26224
3.26224
3.26224
3.26224
3.26224
3.26224
3.26224
3.26224
3.26224
3.26224
3.26224
3.26224
3.26224
3.26224
3.26224
3.26224
3.26224
3.26224
3.26223
3.26223
3.26223
3.26223
3.26223
3.26223
3.26222
3.2622
3.26218
3.26211
3.26202
3.26177
3.26138
3.26027
3.25836
3.25278
3.24361
3.23549
3.21783
3.20194
3.16893
3.15773
3.1548
3.15409
3.15393
2.87608
2.97116
3.01265
3.06683
3.08983
3.12059
3.13411
3.15324
3.16169
3.1737
3.17871
3.18523
3.18842
3.19371
3.19618
3.19995
3.20163
3.20406
3.20512
3.20657
3.20719
3.20801
3.20835
3.20878
3.20896
3.20918
3.20927
3.20937
3.20942
3.20947
3.2095
3.20951
3.20952
3.20952
3.20952
3.20953
3.20953
3.20953
3.20952
3.20952
3.20952
3.20952
3.20952
3.20952
3.20952
3.20952
3.20952
3.20952
3.20952
3.20952
3.20952
3.20952
3.20952
3.20952
3.20952
3.20952
3.20952
3.20952
3.20951
3.20951
3.20951
3.2095
3.20948
3.20945
3.20937
3.20927
3.20896
3.20853
3.20718
3.20508
3.19825
3.1867
3.17755
3.15516
3.13708
3.09382
3.0811
3.07801
3.07729
3.07712
2.75435
2.87923
2.92329
2.99077
3.01484
3.05313
3.06729
3.09119
3.10005
3.11507
3.12033
3.1284
3.13175
3.1384
3.14099
3.14572
3.14748
3.15053
3.15163
3.15346
3.1541
3.15512
3.15548
3.15602
3.15621
3.15648
3.15657
3.15671
3.15675
3.15682
3.15686
3.15687
3.15688
3.15688
3.15688
3.15688
3.15688
3.15688
3.15688
3.15688
3.15688
3.15688
3.15688
3.15688
3.15688
3.15688
3.15688
3.15688
3.15688
3.15688
3.15688
3.15688
3.15688
3.15688
3.15687
3.15687
3.15687
3.15687
3.15687
3.15687
3.15686
3.15685
3.15683
3.1568
3.15671
3.1566
3.15623
3.15579
3.1542
3.15205
3.14397
3.12976
3.12021
3.09239
3.07329
3.01756
3.00415
3.0012
3.00053
3.00038
2.62764
2.79056
2.83302
2.91647
2.93932
2.98669
3.00014
3.02979
3.03822
3.0569
3.06189
3.07183
3.075
3.08331
3.08578
3.09168
3.09336
3.09715
3.0982
3.10047
3.10108
3.10235
3.10269
3.10336
3.10354
3.10388
3.10397
3.10413
3.10417
3.10425
3.1043
3.10431
3.10432
3.10432
3.10432
3.10432
3.10432
3.10432
3.10432
3.10432
3.10432
3.10432
3.10432
3.10432
3.10432
3.10432
3.10432
3.10432
3.10432
3.10432
3.10432
3.10432
3.10432
3.10432
3.10431
3.10431
3.10431
3.10431
3.10431
3.10431
3.1043
3.10429
3.10426
3.10424
3.10412
3.10403
3.10358
3.10317
3.10133
3.09935
3.09003
3.07273
3.06369
3.02936
3.01105
2.93969
2.92687
2.92438
2.92383
2.92371
2.49443
2.70674
2.74113
2.84464
2.86286
2.92166
2.93238
2.9693
2.97603
2.99934
3.00333
3.0156
3.01813
3.02854
3.03052
3.03789
3.03924
3.04397
3.04481
3.04763
3.04812
3.04971
3.04998
3.05082
3.05096
3.05138
3.05145
3.05165
3.05169
3.05179
3.05184
3.05185
3.05186
3.05186
3.05186
3.05186
3.05186
3.05186
3.05186
3.05186
3.05186
3.05186
3.05186
3.05186
3.05186
3.05186
3.05186
3.05186
3.05186
3.05186
3.05186
3.05186
3.05185
3.05185
3.05185
3.05185
3.05185
3.05185
3.05185
3.05185
3.05184
3.05183
3.05179
3.05177
3.05164
3.05156
3.05104
3.05072
3.04856
3.04704
3.0365
3.01545
3.00828
2.96578
2.95103
2.85957
2.84927
2.84757
2.84721
2.84714
2.35275
2.63006
2.64652
2.77626
2.78482
2.8586
2.86364
2.91009
2.91326
2.94264
2.94451
2.95984
2.96103
2.9742
2.97513
2.98444
2.98508
2.99105
2.99144
2.995
2.99523
2.99723
2.99735
2.99841
2.99848
2.99901
2.99904
2.9993
2.99931
2.99944
2.99949
2.9995
2.99951
2.99951
2.99951
2.99951
2.99951
2.99951
2.99951
2.99951
2.99951
2.99951
2.99951
2.99951
2.99951
2.99951
2.99951
2.99951
2.99951
2.99951
2.99951
2.99951
2.9995
2.9995
2.9995
2.9995
2.9995
2.9995
2.9995
2.9995
2.99948
2.99948
2.99944
2.99943
2.99926
2.99923
2.99859
2.99845
2.99587
2.99519
2.9835
2.95774
2.95438
2.9012
2.89419
2.77631
2.77143
2.77081
2.77069
2.77066
2.3525
2.62978
2.64623
2.77598
2.78454
2.85836
2.86341
2.90991
2.91309
2.94251
2.94439
2.95975
2.96094
2.97413
2.97507
2.9844
2.98503
2.99101
2.99141
2.99498
2.99521
2.99721
2.99734
2.9984
2.99846
2.999
2.99903
2.99929
2.9993
2.99943
2.99949
2.99949
2.9995
2.99951
2.99951
2.99951
2.99951
2.99951
2.99951
2.99951
2.99951
2.99951
2.99951
2.99951
2.99951
2.99951
2.99951
2.99951
2.99951
2.99951
2.99951
2.99951
2.99951
2.99951
2.99951
2.99951
2.99951
2.99951
2.9995
2.9995
2.99949
2.99949
2.99944
2.99944
2.99927
2.99924
2.99861
2.99846
2.9959
2.99522
2.98355
2.95784
2.95448
2.90137
2.89436
2.77659
2.77171
2.77109
2.77097
2.77094
2.4942
2.70649
2.74088
2.84439
2.86261
2.92144
2.93217
2.96914
2.97588
2.99923
3.00322
3.01551
3.01806
3.02848
3.03046
3.03785
3.0392
3.04394
3.04478
3.04761
3.0481
3.04969
3.04996
3.0508
3.05095
3.05137
3.05144
3.05164
3.05168
3.05178
3.05183
3.05184
3.05185
3.05186
3.05186
3.05186
3.05186
3.05186
3.05186
3.05186
3.05186
3.05186
3.05186
3.05186
3.05186
3.05186
3.05186
3.05186
3.05186
3.05186
3.05186
3.05186
3.05186
3.05186
3.05186
3.05186
3.05186
3.05185
3.05185
3.05185
3.05184
3.05184
3.0518
3.05178
3.05165
3.05157
3.05105
3.05073
3.04858
3.04706
3.03654
3.01554
3.00837
2.96593
2.9512
2.85981
2.84952
2.84782
2.84746
2.84739
2.62744
2.79034
2.83279
2.91625
2.93911
2.9865
2.99995
3.02965
3.03808
3.0568
3.0618
3.07175
3.07494
3.08326
3.08573
3.09164
3.09332
3.09712
3.09818
3.10044
3.10106
3.10233
3.10267
3.10335
3.10353
3.10387
3.10396
3.10412
3.10416
3.10425
3.10429
3.1043
3.10431
3.10432
3.10432
3.10432
3.10432
3.10432
3.10432
3.10432
3.10432
3.10432
3.10432
3.10432
3.10432
3.10432
3.10432
3.10432
3.10432
3.10432
3.10432
3.10432
3.10432
3.10432
3.10432
3.10432
3.10432
3.10432
3.10431
3.10431
3.1043
3.1043
3.10427
3.10424
3.10413
3.10403
3.10359
3.10319
3.10135
3.09937
3.09007
3.0728
3.06378
3.02949
3.0112
2.9399
2.92709
2.9246
2.92405
2.92394
2.75417
2.87904
2.9231
2.99058
3.01466
3.05297
3.06714
3.09106
3.09994
3.11498
3.12025
3.12833
3.13169
3.13835
3.14094
3.14568
3.14745
3.15051
3.15161
3.15344
3.15408
3.15511
3.15547
3.15601
3.1562
3.15647
3.15657
3.1567
3.15675
3.15681
3.15685
3.15686
3.15687
3.15688
3.15688
3.15688
3.15688
3.15688
3.15688
3.15688
3.15688
3.15688
3.15688
3.15688
3.15688
3.15688
3.15688
3.15688
3.15688
3.15688
3.15688
3.15688
3.15688
3.15688
3.15688
3.15688
3.15688
3.15688
3.15687
3.15687
3.15686
3.15686
3.15683
3.15681
3.15671
3.15661
3.15624
3.1558
3.15422
3.15207
3.14401
3.12983
3.12029
3.09251
3.07342
3.01774
3.00434
3.00139
3.00072
3.00057
2.87593
2.971
3.01249
3.06667
3.08968
3.12044
3.13397
3.15313
3.1616
3.17362
3.17864
3.18517
3.18837
3.19367
3.19614
3.19992
3.20161
3.20404
3.2051
3.20656
3.20717
3.208
3.20834
3.20877
3.20895
3.20917
3.20926
3.20937
3.20941
3.20947
3.2095
3.20951
3.20952
3.20952
3.20952
3.20952
3.20952
3.20952
3.20952
3.20952
3.20952
3.20952
3.20952
3.20952
3.20952
3.20952
3.20952
3.20952
3.20952
3.20952
3.20952
3.20952
3.20952
3.20952
3.20952
3.20952
3.20952
3.20952
3.20952
3.20952
3.20951
3.2095
3.20948
3.20946
3.20938
3.20928
3.20897
3.20854
3.2072
3.20509
3.19828
3.18675
3.17762
3.15526
3.13719
3.09397
3.08126
3.07818
3.07745
3.07729
2.9939
3.06512
3.1014
3.14404
3.16442
3.18865
3.20063
3.21567
3.22316
3.23259
3.23703
3.2422
3.24503
3.24917
3.25135
3.25431
3.25579
3.2577
3.25864
3.25978
3.26033
3.26097
3.26127
3.26162
3.26177
3.26195
3.26202
3.26211
3.26215
3.26219
3.26222
3.26223
3.26223
3.26224
3.26224
3.26224
3.26224
3.26224
3.26224
3.26224
3.26224
3.26224
3.26224
3.26224
3.26224
3.26224
3.26224
3.26224
3.26224
3.26224
3.26224
3.26224
3.26224
3.26224
3.26224
3.26224
3.26224
3.26224
3.26223
3.26223
3.26223
3.26222
3.26221
3.26218
3.26212
3.26203
3.26177
3.26138
3.26028
3.25838
3.25281
3.24365
3.23554
3.21791
3.20203
3.16905
3.15786
3.15494
3.15422
3.15406
3.10904
3.16065
3.19007
3.22232
3.23903
3.25737
3.26719
3.27855
3.28468
3.29179
3.29544
3.29936
3.30168
3.30479
3.30657
3.3088
3.31002
3.31146
3.31222
3.31308
3.31353
3.31402
3.31426
3.31452
3.31465
3.31478
3.31485
3.31491
3.31494
3.31498
3.315
3.315
3.31501
3.31501
3.31501
3.31501
3.31501
3.31501
3.31501
3.31501
3.31501
3.31501
3.31501
3.31501
3.31501
3.31501
3.31501
3.31501
3.31501
3.31501
3.31501
3.31501
3.31501
3.31501
3.31501
3.31501
3.31501
3.31501
3.31501
3.31501
3.31501
3.315
3.31499
3.31497
3.31492
3.31484
3.31464
3.31432
3.31345
3.31187
3.30754
3.30056
3.2939
3.28054
3.26762
3.24331
3.23419
3.23166
3.23103
3.23089
3.22212
3.25708
3.27865
3.30124
3.31359
3.32646
3.33371
3.34167
3.3462
3.35117
3.35386
3.35662
3.35833
3.36051
3.36182
3.36337
3.36427
3.36528
3.36584
3.36645
3.36678
3.36712
3.3673
3.36748
3.36758
3.36767
3.36772
3.36776
3.36778
3.36781
3.36782
3.36783
3.36783
3.36783
3.36783
3.36783
3.36783
3.36783
3.36783
3.36783
3.36783
3.36783
3.36783
3.36783
3.36783
3.36783
3.36783
3.36783
3.36783
3.36783
3.36783
3.36783
3.36783
3.36783
3.36783
3.36783
3.36783
3.36783
3.36783
3.36783
3.36783
3.36782
3.36781
3.3678
3.36777
3.36771
3.36757
3.36732
3.36669
3.36551
3.36242
3.35751
3.35258
3.3432
3.3337
3.31701
3.31029
3.30836
3.30786
3.30775
3.33381
3.35406
3.36719
3.38058
3.38815
3.39578
3.40023
3.40494
3.40771
3.41066
3.41231
3.41395
3.415
3.41628
3.41708
3.418
3.41855
3.41915
3.41949
3.41985
3.42005
3.42025
3.42037
3.42047
3.42053
3.42059
3.42062
3.42064
3.42066
3.42067
3.42068
3.42068
3.42069
3.42069
3.42069
3.42069
3.42069
3.42069
3.42069
3.42069
3.42069
3.42069
3.42069
3.42069
3.42069
3.42069
3.42069
3.42069
3.42069
3.42069
3.42069
3.42069
3.42069
3.42069
3.42069
3.42069
3.42069
3.42069
3.42069
3.42068
3.42068
3.42068
3.42068
3.42067
3.42065
3.42061
3.42052
3.42037
3.41999
3.41926
3.41741
3.41449
3.41147
3.4059
3.4001
3.39034
3.38624
3.38503
3.38471
3.38464
3.44469
3.45132
3.45573
3.46017
3.46272
3.46525
3.46674
3.4683
3.46924
3.47021
3.47077
3.47131
3.47166
3.47209
3.47236
3.47266
3.47285
3.47305
3.47316
3.47328
3.47335
3.47342
3.47345
3.47349
3.47351
3.47353
3.47354
3.47355
3.47355
3.47355
3.47356
3.47356
3.47356
3.47356
3.47356
3.47356
3.47356
3.47356
3.47356
3.47356
3.47356
3.47356
3.47356
3.47356
3.47356
3.47356
3.47356
3.47356
3.47356
3.47356
3.47356
3.47356
3.47356
3.47356
3.47356
3.47356
3.47356
3.47356
3.47356
3.47356
3.47356
3.47356
3.47356
3.47355
3.47355
3.47353
3.47351
3.47345
3.47333
3.47308
3.47246
3.47149
3.47048
3.46863
3.46668
3.46347
3.46209
3.46168
3.46157
3.46154
3.43947
3.44606
3.45018
3.45386
3.45579
3.45746
3.45838
3.45927
3.45977
3.46028
3.46062
3.46106
3.46135
3.46171
3.46193
3.46218
3.46233
3.4625
3.4626
3.4627
3.46276
3.46281
3.46284
3.46287
3.46289
3.46291
3.46292
3.46292
3.46293
3.46293
3.46294
3.46294
3.46294
3.46294
3.46294
3.46294
3.46294
3.46294
3.46294
3.46294
3.46294
3.46294
3.46294
3.46294
3.46294
3.46294
3.46294
3.46294
3.46294
3.46294
3.46293
3.46293
3.46293
3.46293
3.46293
3.46293
3.46293
3.46292
3.46292
3.46291
3.4629
3.46289
3.46287
3.46284
3.4628
3.46275
3.46266
3.46253
3.46227
3.46185
3.4609
3.45954
3.45827
3.45613
3.45404
3.45075
3.44934
3.44892
3.44881
3.44878
3.31815
3.33829
3.35056
3.36166
3.36738
3.37241
3.37515
3.37783
3.37932
3.38084
3.38186
3.38319
3.38406
3.38512
3.38579
3.38655
3.38701
3.3875
3.38779
3.3881
3.38827
3.38844
3.38854
3.38863
3.38868
3.38873
3.38875
3.38877
3.38879
3.3888
3.38881
3.38881
3.38881
3.38881
3.38881
3.38881
3.38881
3.38881
3.38881
3.38881
3.38881
3.38881
3.38881
3.38881
3.38881
3.38881
3.38881
3.38881
3.38881
3.38881
3.38881
3.3888
3.3888
3.3888
3.38879
3.38879
3.38878
3.38877
3.38875
3.38873
3.3887
3.38866
3.3886
3.38853
3.3884
3.38826
3.38797
3.3876
3.38681
3.38559
3.38272
3.37861
3.37483
3.36838
3.36217
3.35217
3.34798
3.34674
3.34642
3.34635
3.19602
3.23084
3.25098
3.26967
3.27901
3.28746
3.29192
3.29643
3.29888
3.30142
3.30309
3.30533
3.30676
3.30856
3.30965
3.31093
3.31168
3.31252
3.313
3.31351
3.31379
3.31408
3.31423
3.31439
3.31447
3.31455
3.31459
3.31463
3.31465
3.31467
3.31469
3.31469
3.3147
3.3147
3.3147
3.3147
3.3147
3.3147
3.3147
3.3147
3.3147
3.3147
3.3147
3.3147
3.31469
3.31469
3.31469
3.31469
3.31469
3.31469
3.31469
3.31468
3.31468
3.31467
3.31466
3.31466
3.31464
3.31462
3.31459
3.31456
3.31451
3.31445
3.31434
3.31423
3.31401
3.31378
3.31329
3.3127
3.31138
3.30939
3.3046
3.29768
3.29151
3.28063
3.27045
3.25336
3.24651
3.24453
3.24403
3.24391
3.0725
3.12397
3.15147
3.17806
3.19067
3.20267
3.2087
3.21513
3.21843
3.22205
3.22431
3.22752
3.22946
3.23203
3.23351
3.23535
3.23636
3.23757
3.23821
3.23894
3.23932
3.23973
3.23994
3.24016
3.24028
3.24039
3.24045
3.2405
3.24053
3.24056
3.24058
3.24059
3.24059
3.24059
3.24059
3.24059
3.24059
3.24059
3.24059
3.24059
3.24059
3.24059
3.24059
3.24059
3.24059
3.24059
3.24059
3.24058
3.24058
3.24058
3.24058
3.24057
3.24057
3.24056
3.24055
3.24053
3.24051
3.24049
3.24045
3.2404
3.24032
3.24025
3.24009
3.23994
3.23964
3.23932
3.23863
3.23784
3.23599
3.23332
3.22657
3.21673
3.20839
3.19286
3.17902
3.15416
3.14485
3.14227
3.14163
3.14148
2.94692
3.01806
3.05199
3.08701
3.10236
3.11812
3.12546
3.13396
3.13798
3.14273
3.14549
3.14977
3.15214
3.15556
3.15736
3.15981
3.16105
3.16265
3.16343
3.1644
3.16486
3.16541
3.16567
3.16596
3.1661
3.16625
3.16632
3.16639
3.16642
3.16646
3.16649
3.1665
3.1665
3.16651
3.16651
3.16651
3.16651
3.16651
3.16651
3.16651
3.16651
3.1665
3.1665
3.1665
3.1665
3.1665
3.1665
3.16649
3.16649
3.16649
3.16648
3.16648
3.16647
3.16646
3.16645
3.16643
3.1664
3.16637
3.16632
3.16627
3.16616
3.16607
3.16586
3.16568
3.16528
3.16489
3.16399
3.16303
3.16065
3.15743
3.14869
3.13573
3.12557
3.10504
3.08805
3.05434
3.04293
3.03995
3.03922
3.03906
2.8185
2.91365
2.95247
2.99675
3.01405
3.03392
3.04219
3.05297
3.05751
3.06351
3.06662
3.07211
3.07479
3.07917
3.08121
3.08434
3.08574
3.08778
3.08866
3.0899
3.09042
3.09112
3.09141
3.09179
3.09194
3.09213
3.09221
3.0923
3.09234
3.09239
3.09242
3.09243
3.09244
3.09244
3.09244
3.09244
3.09244
3.09244
3.09244
3.09244
3.09244
3.09244
3.09244
3.09244
3.09243
3.09243
3.09243
3.09243
3.09242
3.09242
3.09241
3.09241
3.0924
3.09239
3.09237
3.09235
3.09231
3.09228
3.09221
3.09215
3.09202
3.09191
3.09165
3.09145
3.09094
3.0905
3.08938
3.0883
3.08536
3.08178
3.07099
3.05464
3.04319
3.01709
2.99776
2.95365
2.9407
2.93755
2.93681
2.93665
2.68626
2.81149
2.85274
2.90758
2.92564
2.95019
2.95883
2.97225
2.97699
2.98442
2.98768
2.99457
2.99739
3.00289
3.00503
3.00895
3.01042
3.01297
3.0139
3.01545
3.016
3.01687
3.01718
3.01764
3.0178
3.01804
3.01812
3.01824
3.01828
3.01834
3.01838
3.01839
3.0184
3.0184
3.0184
3.0184
3.0184
3.0184
3.0184
3.0184
3.0184
3.0184
3.0184
3.0184
3.01839
3.01839
3.01839
3.01838
3.01838
3.01838
3.01837
3.01836
3.01835
3.01834
3.01831
3.01829
3.01825
3.01821
3.01812
3.01806
3.0179
3.01779
3.01747
3.01725
3.01662
3.01616
3.01479
3.01367
3.01012
3.00644
2.99353
2.97338
2.96141
2.92889
2.90848
2.85173
2.83809
2.83508
2.8344
2.83424
2.54901
2.71269
2.75247
2.81989
2.83698
2.86711
2.8753
2.89189
2.89638
2.9055
2.9086
2.91721
2.9199
2.92676
2.9288
2.93368
2.93508
2.93826
2.93915
2.94107
2.94159
2.94267
2.94296
2.94354
2.9437
2.94399
2.94407
2.94421
2.94425
2.94433
2.94437
2.94438
2.94439
2.94439
2.94439
2.94439
2.94439
2.94439
2.94439
2.94439
2.94439
2.94439
2.94439
2.94439
2.94438
2.94438
2.94438
2.94437
2.94437
2.94436
2.94435
2.94435
2.94433
2.94432
2.94429
2.94427
2.94421
2.94418
2.94407
2.94401
2.94381
2.9437
2.94331
2.9431
2.94233
2.9419
2.94022
2.93917
2.93492
2.9315
2.9164
2.89181
2.88048
2.84023
2.82068
2.74812
2.73507
2.73253
2.73198
2.73186
2.40521
2.61884
2.65111
2.73423
2.74781
2.78493
2.79144
2.81202
2.8156
2.82685
2.82932
2.84011
2.84226
2.85085
2.85248
2.85858
2.85971
2.86367
2.86438
2.86677
2.86719
2.86854
2.86877
2.86949
2.86962
2.86998
2.87004
2.87022
2.87026
2.87035
2.8704
2.8704
2.87042
2.87042
2.87042
2.87042
2.87042
2.87042
2.87042
2.87042
2.87042
2.87042
2.87041
2.87041
2.87041
2.87041
2.8704
2.8704
2.87039
2.87039
2.87038
2.87037
2.87035
2.87034
2.8703
2.87029
2.87021
2.87019
2.87005
2.87
2.86975
2.86966
2.86918
2.86901
2.86805
2.86771
2.86566
2.86483
2.85972
2.85706
2.83967
2.80975
2.80074
2.75077
2.73503
2.64215
2.63167
2.62994
2.62958
2.6295
2.25286
2.53226
2.54771
2.65136
2.65772
2.70398
2.70703
2.73286
2.73454
2.74857
2.74973
2.76338
2.76439
2.77524
2.77601
2.78371
2.78424
2.78925
2.78958
2.79259
2.79279
2.79449
2.7946
2.79551
2.79557
2.79603
2.79606
2.79628
2.7963
2.79641
2.79647
2.79647
2.79648
2.79648
2.79649
2.79649
2.79649
2.79649
2.79649
2.79649
2.79648
2.79648
2.79648
2.79648
2.79647
2.79647
2.79646
2.79646
2.79645
2.79645
2.79644
2.79644
2.79641
2.7964
2.79635
2.79635
2.79625
2.79624
2.79606
2.79604
2.79572
2.79568
2.79507
2.795
2.7938
2.79364
2.79109
2.7907
2.78445
2.78325
2.76349
2.72688
2.72267
2.65998
2.6525
2.53291
2.52794
2.52732
2.52719
2.52716
)
;

boundaryField
{
    F1_1
    {
        type            fixedValue;
        value           nonuniform List<scalar> 
80
(
2.17075
2.49407
2.49407
2.61201
2.61201
2.66522
2.66522
2.6963
2.6963
2.71686
2.71686
2.72846
2.72846
2.73931
2.73931
2.74742
2.74742
2.75281
2.75281
2.75611
2.75611
2.75798
2.75798
2.75899
2.75899
2.7595
2.7595
2.75976
2.75976
2.75989
2.75995
2.75995
2.75996
2.75996
2.75997
2.75997
2.75997
2.75997
2.75998
2.75998
2.75998
2.75998
2.75997
2.75997
2.75997
2.75997
2.75996
2.75996
2.75995
2.75995
2.75994
2.75994
2.75991
2.75991
2.75985
2.75985
2.75975
2.75975
2.75955
2.75955
2.75919
2.75919
2.7585
2.7585
2.75714
2.75714
2.75426
2.75426
2.74724
2.74724
2.72628
2.6854
2.6854
2.61414
2.61414
2.47674
2.47674
2.47674
2.47674
2.47674
)
;
    }
    F1_2
    {
        type            fixedValue;
        value           nonuniform List<scalar> 
80
(
2.2766
2.59734
2.59734
2.74506
2.74506
2.82916
2.82916
2.8822
2.8822
2.9158
2.9158
2.93329
2.93329
2.9484
2.9484
2.9591
2.9591
2.96596
2.96596
2.97005
2.97005
2.97235
2.97235
2.97357
2.97357
2.97419
2.97419
2.97448
2.97448
2.97462
2.97468
2.97468
2.9747
2.9747
2.9747
2.9747
2.9747
2.9747
2.9747
2.9747
2.9747
2.9747
2.9747
2.9747
2.9747
2.9747
2.9747
2.9747
2.9747
2.9747
2.9747
2.9747
2.97469
2.97469
2.97469
2.97469
2.97469
2.97469
2.97469
2.97469
2.97467
2.97467
2.97462
2.97462
2.97444
2.97444
2.97372
2.97372
2.97085
2.97085
2.95863
2.92977
2.92977
2.8693
2.8693
2.73373
2.73373
2.73373
2.73373
2.73373
)
;
    }
    F1_3
    {
        type            fixedValue;
        value           nonuniform List<scalar> 
80
(
2.27635
2.59704
2.59704
2.74476
2.74476
2.8289
2.8289
2.88201
2.88201
2.91567
2.91567
2.93319
2.93319
2.94833
2.94833
2.95905
2.95905
2.96592
2.96592
2.97003
2.97003
2.97233
2.97233
2.97356
2.97356
2.97417
2.97417
2.97447
2.97447
2.97461
2.97468
2.97468
2.9747
2.9747
2.9747
2.9747
2.9747
2.9747
2.9747
2.9747
2.9747
2.9747
2.9747
2.9747
2.9747
2.9747
2.9747
2.9747
2.9747
2.9747
2.9747
2.9747
2.9747
2.9747
2.9747
2.9747
2.9747
2.9747
2.97469
2.97469
2.97468
2.97468
2.97463
2.97463
2.97445
2.97445
2.97374
2.97374
2.97088
2.97088
2.95868
2.92987
2.92987
2.86949
2.86949
2.73403
2.73403
2.73403
2.73403
2.73403
)
;
    }
    F1_4
    {
        type            fixedValue;
        value           nonuniform List<scalar> 
80
(
2.17102
2.49431
2.49431
2.61203
2.61203
2.66457
2.66457
2.69398
2.69398
2.70992
2.70992
2.72554
2.72554
2.73797
2.73797
2.7468
2.7468
2.75254
2.75254
2.75601
2.75601
2.75797
2.75797
2.75901
2.75901
2.75955
2.75955
2.75981
2.75981
2.75994
2.76
2.76
2.76001
2.76001
2.76002
2.76002
2.76002
2.76002
2.76001
2.76001
2.76001
2.76001
2.76001
2.76001
2.76
2.76
2.75999
2.75999
2.75998
2.75998
2.75996
2.75996
2.75993
2.75993
2.75987
2.75987
2.75976
2.75976
2.75956
2.75956
2.75919
2.75919
2.7585
2.7585
2.75714
2.75714
2.75424
2.75424
2.74719
2.74719
2.72618
2.68523
2.68523
2.61387
2.61387
2.47636
2.47636
2.47636
2.47636
2.47636
)
;
    }
    F2_1
    {
        type            fixedValue;
        value           uniform 3.5;
    }
    F2_2
    {
        type            fixedValue;
        value           uniform 3.5;
    }
    F2_3
    {
        type            fixedValue;
        value           uniform 3.5;
    }
    F2_4
    {
        type            fixedValue;
        value           uniform 3.5;
    }
    defaultFaces
    {
        type            empty;
    }
}


// ************************************************************************* //
