/*--------------------------------*- C++ -*----------------------------------*\
| =========                 |                                                 |
| \\      /  F ield         | OpenFOAM: The Open Source CFD Toolbox           |
|  \\    /   O peration     | Version:  5.x                                   |
|   \\  /    A nd           | Web:      www.OpenFOAM.org                      |
|    \\/     M anipulation  |                                                 |
\*---------------------------------------------------------------------------*/
FoamFile
{
    version     2.0;
    format      ascii;
    class       volScalarField;
    location    "4.7001";
    object      T;
}
// * * * * * * * * * * * * * * * * * * * * * * * * * * * * * * * * * * * * * //

dimensions      [0 0 0 1 0 0 0];

internalField   nonuniform List<scalar> 
6300
(
322.845
322.536
322.225
321.913
321.598
321.28
320.959
320.633
320.303
319.967
319.626
319.279
318.926
318.567
318.202
322.846
322.537
322.227
321.915
321.601
321.284
320.963
320.638
320.308
319.972
319.631
319.285
318.932
318.573
318.208
322.846
322.539
322.231
321.92
321.607
321.292
320.972
320.647
320.318
319.984
319.643
319.297
318.944
318.585
318.219
322.848
322.542
322.236
321.928
321.617
321.303
320.985
320.662
320.334
320.001
319.661
319.315
318.962
318.603
318.237
322.849
322.547
322.243
321.938
321.629
321.318
321.002
320.682
320.356
320.024
319.685
319.339
318.987
318.627
318.26
322.851
322.552
322.252
321.95
321.646
321.337
321.025
320.707
320.383
320.053
319.716
319.371
319.019
318.658
318.29
322.853
322.559
322.263
321.966
321.665
321.361
321.052
320.738
320.417
320.09
319.755
319.411
319.059
318.697
318.328
322.856
322.567
322.276
321.984
321.688
321.389
321.085
320.775
320.459
320.134
319.802
319.459
319.107
318.745
318.373
322.859
322.576
322.291
322.005
321.716
321.422
321.124
320.819
320.508
320.188
319.858
319.518
319.166
318.803
318.427
322.862
322.586
322.309
322.029
321.747
321.46
321.169
320.87
320.565
320.25
319.925
319.588
319.237
318.872
318.493
322.866
322.598
322.328
322.057
321.782
321.503
321.22
320.929
320.631
320.323
320.004
319.671
319.322
318.957
318.572
322.87
322.611
322.35
322.087
321.821
321.552
321.277
320.996
320.707
320.408
320.096
319.769
319.425
319.059
318.67
322.875
322.625
322.374
322.12
321.865
321.605
321.341
321.071
320.793
320.504
320.203
319.886
319.548
319.186
318.794
322.88
322.64
322.399
322.156
321.911
321.663
321.411
321.153
320.889
320.614
320.327
320.023
319.696
319.341
318.953
322.885
322.656
322.426
322.195
321.961
321.726
321.487
321.243
320.994
320.737
320.468
320.182
319.872
319.528
319.147
317.863
317.55
317.234
316.915
316.592
316.267
315.938
315.608
315.275
314.939
314.602
314.263
313.923
313.582
313.239
312.896
312.552
312.208
311.863
311.519
311.174
310.83
310.486
310.142
309.798
309.454
309.111
308.768
308.425
308.083
307.741
307.399
307.059
306.718
306.379
306.04
305.702
305.365
305.028
304.692
304.357
304.022
303.688
303.354
303.021
302.689
302.357
302.026
301.696
301.367
301.039
300.712
300.385
300.059
299.734
299.41
299.086
298.763
298.441
298.119
297.798
297.478
297.159
296.84
296.523
296.206
295.891
295.576
295.261
294.948
294.635
294.323
294.011
293.7
293.39
293.08
292.771
292.462
292.154
291.846
291.539
291.232
290.925
290.618
290.311
290.003
289.695
289.386
289.075
288.764
317.868
317.555
317.239
316.919
316.596
316.271
315.942
315.611
315.278
314.942
314.605
314.265
313.925
313.583
313.24
312.896
312.552
312.208
311.863
311.519
311.174
310.83
310.486
310.142
309.798
309.454
309.111
308.768
308.425
308.082
307.74
307.398
307.058
306.717
306.378
306.039
305.701
305.364
305.027
304.691
304.356
304.021
303.687
303.353
303.02
302.688
302.356
302.025
301.695
301.366
301.038
300.71
300.384
300.058
299.733
299.409
299.085
298.762
298.44
298.118
297.797
297.477
297.158
296.839
296.522
296.205
295.889
295.575
295.26
294.947
294.634
294.322
294.01
293.699
293.389
293.079
292.77
292.461
292.153
291.846
291.539
291.232
290.925
290.619
290.312
290.004
289.696
289.387
289.077
288.766
317.879
317.566
317.249
316.928
316.605
316.278
315.949
315.618
315.284
314.947
314.609
314.27
313.928
313.586
313.242
312.898
312.553
312.208
311.863
311.518
311.174
310.829
310.485
310.141
309.797
309.453
309.11
308.767
308.423
308.081
307.738
307.397
307.055
306.715
306.376
306.037
305.699
305.362
305.026
304.69
304.354
304.02
303.685
303.351
303.018
302.685
302.353
302.022
301.692
301.363
301.035
300.708
300.382
300.056
299.731
299.407
299.083
298.76
298.438
298.116
297.795
297.474
297.155
296.837
296.519
296.203
295.887
295.572
295.258
294.945
294.632
294.32
294.009
293.698
293.387
293.077
292.768
292.46
292.152
291.845
291.538
291.232
290.926
290.62
290.313
290.006
289.698
289.389
289.079
288.768
317.896
317.581
317.264
316.942
316.618
316.29
315.96
315.628
315.293
314.956
314.617
314.276
313.934
313.59
313.245
312.9
312.554
312.209
311.863
311.518
311.173
310.828
310.484
310.14
309.796
309.453
309.109
308.765
308.422
308.079
307.736
307.394
307.052
306.712
306.372
306.034
305.696
305.359
305.023
304.687
304.352
304.017
303.683
303.348
303.015
302.682
302.35
302.019
301.688
301.359
301.031
300.704
300.378
300.053
299.728
299.404
299.081
298.757
298.435
298.113
297.791
297.471
297.151
296.832
296.515
296.199
295.883
295.569
295.255
294.942
294.63
294.318
294.006
293.695
293.385
293.075
292.765
292.457
292.149
291.843
291.537
291.231
290.926
290.621
290.315
290.009
289.702
289.394
289.084
288.773
317.918
317.602
317.283
316.96
316.634
316.306
315.974
315.641
315.305
314.967
314.627
314.285
313.941
313.596
313.25
312.903
312.556
312.209
311.862
311.517
311.171
310.827
310.483
310.139
309.795
309.452
309.108
308.764
308.42
308.076
307.732
307.39
307.048
306.707
306.367
306.029
305.692
305.355
305.019
304.684
304.349
304.014
303.679
303.345
303.011
302.677
302.345
302.013
301.683
301.354
301.026
300.699
300.374
300.049
299.725
299.401
299.077
298.754
298.431
298.108
297.786
297.465
297.145
296.827
296.509
296.193
295.878
295.564
295.251
294.939
294.627
294.315
294.003
293.692
293.381
293.071
292.761
292.453
292.146
291.839
291.534
291.23
290.926
290.623
290.319
290.014
289.708
289.4
289.09
288.779
317.946
317.629
317.308
316.983
316.655
316.325
315.992
315.657
315.32
314.981
314.639
314.296
313.95
313.603
313.255
312.906
312.557
312.209
311.861
311.515
311.169
310.825
310.481
310.138
309.794
309.451
309.107
308.762
308.417
308.073
307.728
307.384
307.042
306.7
306.361
306.023
305.686
305.35
305.015
304.68
304.346
304.011
303.676
303.341
303.006
302.671
302.338
302.006
301.675
301.346
301.019
300.693
300.368
300.044
299.72
299.397
299.073
298.75
298.426
298.103
297.78
297.458
297.138
296.819
296.502
296.186
295.872
295.559
295.246
294.935
294.623
294.311
293.999
293.688
293.376
293.066
292.756
292.447
292.14
291.835
291.531
291.228
290.926
290.625
290.323
290.02
289.716
289.409
289.1
288.788
317.981
317.661
317.337
317.01
316.68
316.347
316.013
315.677
315.338
314.998
314.655
314.309
313.961
313.612
313.26
312.909
312.557
312.207
311.858
311.511
311.165
310.822
310.479
310.136
309.794
309.451
309.106
308.761
308.415
308.069
307.722
307.377
307.033
306.692
306.352
306.014
305.679
305.344
305.01
304.677
304.343
304.008
303.673
303.336
303
302.664
302.329
301.996
301.665
301.336
301.009
300.684
300.361
300.038
299.716
299.393
299.07
298.746
298.421
298.097
297.773
297.45
297.128
296.809
296.492
296.177
295.864
295.552
295.241
294.93
294.619
294.308
293.996
293.683
293.371
293.059
292.748
292.439
292.132
291.828
291.526
291.225
290.926
290.628
290.329
290.029
289.727
289.421
289.113
288.801
318.023
317.7
317.372
317.041
316.708
316.373
316.037
315.699
315.36
315.018
314.674
314.326
313.975
313.622
313.267
312.911
312.556
312.203
311.852
311.504
311.159
310.817
310.476
310.135
309.794
309.452
309.107
308.761
308.413
308.064
307.716
307.368
307.022
306.68
306.34
306.003
305.669
305.337
305.006
304.674
304.341
304.006
303.67
303.332
302.994
302.655
302.318
301.984
301.652
301.323
300.997
300.674
300.353
300.032
299.712
299.39
299.067
298.742
298.416
298.09
297.763
297.438
297.115
296.795
296.479
296.165
295.853
295.544
295.235
294.926
294.616
294.305
293.993
293.679
293.365
293.051
292.738
292.428
292.121
291.818
291.518
291.22
290.925
290.631
290.336
290.04
289.742
289.439
289.131
288.819
318.073
317.745
317.411
317.075
316.738
316.4
316.062
315.724
315.385
315.043
314.698
314.348
313.993
313.635
313.274
312.913
312.553
312.195
311.842
311.494
311.15
310.81
310.472
310.135
309.796
309.455
309.111
308.764
308.413
308.06
307.707
307.355
307.007
306.663
306.324
305.989
305.658
305.329
305.001
304.672
304.341
304.007
303.669
303.329
302.987
302.645
302.304
301.967
301.634
301.305
300.982
300.661
300.344
300.026
299.709
299.389
299.066
298.741
298.412
298.082
297.752
297.424
297.099
296.778
296.461
296.149
295.841
295.534
295.229
294.923
294.615
294.305
293.991
293.675
293.358
293.041
292.725
292.413
292.105
291.803
291.505
291.212
290.922
290.634
290.346
290.056
289.763
289.464
289.158
288.844
318.132
317.796
317.455
317.111
316.768
316.427
316.089
315.752
315.414
315.073
314.727
314.376
314.017
313.652
313.283
312.913
312.545
312.182
311.825
311.477
311.136
310.8
310.467
310.135
309.802
309.464
309.12
308.771
308.415
308.056
307.696
307.338
306.985
306.639
306.301
305.969
305.643
305.32
304.997
304.673
304.345
304.012
303.673
303.329
302.981
302.632
302.285
301.944
301.609
301.281
300.961
300.645
300.333
300.022
299.709
299.392
299.07
298.743
298.411
298.075
297.739
297.405
297.076
296.753
296.437
296.128
295.824
295.524
295.224
294.923
294.618
294.308
293.993
293.674
293.351
293.028
292.707
292.391
292.082
291.781
291.487
291.199
290.917
290.637
290.358
290.077
289.792
289.498
289.195
288.88
318.203
317.856
317.501
317.146
316.795
316.451
316.113
315.779
315.447
315.11
314.766
314.413
314.049
313.675
313.293
312.909
312.529
312.158
311.798
311.45
311.113
310.785
310.462
310.139
309.813
309.48
309.138
308.786
308.423
308.054
307.682
307.314
306.954
306.605
306.268
305.941
305.623
305.309
304.997
304.68
304.358
304.026
303.684
303.333
302.975
302.615
302.259
301.911
301.574
301.248
300.932
300.624
300.321
300.019
299.714
299.402
299.082
298.752
298.414
298.069
297.722
297.379
297.043
296.718
296.404
296.1
295.804
295.512
295.221
294.927
294.627
294.319
294.002
293.676
293.345
293.011
292.681
292.359
292.048
291.748
291.459
291.18
290.907
290.639
290.373
290.105
289.831
289.548
289.249
288.932
318.29
317.926
317.549
317.175
316.812
316.465
316.131
315.807
315.485
315.157
314.819
314.466
314.096
313.708
313.307
312.9
312.501
312.117
311.753
311.407
311.078
310.762
310.455
310.148
309.835
309.51
309.171
308.815
308.441
308.055
307.662
307.277
306.907
306.554
306.22
305.902
305.596
305.298
305
304.697
304.383
304.054
303.709
303.347
302.973
302.594
302.221
301.863
301.522
301.199
300.892
300.596
300.308
300.021
299.728
299.425
299.107
298.775
298.426
298.066
297.7
297.341
296.996
296.668
296.357
296.061
295.776
295.499
295.223
294.941
294.649
294.343
294.023
293.688
293.341
292.989
292.644
292.312
291.998
291.7
291.418
291.15
290.891
290.639
290.389
290.14
289.886
289.619
289.33
289.011
318.403
318.014
317.593
317.188
316.807
316.459
316.135
315.831
315.531
315.22
314.894
314.543
314.168
313.76
313.329
312.88
312.451
312.049
311.681
311.339
311.025
310.728
310.447
310.166
309.872
309.562
309.227
308.868
308.478
308.064
307.632
307.22
306.833
306.478
306.148
305.845
305.558
305.285
305.013
304.729
304.429
304.104
303.757
303.379
302.979
302.562
302.163
301.789
301.446
301.127
300.834
300.557
300.294
300.031
299.757
299.467
299.155
298.82
298.456
298.07
297.668
297.284
296.924
296.594
296.287
296.004
295.738
295.485
295.232
294.968
294.689
294.389
294.066
293.716
293.345
292.958
292.588
292.241
291.923
291.628
291.358
291.105
290.867
290.636
290.405
290.182
289.959
289.723
289.453
289.134
318.565
318.148
317.615
317.166
316.755
316.418
316.11
315.848
315.593
315.305
315.005
314.655
314.286
313.847
313.379
312.829
312.364
311.931
311.57
311.232
310.945
310.674
310.437
310.201
309.933
309.65
309.318
308.967
308.548
308.1
307.574
307.128
306.712
306.365
306.039
305.762
305.5
305.272
305.044
304.783
304.51
304.189
303.849
303.443
303.011
302.501
302.071
301.669
301.334
301.02
300.752
300.499
300.279
300.059
299.808
299.544
299.234
298.907
298.516
298.099
297.609
297.194
296.808
296.485
296.182
295.925
295.682
295.469
295.258
295.016
294.762
294.465
294.15
293.774
293.373
292.9
292.5
292.126
291.815
291.522
291.273
291.037
290.833
290.632
290.41
290.223
290.053
289.873
289.65
289.34
318.821
318.449
317.517
317.09
316.594
316.337
316.018
315.857
315.702
315.407
315.187
314.794
314.505
313.974
313.547
312.655
312.23
311.709
311.428
311.051
310.843
310.569
310.427
310.285
310.013
309.808
309.438
309.164
308.659
308.251
307.398
306.992
306.492
306.222
305.86
305.659
305.394
305.257
305.12
304.857
304.658
304.3
304.035
303.547
303.152
302.329
301.936
301.454
301.193
300.844
300.65
300.395
300.262
300.13
299.877
299.685
299.34
299.084
298.614
298.233
297.441
297.063
296.599
296.349
296.012
295.826
295.58
295.453
295.326
295.082
294.898
294.567
294.321
293.869
293.502
292.738
292.373
291.923
291.68
291.351
291.168
290.924
290.795
290.658
290.363
290.24
290.162
290.085
289.97
289.737
288.421
288.046
287.67
287.293
286.916
286.539
286.162
285.787
285.412
285.039
284.666
284.295
283.924
283.554
283.185
288.422
288.047
287.67
287.293
286.915
286.538
286.162
285.786
285.411
285.038
284.665
284.294
283.924
283.554
283.185
288.425
288.049
287.671
287.293
286.915
286.537
286.16
285.784
285.409
285.035
284.663
284.292
283.922
283.553
283.184
288.429
288.051
287.673
287.294
286.914
286.535
286.157
285.781
285.405
285.032
284.66
284.289
283.92
283.552
283.184
288.434
288.056
287.675
287.294
286.913
286.533
286.153
285.776
285.4
285.027
284.655
284.285
283.917
283.55
283.183
288.442
288.062
287.679
287.295
286.911
286.529
286.148
285.769
285.393
285.02
284.649
284.28
283.913
283.547
283.182
288.453
288.07
287.683
287.296
286.908
286.523
286.14
285.76
285.383
285.01
284.64
284.273
283.907
283.544
283.181
288.469
288.081
287.689
287.296
286.904
286.514
286.128
285.747
285.37
284.997
284.629
284.263
283.9
283.539
283.18
288.49
288.096
287.696
287.295
286.897
286.502
286.113
285.73
285.353
284.981
284.614
284.251
283.891
283.534
283.178
288.521
288.116
287.705
287.293
286.885
286.484
286.091
285.707
285.33
284.96
284.595
284.236
283.88
283.527
283.176
288.564
288.143
287.714
287.286
286.867
286.458
286.062
285.676
285.3
284.932
284.572
284.217
283.866
283.519
283.173
288.626
288.177
287.721
287.272
286.838
286.421
286.021
285.635
285.261
284.898
284.543
284.194
283.849
283.508
283.169
288.718
288.219
287.72
287.242
286.792
286.367
285.965
285.582
285.213
284.856
284.507
284.166
283.829
283.496
283.165
288.854
288.262
287.698
287.185
286.719
286.291
285.892
285.514
285.153
284.804
284.465
284.133
283.806
283.482
283.16
289.053
288.276
287.625
287.081
286.609
286.186
285.796
285.43
285.081
284.744
284.416
284.095
283.779
283.466
283.155
322.891
322.671
322.452
322.231
322.01
321.786
321.56
321.331
321.098
320.859
320.612
320.351
320.066
319.733
319.302
322.895
322.686
322.476
322.266
322.054
321.842
321.629
321.414
321.197
320.977
320.752
320.521
320.275
319.989
319.558
322.9
322.7
322.5
322.3
322.1
321.9
321.699
321.498
321.297
321.097
320.898
320.701
320.511
320.345
320.287
322.905
322.715
322.525
322.335
322.146
321.957
321.769
321.582
321.398
321.217
321.041
320.877
320.732
320.625
320.586
322.91
322.729
322.549
322.37
322.191
322.014
321.838
321.665
321.495
321.332
321.178
321.039
320.926
320.858
320.881
322.915
322.744
322.574
322.404
322.236
322.069
321.905
321.745
321.589
321.441
321.304
321.183
321.087
321.03
321.018
322.919
322.758
322.597
322.437
322.279
322.123
321.97
321.821
321.678
321.542
321.418
321.309
321.223
321.169
321.165
322.924
322.772
322.62
322.47
322.321
322.175
322.032
321.894
321.761
321.636
321.522
321.42
321.336
321.273
321.232
322.928
322.785
322.642
322.501
322.361
322.224
322.091
321.962
321.839
321.723
321.616
321.519
321.435
321.361
321.286
322.932
322.797
322.663
322.53
322.399
322.271
322.147
322.027
321.912
321.804
321.703
321.61
321.526
321.449
321.381
322.936
322.809
322.683
322.558
322.436
322.316
322.2
322.087
321.98
321.879
321.784
321.695
321.612
321.531
321.443
322.94
322.821
322.702
322.585
322.47
322.358
322.249
322.145
322.045
321.95
321.861
321.777
321.697
321.619
321.546
322.944
322.832
322.72
322.611
322.503
322.398
322.296
322.199
322.105
322.017
321.934
321.855
321.78
321.703
321.614
322.947
322.842
322.738
322.635
322.534
322.435
322.34
322.249
322.163
322.081
322.004
321.932
321.863
321.796
321.73
322.95
322.852
322.754
322.657
322.563
322.471
322.382
322.297
322.216
322.141
322.071
322.006
321.946
321.888
321.815
322.953
322.861
322.769
322.678
322.59
322.504
322.421
322.342
322.267
322.197
322.133
322.076
322.027
321.99
321.982
322.956
322.869
322.783
322.698
322.615
322.534
322.457
322.383
322.314
322.25
322.192
322.141
322.1
322.071
322.058
322.959
322.877
322.796
322.716
322.638
322.563
322.491
322.422
322.357
322.298
322.245
322.199
322.164
322.142
322.143
322.961
322.885
322.808
322.733
322.66
322.59
322.522
322.457
322.397
322.342
322.293
322.251
322.218
322.197
322.186
322.964
322.891
322.82
322.749
322.681
322.614
322.55
322.49
322.433
322.382
322.335
322.296
322.265
322.244
322.238
322.966
322.898
322.83
322.764
322.699
322.637
322.577
322.52
322.466
322.417
322.373
322.335
322.304
322.281
322.266
322.968
322.904
322.84
322.778
322.717
322.658
322.601
322.547
322.496
322.45
322.407
322.37
322.338
322.313
322.298
322.97
322.909
322.849
322.79
322.733
322.677
322.623
322.572
322.524
322.479
322.438
322.401
322.367
322.339
322.314
322.971
322.914
322.858
322.802
322.747
322.695
322.644
322.595
322.549
322.506
322.465
322.428
322.394
322.361
322.327
322.973
322.919
322.865
322.813
322.761
322.711
322.662
322.616
322.572
322.53
322.491
322.454
322.419
322.385
322.352
322.974
322.923
322.872
322.822
322.774
322.726
322.68
322.636
322.594
322.553
322.515
322.478
322.443
322.408
322.369
322.976
322.927
322.879
322.832
322.785
322.74
322.696
322.654
322.614
322.575
322.538
322.502
322.467
322.432
322.398
322.977
322.931
322.885
322.84
322.796
322.753
322.711
322.671
322.632
322.595
322.56
322.525
322.491
322.457
322.418
322.978
322.934
322.891
322.848
322.806
322.765
322.725
322.687
322.65
322.615
322.581
322.548
322.516
322.484
322.452
322.979
322.937
322.896
322.855
322.815
322.776
322.739
322.702
322.667
322.633
322.601
322.57
322.541
322.512
322.477
322.98
322.94
322.901
322.862
322.824
322.787
322.751
322.716
322.682
322.65
322.62
322.592
322.566
322.543
322.529
322.981
322.943
322.906
322.869
322.832
322.797
322.762
322.729
322.697
322.667
322.638
322.612
322.588
322.568
322.552
322.982
322.946
322.91
322.874
322.84
322.806
322.773
322.741
322.71
322.681
322.654
322.629
322.608
322.59
322.579
322.983
322.948
322.914
322.88
322.846
322.814
322.782
322.752
322.723
322.695
322.669
322.645
322.624
322.607
322.592
322.983
322.95
322.917
322.885
322.853
322.822
322.791
322.762
322.734
322.707
322.682
322.659
322.639
322.622
322.609
322.984
322.952
322.921
322.889
322.859
322.829
322.799
322.771
322.744
322.718
322.694
322.672
322.652
322.634
322.618
322.985
322.954
322.924
322.894
322.864
322.835
322.807
322.78
322.754
322.729
322.705
322.683
322.662
322.644
322.629
322.985
322.956
322.926
322.898
322.869
322.841
322.814
322.788
322.762
322.738
322.714
322.692
322.672
322.652
322.634
322.986
322.957
322.929
322.901
322.874
322.847
322.82
322.795
322.77
322.746
322.723
322.701
322.68
322.659
322.638
322.986
322.959
322.931
322.904
322.878
322.852
322.826
322.801
322.777
322.754
322.731
322.709
322.688
322.667
322.647
322.987
322.96
322.934
322.907
322.882
322.856
322.831
322.807
322.784
322.761
322.739
322.717
322.696
322.675
322.652
322.987
322.961
322.936
322.91
322.885
322.86
322.836
322.813
322.79
322.767
322.746
322.725
322.704
322.683
322.662
322.987
322.962
322.937
322.913
322.888
322.864
322.841
322.818
322.795
322.774
322.753
322.732
322.711
322.691
322.669
322.988
322.963
322.939
322.915
322.891
322.868
322.845
322.822
322.801
322.78
322.759
322.739
322.719
322.7
322.68
322.988
322.964
322.94
322.917
322.894
322.871
322.849
322.827
322.806
322.785
322.765
322.746
322.727
322.708
322.689
322.988
322.965
322.942
322.919
322.896
322.874
322.852
322.831
322.81
322.79
322.771
322.752
322.735
322.718
322.705
322.989
322.966
322.943
322.92
322.898
322.876
322.855
322.834
322.814
322.794
322.776
322.758
322.741
322.726
322.712
322.989
322.966
322.944
322.922
322.9
322.878
322.857
322.837
322.817
322.798
322.78
322.763
322.747
322.733
322.721
322.989
322.967
322.945
322.923
322.901
322.88
322.86
322.84
322.82
322.802
322.784
322.767
322.752
322.738
322.725
322.989
322.967
322.945
322.924
322.903
322.882
322.861
322.842
322.823
322.805
322.787
322.771
322.756
322.742
322.729
322.989
322.967
322.946
322.924
322.903
322.883
322.863
322.843
322.825
322.807
322.79
322.773
322.758
322.745
322.732
322.989
322.968
322.946
322.925
322.904
322.884
322.864
322.845
322.826
322.808
322.791
322.775
322.76
322.747
322.734
322.989
322.968
322.946
322.925
322.904
322.884
322.864
322.845
322.827
322.809
322.792
322.777
322.762
322.748
322.735
322.989
322.968
322.946
322.925
322.904
322.884
322.864
322.845
322.827
322.809
322.793
322.777
322.762
322.749
322.735
322.989
322.968
322.946
322.925
322.904
322.884
322.864
322.845
322.827
322.809
322.792
322.777
322.762
322.749
322.736
322.989
322.967
322.946
322.924
322.903
322.883
322.863
322.844
322.826
322.808
322.792
322.776
322.762
322.748
322.736
322.989
322.967
322.945
322.924
322.903
322.882
322.862
322.843
322.824
322.807
322.79
322.774
322.76
322.747
322.735
322.989
322.967
322.944
322.923
322.901
322.88
322.86
322.841
322.822
322.804
322.788
322.772
322.758
322.745
322.734
322.989
322.966
322.943
322.921
322.899
322.878
322.858
322.838
322.819
322.801
322.784
322.769
322.754
322.741
322.73
322.988
322.965
322.942
322.92
322.897
322.876
322.855
322.835
322.816
322.797
322.78
322.764
322.75
322.736
322.726
322.988
322.964
322.941
322.918
322.895
322.873
322.852
322.831
322.812
322.793
322.776
322.759
322.744
322.73
322.715
322.988
322.963
322.939
322.915
322.892
322.869
322.848
322.827
322.807
322.788
322.77
322.753
322.738
322.723
322.71
322.987
322.962
322.937
322.913
322.889
322.865
322.843
322.821
322.801
322.782
322.764
322.747
322.731
322.716
322.701
322.987
322.961
322.935
322.91
322.885
322.861
322.838
322.816
322.795
322.775
322.757
322.74
322.724
322.709
322.695
322.986
322.959
322.932
322.906
322.88
322.855
322.832
322.809
322.787
322.767
322.749
322.732
322.716
322.701
322.686
322.986
322.958
322.93
322.902
322.875
322.849
322.825
322.801
322.779
322.759
322.74
322.723
322.707
322.693
322.68
322.985
322.956
322.926
322.898
322.87
322.843
322.817
322.793
322.77
322.749
322.73
322.713
322.697
322.684
322.671
322.984
322.953
322.923
322.893
322.863
322.835
322.808
322.783
322.759
322.738
322.718
322.701
322.687
322.675
322.665
322.984
322.951
322.919
322.887
322.856
322.827
322.798
322.772
322.747
322.725
322.705
322.688
322.674
322.664
322.659
322.983
322.948
322.914
322.881
322.848
322.817
322.787
322.76
322.734
322.71
322.69
322.672
322.659
322.65
322.645
322.982
322.945
322.909
322.874
322.84
322.807
322.775
322.746
322.718
322.694
322.672
322.654
322.641
322.633
322.633
322.981
322.942
322.904
322.867
322.83
322.795
322.762
322.73
322.701
322.675
322.652
322.633
322.619
322.611
322.608
322.979
322.939
322.898
322.858
322.82
322.783
322.747
322.714
322.682
322.654
322.629
322.609
322.593
322.585
322.588
322.978
322.935
322.892
322.849
322.808
322.769
322.731
322.695
322.662
322.631
322.604
322.58
322.562
322.55
322.547
322.977
322.93
322.885
322.84
322.796
322.754
322.713
322.675
322.639
322.605
322.575
322.549
322.526
322.51
322.509
322.975
322.926
322.877
322.829
322.782
322.737
322.694
322.653
322.614
322.578
322.545
322.514
322.486
322.459
322.426
322.974
322.921
322.869
322.818
322.768
322.719
322.673
322.629
322.587
322.548
322.512
322.478
322.445
322.414
322.383
322.972
322.916
322.86
322.805
322.752
322.7
322.651
322.604
322.559
322.517
322.477
322.44
322.404
322.367
322.324
322.97
322.91
322.85
322.792
322.735
322.68
322.627
322.577
322.529
322.484
322.442
322.401
322.363
322.325
322.289
322.968
322.904
322.84
322.778
322.717
322.658
322.601
322.548
322.497
322.449
322.404
322.362
322.322
322.281
322.237
322.966
322.897
322.829
322.763
322.697
322.634
322.574
322.517
322.462
322.412
322.365
322.321
322.28
322.241
322.205
322.963
322.89
322.817
322.746
322.677
322.609
322.545
322.483
322.426
322.372
322.323
322.278
322.237
322.199
322.157
322.961
322.882
322.805
322.728
322.654
322.582
322.513
322.447
322.386
322.33
322.279
322.233
322.193
322.158
322.13
322.958
322.874
322.791
322.71
322.63
322.553
322.479
322.408
322.343
322.283
322.23
322.184
322.145
322.113
322.097
322.955
322.866
322.777
322.689
322.604
322.521
322.441
322.366
322.296
322.233
322.177
322.13
322.091
322.058
322.019
322.952
322.856
322.761
322.668
322.576
322.487
322.401
322.32
322.245
322.177
322.118
322.069
322.033
322.008
321.985
322.949
322.847
322.745
322.645
322.547
322.451
322.358
322.27
322.189
322.115
322.051
322.001
321.968
321.955
321.961
322.945
322.836
322.728
322.621
322.515
322.412
322.312
322.216
322.127
322.045
321.975
321.921
321.889
321.889
321.93
322.942
322.826
322.71
322.596
322.482
322.371
322.263
322.158
322.059
321.968
321.888
321.824
321.788
321.795
321.877
322.938
322.815
322.692
322.569
322.448
322.328
322.211
322.096
321.986
321.883
321.789
321.709
321.656
321.65
321.754
289.261
288.175
287.461
286.918
286.463
286.059
285.687
285.337
285.003
284.679
284.364
284.056
283.751
283.449
283.15
288.877
287.825
287.193
286.709
286.295
285.922
285.573
285.243
284.924
284.615
284.313
284.017
283.724
283.433
283.144
287.362
287.184
286.821
286.451
286.1
285.766
285.447
285.139
284.839
284.546
284.259
283.975
283.695
283.416
283.139
286.766
286.672
286.454
286.181
285.892
285.601
285.313
285.029
284.75
284.474
284.202
283.932
283.664
283.398
283.133
286.202
286.248
286.124
285.923
285.686
285.434
285.176
284.916
284.657
284.399
284.142
283.887
283.633
283.379
283.126
285.946
285.941
285.847
285.688
285.49
285.271
285.04
284.803
284.564
284.323
284.082
283.841
283.601
283.36
283.12
285.681
285.696
285.617
285.481
285.31
285.116
284.908
284.692
284.471
284.248
284.022
283.796
283.569
283.341
283.114
285.562
285.515
285.425
285.299
285.145
284.97
284.782
284.585
284.381
284.173
283.963
283.75
283.537
283.322
283.107
285.467
285.364
285.26
285.136
284.993
284.834
284.662
284.481
284.294
284.101
283.904
283.706
283.505
283.303
283.101
285.304
285.214
285.107
284.987
284.853
284.707
284.549
284.383
284.209
284.031
283.848
283.662
283.474
283.285
283.095
285.197
285.075
284.964
284.848
284.722
284.587
284.442
284.289
284.129
283.963
283.794
283.62
283.445
283.267
283.089
285.022
284.928
284.824
284.715
284.599
284.474
284.341
284.2
284.052
283.899
283.741
283.58
283.416
283.25
283.084
284.908
284.788
284.687
284.586
284.48
284.367
284.245
284.116
283.98
283.838
283.692
283.542
283.389
283.234
283.078
284.715
284.635
284.55
284.462
284.368
284.265
284.154
284.036
283.911
283.78
283.645
283.505
283.363
283.218
283.073
284.575
284.484
284.415
284.342
284.26
284.169
284.069
283.961
283.846
283.726
283.6
283.471
283.338
283.204
283.068
284.302
284.318
284.284
284.229
284.16
284.079
283.989
283.891
283.786
283.675
283.558
283.438
283.315
283.19
283.063
284.18
284.187
284.166
284.125
284.067
283.996
283.915
283.826
283.729
283.627
283.519
283.408
283.293
283.177
283.059
284.045
284.074
284.064
284.032
283.982
283.92
283.847
283.766
283.677
283.582
283.483
283.38
283.273
283.165
283.055
283.978
283.987
283.978
283.951
283.907
283.851
283.785
283.711
283.629
283.542
283.449
283.353
283.254
283.153
283.051
283.897
283.914
283.906
283.88
283.841
283.79
283.729
283.66
283.585
283.504
283.418
283.329
283.237
283.143
283.048
283.856
283.857
283.845
283.82
283.782
283.735
283.678
283.615
283.545
283.469
283.39
283.307
283.221
283.133
283.045
283.808
283.809
283.794
283.767
283.731
283.686
283.633
283.573
283.508
283.438
283.364
283.286
283.206
283.124
283.042
283.785
283.771
283.75
283.722
283.686
283.642
283.592
283.536
283.475
283.409
283.34
283.268
283.193
283.116
283.039
283.766
283.739
283.712
283.682
283.645
283.603
283.555
283.502
283.445
283.383
283.318
283.251
283.181
283.109
283.036
283.732
283.706
283.677
283.645
283.609
283.568
283.522
283.472
283.418
283.36
283.299
283.235
283.169
283.102
283.034
283.71
283.676
283.645
283.612
283.576
283.536
283.492
283.444
283.393
283.338
283.281
283.221
283.159
283.096
283.032
283.673
283.644
283.613
283.58
283.545
283.507
283.465
283.419
283.371
283.319
283.265
283.208
283.15
283.09
283.03
283.649
283.614
283.583
283.551
283.517
283.48
283.44
283.397
283.35
283.301
283.25
283.197
283.142
283.085
283.029
283.608
283.581
283.553
283.523
283.491
283.455
283.417
283.376
283.332
283.286
283.237
283.186
283.134
283.081
283.027
283.58
283.55
283.524
283.497
283.466
283.433
283.396
283.357
283.315
283.271
283.225
283.177
283.127
283.077
283.026
283.525
283.516
283.497
283.472
283.444
283.412
283.378
283.34
283.3
283.258
283.214
283.168
283.121
283.073
283.024
283.5
283.49
283.473
283.45
283.424
283.394
283.361
283.325
283.287
283.247
283.205
283.161
283.116
283.07
283.023
283.475
283.467
283.452
283.431
283.406
283.378
283.346
283.312
283.275
283.237
283.196
283.154
283.111
283.067
283.022
283.462
283.451
283.435
283.415
283.391
283.364
283.333
283.3
283.265
283.228
283.189
283.148
283.107
283.064
283.021
283.448
283.438
283.422
283.402
283.378
283.352
283.322
283.29
283.256
283.22
283.182
283.143
283.103
283.062
283.021
283.442
283.428
283.411
283.391
283.368
283.342
283.313
283.281
283.248
283.213
283.176
283.139
283.1
283.06
283.02
283.435
283.421
283.403