/*--------------------------------*- C++ -*----------------------------------*\
| =========                 |                                                 |
| \\      /  F ield         | OpenFOAM: The Open Source CFD Toolbox           |
|  \\    /   O peration     | Version:  5.x                                   |
|   \\  /    A nd           | Web:      www.OpenFOAM.org                      |
|    \\/     M anipulation  |                                                 |
\*---------------------------------------------------------------------------*/
FoamFile
{
    version     2.0;
    format      ascii;
    class       volScalarField;
    location    "1.6";
    object      gradTy;
}
// * * * * * * * * * * * * * * * * * * * * * * * * * * * * * * * * * * * * * //

dimensions      [0 -1 0 1 0 0 0];

internalField   nonuniform List<scalar> 
3200
(
17.5326
8.36342
11.3071
8.07412
9.42965
7.83127
8.53379
7.60974
8.02256
7.4381
7.68851
7.36446
7.55358
7.18662
7.37578
7.02919
7.20579
6.88843
7.04946
6.76229
6.90767
6.64944
6.78001
6.54865
6.66581
6.4585
6.56522
6.37667
6.48616
6.3239
6.19343
6.27693
6.16411
6.2182
6.13332
6.17349
6.10885
6.13926
6.09034
6.11321
6.07668
6.09365
6.06677
6.07917
6.05975
6.06858
6.05499
6.06101
6.05208
6.0557
6.05128
6.05341
6.04996
6.05108
6.05011
6.04965
6.05211
6.04941
6.05672
6.0507
6.06533
6.05405
6.08053
6.06016
6.10737
6.06933
6.15682
6.07683
6.25469
6.03075
6.32531
7.14194
6.45409
7.98025
6.8126
9.9302
9.1591
9.04118
9.01683
9.01159
16.3497
9.42735
10.9308
8.51308
9.23999
8.04643
8.42266
7.73196
7.952
7.51475
7.64847
7.40661
7.5074
7.23251
7.33243
7.07281
7.16619
6.92849
7.01367
6.79859
6.8755
6.6821
6.75119
6.57792
6.63994
6.4847
6.54135
6.40033
6.45969
6.32736
6.21732
6.26319
6.17894
6.20777
6.14425
6.16555
6.11716
6.13327
6.09665
6.10876
6.08141
6.0904
6.07028
6.07685
6.06232
6.06699
6.05682
6.06
6.05333
6.05525
6.05195
6.05308
6.05049
6.05108
6.05035
6.05009
6.05193
6.05049
6.05596
6.05275
6.06369
6.05767
6.07747
6.06658
6.10185
6.0814
6.14663
6.10287
6.2346
6.10657
6.38376
7.02653
6.65606
7.79769
7.19039
9.53679
9.13309
9.03755
9.01619
9.0115
15.4439
10.1543
10.7115
8.8263
9.1272
8.19883
8.35425
7.81778
7.90775
7.56858
7.62348
7.43507
7.47627
7.26342
7.30349
7.10233
7.13984
6.95564
6.98989
6.82322
6.85415
6.70427
6.73207
6.59778
6.62276
6.50243
6.52539
6.41598
6.4409
6.32993
6.23498
6.25467
6.18925
6.20104
6.15178
6.1604
6.12289
6.12939
6.101
6.10589
6.08469
6.08832
6.07272
6.07537
6.0641
6.06599
6.0581
6.05939
6.05421
6.05499
6.05243
6.05289
6.05089
6.05112
6.05055
6.05044
6.05188
6.05128
6.05553
6.05422
6.06271
6.06024
6.07562
6.07114
6.09855
6.09002
6.14078
6.12189
6.22488
6.16617
6.42757
6.95165
6.79753
7.68507
7.45001
9.25337
9.09475
9.03095
9.01487
9.01121
14.7497
10.6474
10.5899
9.05211
9.06361
8.3079
8.31353
7.87856
7.8807
7.60666
7.60824
7.45436
7.45532
7.28423
7.2842
7.12231
7.12237
6.97406
6.97416
6.83994
6.84004
6.71933
6.71944
6.61128
6.6114
6.51444
6.51473
6.42627
6.42754
6.33188
6.24807
6.24956
6.19647
6.19675
6.15701
6.15709
6.12685
6.1269
6.10402
6.10406
6.08697
6.08699
6.07442
6.07444
6.06536
6.06537
6.05902
6.05902
6.05486
6.05487
6.05278
6.05278
6.05119
6.05118
6.05074
6.05073
6.05189
6.05187
6.05531
6.05528
6.06216
6.0621
6.07456
6.07442
6.09667
6.09627
6.13771
6.13602
6.22163
6.21295
6.46087
6.90388
6.89733
7.61735
7.62808
9.04842
9.05259
9.02242
9.01303
9.01076
14.2197
10.9788
10.5275
9.21598
9.03075
8.38655
8.29047
7.92187
7.86472
7.63374
7.59923
7.46747
7.44127
7.2982
7.2714
7.13582
7.11084
6.98656
6.96381
6.8513
6.83077
6.72957
6.71114
6.62044
6.60393
6.52256
6.50762
6.43297
6.41807
6.33335
6.25774
6.24663
6.20156
6.19408
6.16064
6.15501
6.12961
6.12533
6.10613
6.10291
6.08856
6.08617
6.07562
6.07387
6.06625
6.06501
6.05967
6.05882
6.05532
6.05482
6.05304
6.05274
6.05141
6.05125
6.05089
6.05095
6.05194
6.05232
6.05523
6.05606
6.06188
6.06344
6.07399
6.07679
6.0957
6.10084
6.13636
6.14665
6.22214
6.24946
6.48635
6.87408
6.96806
7.57798
7.74975
8.9001
9.0118
9.01306
9.0109
9.01021
13.8194
11.1986
10.4997
9.33483
9.01627
8.4433
8.27834
7.95276
7.85571
7.65298
7.59413
7.47638
7.43191
7.30754
7.26297
7.14491
7.1033
6.99499
6.95706
6.85898
6.82473
6.7365
6.70574
6.62665
6.59905
6.52802
6.50291
6.43728
6.4114
6.33446
6.26484
6.24507
6.20515
6.19244
6.16317
6.15371
6.13152
6.12436
6.10759
6.1022
6.08967
6.08568
6.07645
6.07354
6.06688
6.06479
6.06013
6.05871
6.05566
6.05481
6.05323
6.05273
6.05159
6.05132
6.05102
6.05113
6.05201
6.05265
6.05522
6.05663
6.06176
6.06441
6.07372
6.07851
6.09526
6.10418
6.136
6.15466
6.22456
6.27757
6.50579
6.85602
7.01813
7.55613
7.83228
8.79331
8.97541
9.00381
9.00869
9.00962
13.524
11.3417
10.4905
9.41987
9.01202
8.48376
8.27266
7.97452
7.85095
7.66649
7.59141
7.48237
7.42577
7.3137
7.25749
7.15096
7.09844
7.00062
6.95272
6.86411
6.82086
6.74114
6.70228
6.6308
6.59592
6.53166
6.49982
6.44001
6.40677
6.33529
6.26995
6.24432
6.20766
6.19147
6.1649
6.15293
6.13284
6.12378
6.10859
6.10178
6.09044
6.08538
6.07703
6.07334
6.06731
6.06468
6.06046
6.05867
6.05591
6.05483
6.05337
6.05273
6.05171
6.05138
6.05112
6.05127
6.05208
6.05289
6.05524
6.05704
6.06173
6.06511
6.07362
6.07974
6.09512
6.10659
6.13616
6.16061
6.22765
6.29867
6.52034
6.84547
7.05316
7.54475
7.88739
8.71767
8.94516
8.9955
9.00663
9.00905
13.3159
11.4315
10.4901
9.47844
9.01261
8.51157
8.27049
7.98933
7.84865
7.67564
7.59007
7.48629
7.42186
7.31764
7.25403
7.15486
7.0954
7.00427
6.95001
6.86744
6.81845
6.74414
6.70013
6.63348
6.59397
6.534
6.49786
6.44169
6.40368
6.33588
6.27348
6.24402
6.20935
6.19091
6.16606
6.15247
6.13371
6.12344
6.10926
6.10154
6.09095
6.08522
6.07742
6.07324
6.06761
6.06462
6.06068
6.05865
6.05608
6.05485
6.05347
6.05275
6.0518
6.05143
6.0512
6.05137
6.05214
6.05307
6.05528
6.05733
6.06174
6.06559
6.07361
6.08058
6.09513
6.10827
6.13651
6.16485
6.23057
6.31373
6.53074
6.83961
7.07682
7.5393
7.92299
8.66613
8.92198
8.98874
9.00491
9.00856
13.1833
11.4836
10.4926
9.51521
9.01465
8.52902
8.26995
7.99855
7.84768
7.68132
7.58948
7.48865
7.41955
7.31997
7.25202
7.15718
7.09363
7.00644
6.94845
6.86943
6.81706
6.74594
6.69889
6.63509
6.59284
6.53539
6.4967
6.44264
6.40179
6.33626
6.27569
6.24393
6.2104
6.19062
6.16676
6.15222
6.13424
6.12325
6.10967
6.10141
6.09126
6.08513
6.07766
6.07319
6.06779
6.0646
6.06082
6.05865
6.05618
6.05487
6.05353
6.05276
6.05186
6.05147
6.05125
6.05143
6.05218
6.05318
6.05531
6.05751
6.06176
6.06589
6.07363
6.08111
6.09519
6.10933
6.13685
6.16758
6.23278
6.32342
6.53745
6.8366
7.09146
7.537
7.94419
8.63406
8.90635
8.98399
9.00367
9.00821
13.1188
11.5075
10.4946
9.53296
9.01614
8.53743
8.26994
8.00298
7.84734
7.68404
7.58927
7.48976
7.41849
7.32106
7.25109
7.15827
7.09283
7.00746
6.94774
6.87036
6.81642
6.74678
6.69832
6.63585
6.59232
6.53604
6.49617
6.44307
6.40089
6.33644
6.27676
6.24392
6.2109
6.1905
6.16709
6.15212
6.13449
6.12318
6.10986
6.10136
6.09141
6.0851
6.07777
6.07316
6.06787
6.06459
6.06089
6.05865
6.05623
6.05488
6.05356
6.05276
6.05189
6.05149
6.05128
6.05147
6.05221
6.05323
6.05533
6.0576
6.06177
6.06603
6.07364
6.08137
6.09523
6.10985
6.13705
6.16892
6.23395
6.32817
6.54074
6.83535
7.09846
7.53622
7.95407
8.61868
8.8985
8.98154
9.00302
9.00802
-12.3255
-10.6141
-9.45038
-8.18505
-7.42172
-6.58546
-6.0611
-5.45655
-5.07375
-4.63205
-4.36465
-4.07013
-3.8568
-3.56388
-3.35523
-3.08132
-2.89135
-2.64815
-2.48151
-2.27057
-2.12686
-1.94591
-1.82294
-1.66842
-1.56325
-1.43062
-1.33871
-1.21914
-1.12599
-0.985857
-0.856915
-0.785892
-0.714141
-0.669339
-0.617142
-0.583106
-0.5421
-0.515113
-0.482374
-0.460817
-0.434675
-0.417508
-0.396765
-0.383211
-0.366941
-0.35641
-0.343931
-0.336035
-0.32698
-0.321583
-0.315787
-0.311733
-0.306361
-0.302683
-0.298062
-0.295002
-0.291288
-0.288881
-0.286027
-0.284223
-0.28216
-0.280954
-0.279756
-0.279382
-0.279699
-0.281327
-0.286071
-0.294954
-0.31763
-0.360644
-0.468537
-0.636722
-0.809022
-1.12271
-1.44936
-1.99478
-2.22537
-2.29388
-2.31161
-2.31574
-12.3942
-10.5923
-9.45463
-8.16512
-7.42478
-6.57312
-6.06444
-5.44779
-5.07621
-4.62517
-4.36583
-4.06697
-3.86006
-3.56058
-3.35791
-3.07802
-2.89354
-2.64514
-2.48333
-2.26792
-2.12839
-1.94363
-1.82423
-1.66647
-1.56436
-1.429
-1.33983
-1.21809
-1.12787
-0.985405
-0.854589
-0.785907
-0.713045
-0.669614
-0.616391
-0.583358
-0.541509
-0.515311
-0.481892
-0.460963
-0.434276
-0.417609
-0.396433
-0.383274
-0.366663
-0.356438
-0.343695
-0.336029
-0.326778
-0.321543
-0.31566
-0.311728
-0.306234
-0.302661
-0.297939
-0.294967
-0.291173
-0.288835
-0.285921
-0.284169
-0.28206
-0.280888
-0.279657
-0.279288
-0.279579
-0.281135
-0.285838
-0.294334
-0.316747
-0.357979
-0.466053
-0.636483
-0.803289
-1.12211
-1.44053
-2.00728
-2.23176
-2.29582
-2.31206
-2.3158
-12.5351
-10.5442
-9.46512
-8.12339
-7.43245
-6.54719
-6.07221
-5.42935
-5.08196
-4.61073
-4.36868
-4.06022
-3.86712
-3.55349
-3.36375
-3.07097
-2.89835
-2.63871
-2.48735
-2.26228
-2.13176
-1.93876
-1.82709
-1.66231
-1.56683
-1.42555
-1.34226
-1.21578
-1.13185
-0.984483
-0.849766
-0.786076
-0.710753
-0.67026
-0.614807
-0.583936
-0.540262
-0.515766
-0.480874
-0.461302
-0.433436
-0.417848
-0.395735
-0.383428
-0.36608
-0.356517
-0.343205
-0.336032
-0.326362
-0.321473
-0.315398
-0.311728
-0.305971
-0.302625
-0.297684
-0.294903
-0.290937
-0.288749
-0.285703
-0.284064
-0.281858
-0.280758
-0.279456
-0.2791
-0.279341
-0.280749
-0.285384
-0.293088
-0.315042
-0.35257
-0.461003
-0.636313
-0.791398
-1.12144
-1.42167
-2.03338
-2.24447
-2.29957
-2.31291
-2.31593
-12.7559
-10.4598
-9.48629
-8.05578
-7.44803
-6.50499
-6.08683
-5.3992
-5.09278
-4.58722
-4.37429
-4.04894
-3.87907
-3.54152
-3.37378
-3.05919
-2.90669
-2.62801
-2.49436
-2.2529
-2.13768
-1.93067
-1.83209
-1.65541
-1.57115
-1.4198
-1.34643
-1.21178
-1.13837
-0.983051
-0.842092
-0.786696
-0.707049
-0.671483
-0.612216
-0.584999
-0.538217
-0.516604
-0.479208
-0.461935
-0.432064
-0.418307
-0.3946
-0.383737
-0.365138
-0.356695
-0.342416
-0.336081
-0.325698
-0.321395
-0.314983
-0.311753
-0.305553
-0.302593
-0.297282
-0.294824
-0.290567
-0.288634
-0.285365
-0.283917
-0.281545
-0.28057
-0.279151
-0.278821
-0.278988
-0.280165
-0.284739
-0.291204
-0.312644
-0.344253
-0.453204
-0.636876
-0.772431
-1.12188
-1.39027
-2.07541
-2.26332
-2.30489
-2.31408
-2.31607
-13.0687
-10.3226
-9.52592
-7.95542
-7.47718
-6.44191
-6.11236
-5.35391
-5.11166
-4.5521
-4.38448
-4.03153
-3.89782
-3.52283
-3.38976
-3.04098
-2.92014
-2.61156
-2.50573
-2.23851
-2.1473
-1.91827
-1.84025
-1.64483
-1.57817
-1.41094
-1.35307
-1.20533
-1.14816
-0.98104
-0.830984
-0.788273
-0.701564
-0.673634
-0.608318
-0.586818
-0.535135
-0.518041
-0.476701
-0.463035
-0.430007
-0.419121
-0.392907
-0.38431
-0.36374
-0.357057
-0.341258
-0.33624
-0.324737
-0.321346
-0.314383
-0.311839
-0.304946
-0.302596
-0.296705
-0.294756
-0.290041
-0.28851
-0.284891
-0.283743
-0.281111
-0.280334
-0.278736
-0.278455
-0.278529
-0.279379
-0.28395
-0.288652
-0.309771
-0.332774
-0.442346
-0.63929
-0.744832
-1.12548
-1.34212
-2.13723
-2.28793
-2.31142
-2.31544
-2.31621
-13.4916
-10.1076
-9.59668
-7.81151
-7.52874
-6.35074
-6.15516
-5.28808
-5.14334
-4.5014
-4.40218
-4.00543
-3.92629
-3.49454
-3.41443
-3.01371
-2.94116
-2.58705
-2.5236
-2.21711
-2.16247
-1.89986
-1.85314
-1.62912
-1.58924
-1.39772
-1.36331
-1.19527
-1.16236
-0.978343
-0.815572
-0.791597
-0.693709
-0.677261
-0.602643
-0.589819
-0.53064
-0.520417
-0.473053
-0.464874
-0.427026
-0.420509
-0.390466
-0.385319
-0.361741
-0.357737
-0.339618
-0.336608
-0.323398
-0.321386
-0.313552
-0.312045
-0.304101
-0.302684
-0.295912
-0.29474
-0.289328
-0.288409
-0.284256
-0.283566
-0.28054
-0.280068
-0.278205
-0.278012
-0.277973
-0.278379
-0.283091
-0.285378
-0.306757
-0.317766
-0.427923
-0.645287
-0.706155
-1.13557
-1.27074
-2.22474
-2.31753
-2.31863
-2.31684
-2.31628
-14.0501
-9.77792
-9.71856
-7.60764
-7.61626
-6.22039
-6.22494
-5.19346
-5.19501
-4.42907
-4.43186
-3.9667
-3.96895
-3.45224
-3.452
-2.97337
-2.9735
-2.55095
-2.55124
-2.18568
-2.18599
-1.87284
-1.87314
-1.60606
-1.60639
-1.37823
-1.3789
-1.17981
-1.1826
-0.974792
-0.794595
-0.797865
-0.682578
-0.683197
-0.594473
-0.594651
-0.524158
-0.524251
-0.467804
-0.467867
-0.422754
-0.4228
-0.386988
-0.387022
-0.358913
-0.358936
-0.337326
-0.337335
-0.321561
-0.321608
-0.312416
-0.312455
-0.302941
-0.302931
-0.294839
-0.294838
-0.288378
-0.28838
-0.283424
-0.283424
-0.279808
-0.279798
-0.277546
-0.277502
-0.277338
-0.277146
-0.282267
-0.281278
-0.304093
-0.298728
-0.409147
-0.657475
-0.652666
-1.15735
-1.16653
-2.34661
-2.35072
-2.32586
-2.31811
-2.31624
-14.7796
-9.27983
-9.92264
-7.31911
-7.76007
-6.03412
-6.33626
-5.05761
-5.27748
-4.32607
-4.48034
-3.90935
-4.03244
-3.38935
-3.50876
-2.91392
-3.02279
-2.49799
-2.59355
-2.13965
-2.22209
-1.8333
-1.90386
-1.57232
-1.6327
-1.3496
-1.4025
-1.15628
-1.21127
-0.970132
-0.766268
-0.808864
-0.666794
-0.69269
-0.582725
-0.602288
-0.514826
-0.53032
-0.460264
-0.472636
-0.41664
-0.426492
-0.382037
-0.389814
-0.354918
-0.360959
-0.334124
-0.33865
-0.319044
-0.322154
-0.310863
-0.3132
-0.30135
-0.303453
-0.293391
-0.295143
-0.287117
-0.288496
-0.28234
-0.283372
-0.278876
-0.279563
-0.276743
-0.276941
-0.276649
-0.275643
-0.28163
-0.276169
-0.302499
-0.275001
-0.384795
-0.679725
-0.578736
-1.19887
-1.01542
-2.51544
-2.38498
-2.33233
-2.31906
-2.31605
-15.7294
-8.53617
-10.2567
-6.9089
-7.99068
-5.76681
-6.51092
-4.86189
-5.40687
-4.17891
-4.5579
-3.82429
-4.12664
-3.296
-3.59415
-2.82637
-3.09748
-2.42024
-2.65788
-2.07219
-2.27707
-1.77542
-1.95069
-1.52292
-1.67276
-1.30753
-1.43807
-1.12069
-1.2518
-0.963978
-0.72807
-0.827241
-0.644275
-0.707604
-0.565775
-0.614189
-0.501352
-0.539789
-0.449399
-0.480115
-0.407863
-0.432327
-0.374964
-0.394281
-0.34925
-0.364262
-0.32963
-0.340893
-0.315579
-0.323236
-0.308724
-0.314472
-0.299159
-0.304419
-0.291426
-0.295795
-0.285434
-0.288869
-0.280922
-0.283496
-0.27769
-0.279421
-0.275772
-0.276352
-0.275939
-0.273813
-0.281402
-0.269741
-0.303009
-0.245734
-0.352988
-0.717757
-0.475908
-1.27248
-0.79692
-2.74941
-2.41606
-2.33716
-2.31953
-2.31566
-16.9671
-7.43617
-10.7937
-6.32167
-8.35368
-5.38093
-6.78144
-4.57853
-5.60731
-3.96757
-4.68008
-3.69788
-4.26625
-3.15758
-3.72225
-2.69733
-3.21017
-2.30595
-2.7552
-1.97315
-2.36035
-1.69048
-2.02168
-1.45044
-1.73345
-1.24565
-1.49158
-1.06718
-1.30909
-0.955745
-0.676452
-0.856892
-0.611881
-0.730705
-0.541186
-0.632513
-0.481792
-0.554379
-0.43365
-0.491675
-0.39517
-0.441391
-0.364773
-0.401273
-0.341125
-0.369498
-0.323242
-0.344541
-0.310733
-0.325145
-0.30571
-0.316524
-0.29608
-0.30605
-0.2887
-0.29697
-0.28313
-0.289629
-0.279012
-0.283885
-0.276129
-0.279423
-0.274558
-0.27573
-0.275223
-0.271521
-0.281869
-0.26144
-0.307065
-0.20981
-0.310802
-0.779969
-0.331462
-1.39689
-0.481207
-3.07471
-2.43685
-2.33943
-2.31935
-2.315
16.967
7.43625
10.7938
6.32173
8.35372
5.38099
6.78149
4.57859
5.60736
3.96762
4.68013
3.69793
4.2663
3.15764
3.7223
2.6974
3.21022
2.30602
2.75526
1.97322
2.36041
1.69056
2.02175
1.45052
1.73352
1.24572
1.49165
1.06725
1.30916
0.955812
0.676503
0.856952
0.611923
0.730755
0.54122
0.632554
0.48182
0.554413
0.433672
0.491702
0.395188
0.441413
0.364787
0.40129
0.341137
0.369512
0.323251
0.344552
0.31074
0.325153
0.305717
0.316532
0.296085
0.306056
0.288703
0.296975
0.283133
0.289633
0.279014
0.283888
0.276131
0.279425
0.274559
0.275731
0.275223
0.271522
0.281866
0.26144
0.307058
0.209805
0.310787
0.77997
0.331433
1.39694
0.481169
3.07495
2.43703
2.33959
2.3195
2.31513
15.7293
8.53623
10.2567
6.90894
7.99071
5.76685
6.51095
4.86193
5.40691
4.17895
4.55794
3.82433
4.12668
3.29605
3.59419
2.82643
3.09753
2.4203
2.65793
2.07225
2.27713
1.77549
1.95076
1.523
1.67283
1.30761
1.43814
1.12076
1.25187
0.964046
0.728124
0.827301
0.644321
0.707655
0.565813
0.614231
0.501385
0.539825
0.449427
0.480146
0.407886
0.432352
0.374984
0.394303
0.349267
0.364281
0.329646
0.340909
0.315592
0.323251
0.308736
0.314486
0.299171
0.304431
0.291437
0.295806
0.285444
0.28888
0.280931
0.283506
0.277698
0.279431
0.27578
0.27636
0.275946
0.273821
0.281407
0.269747
0.30301
0.245736
0.352984
0.717764
0.475899
1.27254
0.796927
2.74963
2.41624
2.33734
2.31971
2.3158
14.7796
9.27987
9.92265
7.31913
7.76009
6.03415
6.33629
5.05764
5.27751
4.3261
4.48038
3.90938
4.03247
3.38938
3.5088
2.91397
3.02284
2.49804
2.5936
2.13971
2.22215
1.83337
1.90393
1.57239
1.63276
1.34967
1.40257
1.15634
1.21134
0.970198
0.766322
0.808921
0.666841
0.692739
0.582765
0.60233
0.51486
0.530356
0.460293
0.472667
0.416666
0.426519
0.38206
0.389838
0.354938
0.36098
0.334143
0.338669
0.319061
0.322171
0.310879
0.313216
0.301365
0.303468
0.293405
0.295157
0.28713
0.28851
0.282352
0.283385
0.278888
0.279575
0.276755
0.276953
0.276659
0.275654
0.281638
0.276179
0.302505
0.275006
0.384797
0.679735
0.578739
1.19892
1.01546
2.51564
2.38517
2.33251
2.31925
2.31622
14.0501
9.77795
9.71857
7.60767
7.61628
6.22042
6.22497
5.1935
5.19505
4.42911
4.4319
3.96674
3.96899
3.45228
3.45204
2.97341
2.97355
2.55101
2.55129
2.18574
2.18606
1.8729
1.87321
1.60613
1.60646
1.3783
1.37897
1.17988
1.18267
0.974855
0.794649
0.79792
0.682624
0.683244
0.594512
0.59469
0.524191
0.524284
0.467831
0.467895
0.422777
0.422824
0.387008
0.387042
0.35893
0.358953
0.337341
0.33735
0.321574
0.321622
0.312429
0.312467
0.302951
0.302942
0.294849
0.294848
0.288387
0.288389
0.283433
0.283432
0.279816
0.279806
0.277554
0.277509
0.277345
0.277152
0.282271
0.281283
0.304094
0.298728
0.409146
0.65748
0.652671
1.15739
1.16658
2.34679
2.35089
2.32603
2.3183
2.31642
13.4916
10.1077
9.5967
7.81154
7.52878
6.35078
6.1552
5.28813
5.14339
4.50144
4.40222
4.00547
3.92634
3.49458
3.41448
3.01376
2.94121
2.5871
2.52366
2.21718
2.16253
1.89992
1.85321
1.62919
1.58931
1.3978
1.36338
1.19534
1.16242
0.978405
0.815626
0.791651
0.693755
0.677307
0.602682
0.589857
0.530672
0.520448
0.473079
0.4649
0.427047
0.42053
0.390484
0.385336
0.361755
0.357751
0.33963
0.33662
0.323408
0.321396
0.313562
0.312054
0.304109
0.302691
0.295918
0.294747
0.289334
0.288415
0.284261
0.283571
0.280545
0.280072
0.278209
0.278016
0.277976
0.278382
0.283092
0.285379
0.306754
0.317763
0.427919
0.645288
0.70616
1.13561
1.27079
2.2249
2.3177
2.31879
2.31702
2.31646
13.0687
10.3226
9.52595
7.95546
7.47722
6.44196
6.11241
5.35396
5.11171
4.55215
4.38453
4.03158
3.89787
3.52288
3.38981
3.04103
2.9202
2.61162
2.50579
2.23857
2.14736
1.91834
1.84032
1.6449
1.57825
1.41102
1.35314
1.2054
1.14823
0.981103
0.83104
0.788327
0.70161
0.673679
0.608357
0.586855
0.535166
0.518071
0.476726
0.463059
0.430028
0.419141
0.392924
0.384326
0.363754
0.35707
0.341269
0.336251
0.324745
0.321354
0.314391
0.311846
0.304952
0.302602
0.29671
0.294761
0.290045
0.288514
0.284894
0.283746
0.281113
0.280336
0.278738
0.278457
0.278529
0.279379
0.283949
0.28865
0.309767
0.332769
0.44234
0.63929
0.744838
1.12552
1.34217
2.13737
2.28809
2.31158
2.31561
2.31639
12.7559
10.4598
9.48633
8.05583
7.44808
6.50504
6.08689
5.39925
5.09283
4.58727
4.37434
4.04899
3.87912
3.54157
3.37383
3.05924
2.90675
2.62807
2.49442
2.25296
2.13774
1.93074
1.83217
1.65548
1.57122
1.41988
1.34651
1.21185
1.13844
0.983114
0.842149
0.786751
0.707097
0.671528
0.612255
0.585036
0.538249
0.516633
0.479233
0.461959
0.432085
0.418326
0.394617
0.383753
0.365151
0.356707
0.342427
0.336091
0.325706
0.321403
0.314989
0.311759
0.305558
0.302598
0.297286
0.294828
0.29057
0.288637
0.285368
0.283919
0.281546
0.280571
0.279152
0.278821
0.278988
0.280164
0.284737
0.291201
0.31264
0.344248
0.453198
0.636876
0.772439
1.12192
1.39033
2.07554
2.26347
2.30505
2.31424
2.31625
12.5351
10.5442
9.46516
8.12344
7.4325
6.54724
6.07227
5.4294
5.08202
4.61078
4.36873
4.06027
3.86717
3.55355
3.3638
3.07103
2.89841
2.63877
2.48741
2.26235
2.13183
1.93883
1.82716
1.66238
1.56691
1.42563
1.34234
1.21585
1.13192
0.984547
0.849825
0.786131
0.710802
0.670305
0.614848
0.583973
0.540295
0.515796
0.480901
0.461326
0.433458
0.417868
0.395753
0.383444
0.366094
0.35653
0.343216
0.336042
0.32637
0.321482
0.315405
0.311734
0.305977
0.302631
0.297689
0.294907
0.290941
0.288753
0.285706
0.284067
0.28186
0.280759
0.279457
0.2791
0.279341
0.280748
0.285382
0.293086
0.315038
0.352565
0.460998
0.636314
0.791409
1.12148
1.42174
2.03351
2.24462
2.29973
2.31306
2.3161
12.3942
10.5923
9.45466
8.16517
7.42483
6.57317
6.06449
5.44784
5.07626
4.62522
4.36588
4.06702
3.86012
3.56064
3.35796
3.07808
2.8936
2.6452
2.4834
2.26799
2.12846
1.9437
1.82431
1.66654
1.56444
1.42908
1.3399
1.21816
1.12795
0.985469
0.854649
0.785963
0.713094
0.66966
0.616432
0.583396
0.541543
0.515343
0.48192
0.460988
0.434299
0.41763
0.396451
0.383291
0.366678
0.356452
0.343708
0.33604
0.326789
0.321553
0.315669
0.311736
0.306241
0.302668
0.297944
0.294973
0.291178
0.28884
0.285925
0.284173
0.282064
0.280891
0.279659
0.27929
0.27958
0.281135
0.285837
0.294333
0.316745
0.357976
0.46605
0.636487
0.803303
1.12215
1.4406
2.00741
2.23191
2.29598
2.31221
2.31597
12.3255
10.614
9.45042
8.18509
7.42177
6.58551
6.06115
5.4566
5.0738
4.6321
4.3647
4.07018
3.85685
3.56393
3.35528
3.08137
2.89141
2.64821
2.48158
2.27064
2.12693
1.94599
1.82302
1.66849
1.56332
1.43069
1.33879
1.21921
1.12606
0.985922
0.856977
0.785949
0.714192
0.669386
0.617184
0.583145
0.542135
0.515146
0.482403
0.460843
0.434699
0.41753
0.396785
0.38323
0.366957
0.356425
0.343944
0.336048
0.326991
0.321594
0.315796
0.311742
0.306369
0.302691
0.298069
0.295009
0.291294
0.288886
0.286032
0.284228
0.282165
0.280958
0.27976
0.279385
0.279701
0.281329
0.286072
0.294954
0.317629
0.360643
0.468536
0.636728
0.809039
1.12275
1.44944
1.99491
2.22553
2.29404
2.31175
2.3159
-13.1218
-11.5118
-10.5005
-9.54203
-9.02885
-8.5572
-8.29782
-8.04645
-7.90757
-7.77135
-7.67801
-7.55519
-7.46907
-7.35738
-7.27974
-7.17982
-7.11046
-7.02128
-6.95938
-6.87977
-6.82452
-6.75348
-6.70417
-6.64076
-6.59667
-6.53974
-6.49945
-6.44586
-6.40334
-6.33839
-6.27829
-6.24523
-6.21199
-6.19147
-6.16792
-6.15284
-6.13511
-6.12372
-6.11032
-6.10176
-6.09175
-6.08539
-6.07802
-6.07337
-6.06804
-6.06473
-6.061
-6.05874
-6.0563
-6.05493
-6.0536
-6.0528
-6.05192
-6.05151
-6.05129
-6.05147
-6.05221
-6.05323
-6.05532
-6.05759
-6.06177
-6.06603
-6.07364
-6.08137
-6.09523
-6.10985
-6.13707
-6.16894
-6.234
-6.32824
-6.54086
-6.83553
-7.09868
-7.5365
-7.9544
-8.61907
-8.89892
-8.98196
-9.00345
-9.00845
-13.1863
-11.4879
-10.4984
-9.52426
-9.02723
-8.54874
-8.29753
-8.04198
-7.90749
-7.76966
-7.67921
-7.55375
-7.47011
-7.35603
-7.28064
-7.17861
-7.11127
-7.0202
-6.9601
-6.8788
-6.82516
-6.75261
-6.70474
-6.64
-6.59718
-6.53908
-6.49999
-6.44542
-6.40424
-6.33821
-6.27721
-6.24524
-6.21149
-6.19159
-6.16758
-6.15295
-6.13486
-6.1238
-6.11013
-6.10182
-6.0916
-6.08543
-6.0779
-6.07339
-6.06795
-6.06474
-6.06093
-6.05874
-6.05625
-6.05492
-6.05357
-6.05279
-6.05189
-6.05149
-6.05127
-6.05144
-6.05218
-6.05317
-6.0553
-6.0575
-6.06175
-6.06588
-6.07362
-6.08111
-6.09519
-6.10934
-6.13687
-6.16761
-6.23282
-6.32349
-6.53757
-6.83678
-7.09168
-7.53728
-7.94452
-8.63445
-8.90677
-8.98441
-9.0041
-9.00864
-13.3188
-11.4357
-10.4958
-9.48745
-9.02491
-8.53123
-8.29745
-8.0327
-7.90757
-7.76609
-7.68184
-7.55065
-7.47239
-7.35316
-7.28263
-7.17602
-7.11303
-7.01789
-6.96167
-6.87674
-6.82656
-6.75077
-6.70599
-6.63836
-6.59832
-6.53766
-6.50115
-6.44446
-6.40614
-6.33782
-6.27498
-6.24533
-6.21043
-6.19188
-6.16687
-6.1532
-6.13432
-6.12399
-6.10972
-6.10195
-6.09128
-6.08551
-6.07766
-6.07345
-6.06777
-6.06476
-6.06079
-6.05874
-6.05615
-6.05491
-6.05351
-6.05278
-6.05183
-6.05145
-6.05121
-6.05137
-6.05214
-6.05306
-6.05527
-6.05732
-6.06173
-6.06558
-6.0736
-6.08058
-6.09514
-6.10828
-6.13653
-6.16488
-6.23062
-6.3138
-6.53086
-6.83979
-7.07705
-7.53959
-7.92331
-8.66652
-8.9224
-8.98917
-9.00534
-9.00899
-13.5267
-11.3459
-10.4959
-9.42886
-9.02387
-8.50335
-8.29864
-8.01785
-7.90833
-7.76027
-7.68636
-7.54545
-7.47633
-7.34835
-7.28607
-7.17171
-7.1161
-7.01403
-6.9644
-6.87329
-6.82899
-6.74769
-6.70816
-6.63562
-6.60029
-6.53529
-6.50312
-6.44277
-6.40925
-6.33723
-6.27143
-6.24563
-6.20873
-6.19244
-6.16571
-6.15366
-6.13345
-6.12433
-6.10905
-6.10219
-6.09077
-6.08568
-6.07727
-6.07355
-6.06748
-6.06482
-6.06057
-6.05876
-6.05598
-6.05489
-6.05341
-6.05277
-6.05174
-6.0514
-6.05113
-6.05127
-6.05208
-6.05289
-6.05524
-6.05704
-6.06172
-6.0651
-6.07362
-6.07973
-6.09513
-6.1066
-6.13618
-6.16064
-6.2277
-6.29873
-6.52046
-6.84565
-7.05338
-7.54503
-7.88772
-8.71807
-8.94559
-8.99593
-9.00706
-9.00948
-13.8219
-11.2028
-10.5048
-9.34382
-9.0275
-8.46288
-8.3029
-7.99619
-7.91067
-7.7515
-7.69359
-7.5374
-7.48263
-7.34093
-7.29162
-7.16505
-7.12103
-7.00808
-6.96879
-6.86797
-6.83291
-6.74294
-6.71165
-6.6314
-6.60344
-6.53161
-6.50623
-6.44
-6.41391
-6.33639
-6.26628
-6.24638
-6.20621
-6.19342
-6.16397
-6.15445
-6.13213
-6.12492
-6.10804
-6.10262
-6.09
-6.08598
-6.07669
-6.07375
-6.06704
-6.06494
-6.06024
-6.05881
-6.05573
-6.05487
-6.05327
-6.05277
-6.05161
-6.05134
-6.05103
-6.05113
-6.05201
-6.05265
-6.05521
-6.05662
-6.06175
-6.0644
-6.07372
-6.0785
-6.09526
-6.10418
-6.13602
-6.15469
-6.22461
-6.27763
-6.50591
-6.8562
-7.01835
-7.55642
-7.8326
-8.79372
-8.97584
-9.00424
-9.00912
-9.01005
-14.2219
-10.983
-10.5323
-9.22504
-9.04109
-8.40625
-8.31306
-7.9657
-7.91597
-7.7387
-7.70478
-7.52532
-7.49244
-7.32983
-7.30027
-7.1551
-7.12873
-6.9992
-6.97566
-6.86004
-6.83903
-6.73585
-6.71711
-6.62509
-6.60836
-6.52607
-6.51098
-6.43564
-6.42063
-6.33526
-6.25913
-6.24795
-6.20259
-6.19506
-6.16143
-6.15576
-6.1302
-6.1259
-6.10657
-6.10333
-6.08888
-6.08648
-6.07585
-6.07409
-6.0664
-6.06515
-6.05977
-6.05891
-6.05539
-6.05488
-6.05308
-6.05278
-6.05144
-6.05127
-6.0509
-6.05096
-6.05194
-6.05231
-6.05522
-6.05605
-6.06187
-6.06343
-6.07398
-6.07679
-6.0957
-6.10084
-6.13638
-6.14667
-6.22218
-6.24951
-6.48646
-6.87427
-6.96826
-7.57828
-7.75007
-8.90052
-9.01223
-9.01349
-9.01132
-9.01064
-14.7516
-10.6517
-10.5941
-9.06135
-9.07276
-8.32799
-8.33342
-7.92334
-7.9264
-7.7202
-7.72181
-7.50739
-7.50745
-7.31342
-7.31355
-7.14042
-7.14056
-6.98608
-6.98622
-6.84832
-6.84844
-6.72539
-6.72551
-6.61578
-6.61591
-6.51785
-6.51814
-6.42888
-6.43016
-6.33377
-6.24939
-6.25089
-6.19747
-6.19776
-6.15777
-6.15786
-6.12743
-6.12748
-6.10445
-6.10448
-6.08728
-6.0873
-6.07464
-6.07466
-6.06551
-6.06552
-6.05911
-6.05912
-6.05492
-6.05493
-6.05282
-6.05282
-6.05121
-6.0512
-6.05074
-6.05073
-6.05189
-6.05187
-6.0553
-6.05527
-6.06215
-6.06209
-6.07455
-6.07441
-6.09668
-6.09628
-6.13773
-6.13604
-6.22168
-6.21299
-6.46098
-6.90407
-6.89753
-7.61765
-7.62838
-9.04885
-9.05302
-9.02285
-9.01346
-9.01119
-15.4453
-10.1587
-10.715
-8.83594
-9.1347
-8.21974
-8.37043
-7.86447
-7.94522
-7.6934
-7.74749
-7.48089
-7.53025
-7.28926
-7.33379
-7.11881
-7.15859
-6.96679
-7.0023
-6.83109
-6.86278
-6.71001
-6.7383
-6.60208
-6.62739
-6.5057
-6.52889
-6.41849
-6.44361
-6.33181
-6.23621
-6.25604
-6.1902
-6.20207
-6.15251
-6.16118
-6.12344
-6.12998
-6.10141
-6.10633
-6.08499
-6.08864
-6.07293
-6.0756
-6.06424
-6.06615
-6.05819
-6.05949
-6.05427
-6.05506
-6.05246
-6.05293
-6.05091
-6.05114
-6.05056
-6.05045
-6.05187
-6.05128
-6.05552
-6.05421
-6.0627
-6.06023
-6.07561
-6.07113
-6.09855
-6.09002
-6.1408
-6.1219
-6.22493
-6.1662
-6.42768
-6.95186
-6.79772
-7.68538
-7.45029
-9.25382
-9.09518
-9.03138
-9.01529
-9.01164
-16.3506
-9.43204
-10.9332
-8.52343
-9.24523
-8.06889
-8.43372
-7.78215
-7.97736
-7.65438
-7.78603
-7.44178
-7.56467
-7.25368
-7.36441
-7.08702
-7.1859
-6.93841
-7.02666
-6.80574
-6.88451
-6.68739
-6.75768
-6.58191
-6.64475
-6.48777
-6.54499
-6.40269
-6.46255
-6.3292
-6.21843
-6.26461
-6.17983
-6.20884
-6.14493
-6.16636
-6.11767
-6.13388
-6.09703
-6.10922
-6.08169
-6.09074
-6.07047
-6.07709
-6.06244
-6.06716
-6.0569
-6.06011
-6.05337
-6.05531
-6.05198
-6.05312
-6.05051
-6.0511
-6.05035
-6.0501
-6.05193
-6.05049
-6.05595
-6.05274
-6.06368
-6.05766
-6.07746
-6.06657
-6.10186
-6.08139
-6.14665
-6.10288
-6.23465
-6.10659
-6.38386
-7.02676
-6.65623
-7.79802
-7.19065
-9.53727
-9.13353
-9.03798
-9.01662
-9.01193
-17.5327
-8.36866
-11.308
-8.0857
-9.43172
-7.85642
-8.53771
-7.66599
-8.03026
-7.5972
-7.84363
-7.38399
-7.61647
-7.20126
-7.41057
-7.04019
-7.22707
-6.89661
-7.0634
-6.76842
-6.91728
-6.65408
-6.78691
-6.55221
-6.67091
-6.46127
-6.56908
-6.37881
-6.48921
-6.32569
-6.19437
-6.27843
-6.16491
-6.21933
-6.13393
-6.17435
-6.10931
-6.13991
-6.09069
-6.1137
-6.07692
-6.09401
-6.06694
-6.07942
-6.05986
-6.06876
-6.05505
-6.06112
-6.05212
-6.05577
-6.05131
-6.05346
-6.04997
-6.05111
-6.05011
-6.04966
-6.0521
-6.04941
-6.05671
-6.0507
-6.06532
-6.05404
-6.08053
-6.06015
-6.10738
-6.06932
-6.15685
-6.07683
-6.25475
-6.03075
-6.3254
-7.14219
-6.45423
-7.98061
-6.81283
-9.93072
-9.15954
-9.04161
-9.01726
-9.01202
)
;

boundaryField
{
    F1_1
    {
        type            calculated;
        value           nonuniform List<scalar> 
80
(
18.2028
7.73204
11.5434
7.81744
9.54784
7.70509
8.60229
7.53783
8.06579
7.39302
7.71309
7.33929
7.58115
7.15921
7.40177
7.00316
7.22956
6.86455
7.07096
6.74066
6.92699
6.62998
6.79732
6.53121
6.68135
6.44288
6.57952
6.36245
6.50164
6.32191
6.17969
6.28537
6.15536
6.22452
6.12684
6.1783
6.10393
6.14289
6.08661
6.11591
6.07388
6.09562
6.0647
6.08058
6.05824
6.06956
6.05391
6.06162
6.05136
6.05599
6.05089
6.05361
6.04965
6.05109
6.04998
6.0494
6.05223
6.04878
6.0572
6.04951
6.06635
6.05193
6.08243
6.05639
6.1108
6.06227
6.16324
6.06172
6.26791
5.9883
6.2918
7.21176
6.33516
8.09278
6.58875
10.1591
9.16769
9.04211
9.01697
9.01158
)
;
    }
    F1_2
    {
        type            calculated;
        value           nonuniform List<scalar> 
80
(
-17.6678
-6.78077
-11.124
-5.97551
-8.57511
-5.15272
-6.94555
-4.41079
-5.7289
-3.84287
-4.75465
-3.6223
-4.34962
-3.07492
-3.7991
-2.62045
-3.27791
-2.23791
-2.81375
-1.91421
-2.41048
-1.63996
-2.06442
-1.40732
-1.76998
-1.2088
-1.52371
-1.03506
-1.34265
-0.95102
-0.646769
-0.875115
-0.592744
-0.744714
-0.526616
-0.643602
-0.470198
-0.56321
-0.424318
-0.498677
-0.387656
-0.44689
-0.358746
-0.405524
-0.336328
-0.372694
-0.319481
-0.346786
-0.307897
-0.326346
-0.303939
-0.31778
-0.294272
-0.307062
-0.287105