/*--------------------------------*- C++ -*----------------------------------*\
| =========                 |                                                 |
| \\      /  F ield         | OpenFOAM: The Open Source CFD Toolbox           |
|  \\    /   O peration     | Version:  5.x                                   |
|   \\  /    A nd           | Web:      www.OpenFOAM.org                      |
|    \\/     M anipulation  |                                                 |
\*---------------------------------------------------------------------------*/
FoamFile
{
    version     2.0;
    format      ascii;
    class       volScalarField;
    location    "1.6";
    object      T;
}
// * * * * * * * * * * * * * * * * * * * * * * * * * * * * * * * * * * * * * //

dimensions      [0 0 0 1 0 0 0];

internalField   nonuniform List<scalar> 
3200
(
2.13844
2.47332
2.49237
2.62946
2.63811
2.70576
2.71025
2.74891
2.75155
2.77574
2.77734
2.79118
2.79239
2.80735
2.80856
2.82273
2.82386
2.83685
2.83789
2.84965
2.85058
2.86116
2.86199
2.87148
2.87223
2.88074
2.88142
2.88924
2.88994
2.89836
2.90578
2.9063
2.91104
2.91138
2.91488
2.91514
2.9178
2.91799
2.92
2.92015
2.92165
2.92176
2.92286
2.92294
2.92374
2.9238
2.92435
2.92439
2.92476
2.92478
2.92497
2.92498
2.92512
2.92513
2.92516
2.92516
2.92506
2.92504
2.92473
2.9247
2.92409
2.92401
2.92291
2.92278
2.92079
2.92055
2.91681
2.9163
2.90827
2.90687
2.88427
2.84495
2.84056
2.77675
2.76923
2.64981
2.64485
2.64422
2.6441
2.64407
2.30707
2.56327
2.60308
2.71277
2.73122
2.78534
2.7949
2.82573
2.83134
2.85057
2.85398
2.86508
2.86765
2.87949
2.88206
2.89328
2.89568
2.90598
2.90816
2.91749
2.91946
2.92785
2.92962
2.93714
2.93873
2.94548
2.94693
2.95315
2.95465
2.96162
2.96785
2.96899
2.97277
2.9735
2.97628
2.97683
2.97894
2.97935
2.98094
2.98125
2.98244
2.98267
2.98355
2.98372
2.98435
2.98447
2.98491
2.985
2.98529
2.98534
2.98548
2.98551
2.98562
2.98564
2.98567
2.98566
2.98558
2.98554
2.9853
2.98522
2.98473
2.98458
2.98369
2.98342
2.98183
2.98131
2.97831
2.97722
2.97068
2.9676
2.94786
2.91567
2.90629
2.85542
2.83959
2.74682
2.73636
2.73463
2.73426
2.73419
2.46544
2.66186
2.71099
2.79972
2.82291
2.86669
2.8787
2.90355
2.91059
2.92604
2.93031
2.93931
2.94254
2.952
2.95521
2.96419
2.96719
2.97542
2.97816
2.98562
2.98809
2.9948
2.99702
3.00304
3.00503
3.01043
3.01225
3.01725
3.01913
3.02491
3.03012
3.03157
3.03462
3.03554
3.03777
3.03845
3.04014
3.04066
3.04193
3.04232
3.04328
3.04357
3.04427
3.04448
3.04499
3.04514
3.04549
3.04559
3.04582
3.04589
3.04601
3.04604
3.04613
3.04615
3.04617
3.04616
3.0461
3.04605
3.04585
3.04575
3.04536
3.04517
3.04446
3.04411
3.04283
3.04218
3.03974
3.03836
3.03296
3.029
3.01195
2.98548
2.97369
2.9327
2.91303
2.84054
2.82751
2.82497
2.82442
2.8243
2.61595
2.76635
2.81731
2.88929
2.91377
2.94932
2.96199
2.98208
2.9895
3.00195
3.00645
3.01378
3.01718
3.02476
3.02813
3.03533
3.03848
3.04509
3.04796
3.05395
3.05654
3.06193
3.06426
3.06909
3.07119
3.07553
3.07744
3.08147
3.08346
3.08822
3.09255
3.09408
3.09655
3.09752
3.09932
3.10004
3.10139
3.10194
3.10296
3.10337
3.10414
3.10444
3.105
3.10523
3.10563
3.10579
3.10608
3.10618
3.10637
3.10644
3.10653
3.10657
3.10664
3.10666
3.10668
3.10667
3.10661
3.10657
3.10641
3.1063
3.10598
3.10578
3.10521
3.10484
3.1038
3.10311
3.10113
3.09966
3.09518
3.09092
3.07641
3.0547
3.04225
3.00913
2.98859
2.93189
2.91825
2.91524
2.91456
2.91441
2.76043
2.87481
2.92279
2.98076
3.00418
3.03285
3.04497
3.06112
3.0682
3.07817
3.08248
3.0884
3.09165
3.09768
3.10089
3.10663
3.10963
3.1149
3.11764
3.12242
3.12489
3.12919
3.13141
3.13526
3.13725
3.14072
3.14254
3.14578
3.14768
3.15155
3.15508
3.15656
3.15855
3.15948
3.16091
3.16159
3.16268
3.1632
3.16402
3.1644
3.16502
3.16531
3.16576
3.16597
3.16629
3.16644
3.16667
3.16677
3.16692
3.16698
3.16706
3.1671
3.16715
3.16717
3.16719
3.16718
3.16713
3.16709
3.16696
3.16686
3.1666
3.16641
3.16595
3.1656
3.16476
3.1641
3.16249
3.16108
3.15739
3.15326
3.14116
3.12356
3.11163
3.08505
3.0656
3.02151
3.00856
3.00542
3.00468
3.00452
2.90034
2.98593
3.02786
3.07361
3.09438
3.11705
3.1278
3.14052
3.14679
3.15462
3.15844
3.16313
3.166
3.17072
3.17356
3.17804
3.1807
3.18482
3.18724
3.19098
3.19316
3.19652
3.19849
3.2015
3.20326
3.20598
3.20759
3.21013
3.21183
3.21489
3.2177
3.21902
3.22058
3.22141
3.22253
3.22314
3.22399
3.22444
3.22509
3.22543
3.22591
3.22616
3.22652
3.2267
3.22696
3.22709
3.22727
3.22736
3.22748
3.22753
3.22759
3.22763
3.22767
3.22769
3.2277
3.22769
3.22765
3.22761
3.22751
3.22742
3.22722
3.22705
3.22669
3.22638
3.22572
3.22513
3.22385
3.22259
3.21962
3.21591
3.20614
3.19218
3.18161
3.16068
3.14359
3.10989
3.09849
3.09551
3.09478
3.09461
3.03682
3.09879
3.13278
3.16746
3.18451
3.20172
3.21054
3.22017
3.22532
3.23123
3.23436
3.23793
3.24028
3.24383
3.24615
3.24953
3.2517
3.2548
3.25678
3.2596
3.26138
3.26392
3.26552
3.26779
3.26924
3.27128
3.2726
3.27452
3.27591
3.27824
3.28038
3.28146
3.28265
3.28332
3.28417
3.28467
3.28531
3.28568
3.28617
3.28645
3.28681
3.28702
3.28729
3.28744
3.28763
3.28774
3.28787
3.28795
3.28804
3.28808
3.28813
3.28815
3.28819
3.2882
3.28821
3.2882
3.28817
3.28814
3.28806
3.28799
3.28784
3.2877
3.28742
3.28717
3.28667
3.28619
3.28521
3.28417
3.28188
3.27881
3.27128
3.26068
3.252
3.23617
3.22224
3.19738
3.18807
3.1855
3.18486
3.18471
3.17082
3.21276
3.23767
3.26201
3.27462
3.28672
3.29325
3.30001
3.30381
3.30795
3.31026
3.31278
3.31452
3.31699
3.31871
3.32106
3.32266
3.32483
3.32629
3.32826
3.32958
3.33135
3.33253
3.33412
3.33518
3.33661
3.33759
3.33893
3.33996
3.34159
3.3431
3.3439
3.34474
3.34524
3.34583
3.3462
3.34664
3.34692
3.34726
3.34747
3.34772
3.34787
3.34806
3.34817
3.3483
3.34839
3.34848
3.34853
3.3486
3.34863
3.34866
3.34868
3.3487
3.34871
3.34872
3.34871
3.3487
3.34867
3.34862
3.34856
3.34846
3.34835
3.34816
3.34797
3.34762
3.34726
3.34658
3.3458
3.34417
3.34188
3.33654
3.32909
3.32267
3.31158
3.30133
3.28424
3.27739
3.27542
3.27491
3.2748
3.30314
3.32742
3.34258
3.35703
3.36476
3.37195
3.37595
3.37996
3.38229
3.38474
3.38616
3.38765
3.38872
3.39019
3.39123
3.39263
3.39361
3.39489
3.39578
3.39695
3.39775
3.3988
3.39952
3.40046
3.40111
3.40196
3.40256
3.40335
3.40399
3.40495
3.40585
3.40634
3.40684
3.40714
3.40749
3.40772
3.40798
3.40815
3.40835
3.40848
3.40863
3.40872
3.40883
3.4089
3.40898
3.40903
3.40909
3.40912
3.40916
3.40918
3.4092
3.40921
3.40922
3.40923
3.40923
3.40923
3.40922
3.4092
3.40917
3.40914
3.40907
3.40901
3.4089
3.40878
3.40857
3.40835
3.40794
3.40747
3.40649
3.40508
3.40189
3.39747
3.39353
3.38696
3.3807
3.3707
3.36651
3.36527
3.36495
3.36488
3.43449
3.44243
3.44752
3.45231
3.45492
3.4573
3.45865
3.45998
3.46076
3.46158
3.46205
3.46255
3.46291
3.46339
3.46375
3.46421
3.46454
3.46496
3.46526
3.46565
3.46592
3.46627
3.46651
3.46682
3.46704
3.46732
3.46752
3.46778
3.468
3.46832
3.46861
3.46878
3.46894
3.46905
3.46916
3.46924
3.46933
3.46938
3.46945
3.46949
3.46954
3.46957
3.46961
3.46963
3.46966
3.46968
3.4697
3.46971
3.46972
3.46973
3.46973
3.46974
3.46974
3.46974
3.46974
3.46974
3.46974
3.46973
3.46972
3.46971
3.46969
3.46967
3.46963
3.46959
3.46952
3.46945
3.46931
3.46915
3.46883
3.46835
3.46729
3.46582
3.4645
3.46232
3.46022
3.45693
3.45552
3.4551
3.45499
3.45496
3.43846
3.4469
3.45275
3.45905
3.46289
3.46706
3.4697
3.47271
3.47463
3.47683
3.47818
3.47965
3.48072
3.48218
3.48323
3.48459
3.48555
3.48676
3.48759
3.48864
3.48937
3.49027
3.49089
3.49166
3.49219
3.49284
3.49331
3.4939
3.49437
3.49507
3.49571
3.49607
3.49643
3.49665
3.49691
3.49708
3.49729
3.49742
3.49759
3.4977
3.49783
3.49791
3.49802
3.49808
3.49816
3.49822
3.49828
3.49832
3.49836
3.49839
3.49842
3.49844
3.49847
3.49849
3.49851
3.49852
3.49854
3.49856
3.49857
3.49858
3.49859
3.4986
3.4986
3.4986
3.4986
3.49859
3.49857
3.49852
3.49841
3.49819
3.49765
3.49682
3.49595
3.49439
3.49274
3.49004
3.48888
3.48853
3.48844
3.48842
3.31503
3.34081
3.35824
3.37725
3.38867
3.40123
3.40908
3.41816
3.42389
3.43053
3.43453
3.43895
3.44214
3.44655
3.44967
3.45378
3.45663
3.46028
3.46278
3.46594
3.4681
3.47081
3.47265
3.47498
3.47655
3.47854
3.47992
3.48171
3.48311
3.48521
3.48715
3.48821
3.48929
3.48996
3.49074
3.49125
3.49187
3.49227
3.49276
3.49309
3.49348
3.49374
3.49405
3.49425
3.4945
3.49465
3.49484
3.49496
3.4951
3.49518
3.49526
3.49532
3.4954
3.49546
3.49553
3.49558
3.49563
3.49567
3.49571
3.49574
3.49577
3.49579
3.4958
3.49581
3.4958
3.49578
3.49571
3.49558
3.49524
3.49459
3.49298
3.49045
3.48787
3.48316
3.47827
3.47006
3.46661
3.46559
3.46533
3.46526
3.19057
3.23506
3.26366
3.29575
3.3144
3.3356
3.34841
3.36375
3.37311
3.38433
3.39086
3.39831
3.40352
3.41096
3.41607
3.42303
3.42768
3.43385
3.43793
3.44329
3.4468
3.4514
3.4544
3.45833
3.4609
3.46426
3.46651
3.46954
3.47181
3.47536
3.47862
3.48035
3.48217
3.48326
3.48459
3.48542
3.48646
3.48712
3.48795
3.48848
3.48914
3.48956
3.49009
3.49042
3.49083
3.49109
3.49141
3.4916
3.49183
3.49196
3.49211
3.49221
3.49234
3.49243
3.49255
3.49263
3.49272
3.49278
3.49285
3.4929
3.49295
3.49298
3.49301
3.49302
3.49301
3.49297
3.49285
3.49264
3.49208
3.49103
3.48833
3.48409
3.47988
3.47194
3.46393
3.4499
3.44425
3.44262
3.4422
3.44211
3.06433
3.12993
3.16894
3.21478
3.24002
3.27029
3.28764
3.30958
3.32225
3.33831
3.34716
3.35775
3.3648
3.37548
3.38239
3.39236
3.39866
3.40751
3.41303
3.4207
3.42546
3.43204
3.43611
3.44173
3.44521
3.45003
3.45307
3.4574
3.46047
3.46552
3.47015
3.47249
3.47507
3.47655
3.47845
3.47957
3.48106
3.48196
3.48315
3.48386
3.48481
3.48538
3.48613
3.48658
3.48717
3.48752
3.48798
3.48824
3.48857
3.48875
3.48896
3.48909
3.48929
3.48941
3.48958
3.48968
3.48981
3.48989
3.49
3.49006
3.49013
3.49017
3.49021
3.49023
3.49022
3.49017
3.49
3.48971
3.48894
3.48754
3.48375
3.47772
3.47204
3.46073
3.44984
3.4294
3.42172
3.4196
3.41907
3.41895
2.93546
3.02586
3.07393
3.13463
3.16544
3.2055
3.22667
3.25577
3.27125
3.29258
3.30338
3.31733
3.32594
3.34013
3.34859
3.36185
3.36954
3.38129
3.38804
3.39823
3.40405
3.41278
3.41776
3.42522
3.42947
3.43587
3.43958
3.44531
3.44905
3.4557
3.46178
3.46462
3.46803
3.46983
3.47234
3.47372
3.47569
3.47679
3.47837
3.47924
3.4805
3.48119
3.4822
3.48274
3.48353
3.48396
3.48456
3.48488
3.48532
3.48553
3.48581
3.48597
3.48623
3.48638
3.48661
3.48673
3.48691
3.48701
3.48714
3.48722
3.48732
3.48737
3.48742
3.48744
3.48743
3.48737
3.48716
3.48681
3.48582
3.48415
3.47927
3.47135
3.46443
3.44951
3.43613
3.40839
3.39898
3.39652
3.39592
3.39578
2.80296
2.92348
2.97842
3.05567
3.09048
3.14145
3.16539
3.2025
3.22002
3.24727
3.25947
3.27712
3.28685
3.30502
3.3146
3.33155
3.34026
3.35528
3.36291
3.37593
3.38251
3.39367
3.39931
3.40883
3.41365
3.42181
3.42601
3.43329
3.43751
3.4459
3.45353
3.45672
3.46104
3.46308
3.46628
3.46784
3.47036
3.4716
3.47361
3.4746
3.47621
3.477
3.47828
3.4789
3.4799
3.48038
3.48115
3.48151
3.48207
3.48232
3.48267
3.48285
3.48319
3.48336
3.48364
3.48378
3.48401
3.48412
3.4843
3.48438
3.48451
3.48456
3.48464
3.48466
3.48465
3.48458
3.48432
3.48394
3.48274
3.48089
3.47491
3.46494
3.45715
3.43822
3.42299
3.38665
3.37596
3.37337
3.37276
3.37262
2.66562
2.82371
2.882
2.9784
3.01486
3.07848
3.10357
3.15001
3.16839
3.20256
3.21533
3.23722
3.24741
3.27024
3.2803
3.30157
3.31072
3.32955
3.33757
3.35389
3.3608
3.37478
3.3807
3.39264
3.39769
3.40791
3.41232
3.4214
3.4258
3.43613
3.44547
3.44879
3.45415
3.45629
3.46029
3.46192
3.46508
3.46638
3.4689
3.46994
3.47196
3.47278
3.47439
3.47504
3.47629
3.4768
3.47777
3.47815
3.47885
3.47911
3.47954
3.47973
3.48015
3.48033
3.48069
3.48083
3.48112
3.48124
3.48146
3.48155
3.48171
3.48176
3.48186
3.48188
3.48187
3.4818
3.4815
3.48111
3.47969
3.47779
3.47071
3.45844
3.45031
3.42679
3.41071
3.36389
3.35263
3.35015
3.34958
3.34946
2.52195
2.72792
2.78405
2.90352
2.93815
3.01704
3.04089
3.09863
3.11612
3.15869
3.17083
3.19778
3.20747
3.23597
3.24556
3.27208
3.28079
3.30426
3.31189
3.33222
3.33879
3.35622
3.36184
3.37671
3.38152
3.39425
3.39843
3.4097
3.41386
3.42641
3.43764
3.44077
3.44739
3.44942
3.45439
3.45595
3.45988
3.46111
3.46426
3.46524
3.46776
3.46854
3.47054
3.47116
3.47272
3.4732
3.47441
3.47477
3.47564
3.47589
3.47642
3.4766
3.47713
3.4773
3.47774
3.47789
3.47824
3.47835
3.47863
3.47871
3.47891
3.47897
3.47909
3.47911
3.4791
3.47903
3.47868
3.47832
3.47666
3.47491
3.46673
3.45179
3.44409
3.41507
3.39966
3.33972
3.32895
3.32685
3.3264
3.3263
2.37003
2.63811
2.68355
2.83202
2.85966
2.9578
2.97684
3.04885
3.06284
3.11603
3.12573
3.15903
3.16676
3.20246
3.21013
3.24329
3.25026
3.27959
3.2857
3.31109
3.31635
3.33812
3.34262
3.36119
3.36504
3.38092
3.38427
3.39827
3.40157
3.41673
3.43014
3.43261
3.44082
3.44243
3.44863
3.44988
3.45478
3.45577
3.4597
3.46049
3.46363
3.46425
3.46675
3.46724
3.4692
3.46958
3.47108
3.47137
3.47247
3.47266
3.47332
3.47347
3.47412
3.47426
3.47482
3.47493
3.47538
3.47547
3.47581
3.47588
3.47613
3.47617
3.47633
3.47634
3.47634
3.47629
3.47586
3.47558
3.47364
3.47229
3.46301
3.44485
3.43874
3.40282
3.3904
3.31358
3.30493
3.3035
3.3032
3.30314
2.20737
2.5572
2.57891
2.76534
2.77834
2.90171
2.91067
3.00139
3.00798
3.07511
3.07967
3.1213
3.12493
3.17005
3.17368
3.21555
3.21884
3.25585
3.25873
3.29077
3.29325
3.32071
3.32283
3.34625
3.34807
3.3681
3.36967
3.38728
3.38882
3.40713
3.42308
3.42422
3.43451
3.43527
3.44308
3.44366
3.44985
3.45032
3.45527
3.45564
3.4596
3.4599
3.46304
3.46327
3.46574
3.46592
3.46781
3.46795
3.46933
3.46942
3.47024
3.47031
3.47114
3.47121
3.47192
3.47197
3.47254
3.47258
3.47301
3.47304
3.47336
3.47338
3.47357
3.47358
3.47358
3.47356
3.47305
3.47292
3.4706
3.47
3.45967
3.43743
3.43458
3.38963
3.38373
3.28473
3.28063
3.28011
3.28001
3.27998
2.20737
2.5572
2.57891
2.76534
2.77834
2.9017
2.91067
3.00139
3.00798
3.07511
3.07967
3.12129
3.12493
3.17005
3.17367
3.21555
3.21883
3.25585
3.25873
3.29077
3.29325
3.3207
3.32282
3.34625
3.34806
3.36809
3.36967
3.38728
3.38881
3.40712
3.42308
3.42422
3.4345
3.43526
3.44307
3.44366
3.44985
3.45031
3.45527
3.45564
3.4596
3.45989
3.46304
3.46327
3.46574
3.46592
3.46781
3.46795
3.46933
3.46942
3.47024
3.47031
3.47114
3.47121
3.47192
3.47197
3.47253
3.47258
3.47301
3.47304
3.47336
3.47338
3.47357
3.47358
3.47358
3.47356
3.47305
3.47292
3.4706
3.47
3.45967
3.43743
3.43458
3.38962
3.38372
3.28472
3.28061
3.28009
3.27999
3.27997
2.37003
2.63811
2.68355
2.83202
2.85966
2.95779
2.97684
3.04885
3.06283
3.11603
3.12572
3.15903
3.16676
3.20245
3.21013
3.24329
3.25026
3.27959
3.28569
3.31109
3.31635
3.33811
3.34261
3.36118
3.36503
3.38092
3.38426
3.39827
3.40157
3.41673
3.43014
3.4326
3.44081
3.44243
3.44863
3.44987
3.45478
3.45577
3.4597
3.46049
3.46362
3.46425
3.46674
3.46724
3.46919
3.46958
3.47108
3.47137
3.47247
3.47266
3.47332
3.47347
3.47412
3.47426
3.47482
3.47493
3.47538
3.47547
3.47581
3.47588
3.47613
3.47617
3.47633
3.47634
3.47634
3.47629
3.47586
3.47558
3.47364
3.47229
3.46301
3.44485
3.43873
3.40281
3.3904
3.31357
3.30492
3.30349
3.30319
3.30312
2.52195
2.72792
2.78405
2.90352
2.93815
3.01704
3.04089
3.09862
3.11611
3.15869
3.17082
3.19778
3.20746
3.23597
3.24555
3.27207
3.28078
3.30425
3.31188
3.33221
3.33879
3.35621
3.36184
3.37671
3.38152
3.39424
3.39843
3.40969
3.41385
3.4264
3.43764
3.44076
3.44739
3.44941
3.45439
3.45594
3.45988
3.46111
3.46426
3.46524
3.46775
3.46854
3.47053
3.47116
3.47272
3.4732
3.4744
3.47477
3.47564
3.47589
3.47642
3.4766
3.47713
3.4773
3.47774
3.47788
3.47824
3.47835
3.47863
3.47871
3.47891
3.47897
3.47909
3.47911
3.4791
3.47903
3.47868
3.47832
3.47666
3.47491
3.46673
3.45179
3.44409
3.41507
3.39966
3.33971
3.32894
3.32684
3.32638
3.32628
2.66562
2.82371
2.882
2.9784
3.01486
3.07848
3.10357
3.15
3.16838
3.20255
3.21533
3.23722
3.24741
3.27024
3.2803
3.30157
3.31071
3.32955
3.33756
3.35388
3.36079
3.37478
3.38069
3.39263
3.39769
3.40791
3.41231
3.4214
3.4258
3.43613
3.44546
3.44878
3.45415
3.45628
3.46029
3.46192
3.46508
3.46638
3.4689
3.46994
3.47196
3.47278
3.47438
3.47504
3.47629
3.4768
3.47776
3.47814
3.47885
3.4791
3.47954
3.47973
3.48015
3.48033
3.48069
3.48083
3.48112
3.48124
3.48146
3.48155
3.48171
3.48176
3.48186
3.48188
3.48187
3.4818
3.4815
3.48111
3.47969
3.47779
3.47071
3.45844
3.45031
3.42679
3.41071
3.36388
3.35262
3.35014
3.34957
3.34945
2.80295
2.92348
2.97842
3.05567
3.09048
3.14145
3.16539
3.20249
3.22002
3.24727
3.25946
3.27711
3.28684
3.30502
3.3146
3.33154
3.34025
3.35527
3.36291
3.37593
3.38251
3.39367
3.3993
3.40883
3.41365
3.42181
3.42601
3.43329
3.4375
3.4459
3.45353
3.45672
3.46104
3.46308
3.46628
3.46784
3.47036
3.4716
3.47361
3.4746
3.47621
3.477
3.47828
3.4789
3.4799
3.48038
3.48115
3.48151
3.48207
3.48232
3.48267
3.48285
3.48319
3.48336
3.48364
3.48378
3.48401
3.48412
3.4843
3.48438
3.48451
3.48456
3.48464
3.48466
3.48465
3.48458
3.48432
3.48394
3.48274
3.48089
3.47491
3.46494
3.45715
3.43822
3.42299
3.38664
3.37595
3.37336
3.37275
3.37261
2.93546
3.02586
3.07393
3.13463
3.16544
3.20549
3.22667
3.25576
3.27125
3.29258
3.30337
3.31733
3.32593
3.34013
3.34859
3.36184
3.36954
3.38129
3.38804
3.39822
3.40404
3.41278
3.41776
3.42521
3.42947
3.43587
3.43958
3.4453
3.44904
3.4557
3.46178
3.46462
3.46802
3.46983
3.47234
3.47372
3.47569
3.47678
3.47836
3.47924
3.4805
3.48119
3.48219
3.48274
3.48353
3.48395
3.48456
3.48488
3.48531
3.48553
3.48581
3.48597
3.48623
3.48638
3.4866
3.48673
3.48691
3.48701
3.48714
3.48722
3.48732
3.48737
3.48742
3.48744
3.48743
3.48737
3.48716
3.48681
3.48582
3.48415
3.47927
3.47135
3.46443
3.4495
3.43612
3.40838
3.39897
3.39651
3.39591
3.39578
3.06433
3.12993
3.16894
3.21478
3.24002
3.27029
3.28763
3.30957
3.32225
3.33831
3.34715
3.35775
3.3648
3.37547
3.38239
3.39236
3.39866
3.40751
3.41303
3.4207
3.42546
3.43204
3.43611
3.44173
3.44521
3.45003
3.45307
3.4574
3.46047
3.46552
3.47015
3.47249
3.47507
3.47655
3.47845
3.47957
3.48106
3.48196
3.48315
3.48386
3.48481
3.48538
3.48613
3.48658
3.48717
3.48752
3.48798
3.48824
3.48857
3.48875
3.48896
3.48909
3.48929
3.48941
3.48958
3.48968
3.48981
3.48989
3.49
3.49006
3.49013
3.49017
3.49021
3.49023
3.49022
3.49017
3.49
3.48971
3.48894
3.48754
3.48376
3.47772
3.47204
3.46073
3.44983
3.42939
3.42172
3.41959
3.41906
3.41894
3.19057
3.23506
3.26366
3.29575
3.3144
3.33559
3.34841
3.36375
3.37311
3.38433
3.39086
3.3983
3.40352
3.41096
3.41607
3.42303
3.42767
3.43385
3.43793
3.44328
3.4468
3.45139
3.4544
3.45832
3.4609
3.46426
3.46651
3.46954
3.47181
3.47536
3.47862
3.48035
3.48217
3.48326
3.48458
3.48542
3.48646
3.48712
3.48795
3.48848
3.48914
3.48956
3.49009
3.49042
3.49083
3.49109
3.49141
3.4916
3.49183
3.49196
3.49211
3.49221
3.49234
3.49243
3.49255
3.49263
3.49272
3.49278
3.49285
3.4929
3.49295
3.49298
3.49301
3.49302
3.49301
3.49297
3.49285
3.49264
3.49208
3.49103
3.48833
3.48409
3.47988
3.47194
3.46393
3.44989
3.44424
3.44261
3.4422
3.4421
3.31503
3.34082
3.35824
3.37725
3.38867
3.40123
3.40908
3.41816
3.42389
3.43053
3.43453
3.43895
3.44214
3.44654
3.44967
3.45378
3.45663
3.46028
3.46277
3.46594
3.46809
3.47081
3.47265
3.47497
3.47655
3.47854
3.47992
3.48171
3.48311
3.48521
3.48715
3.48821
3.48929
3.48996
3.49074
3.49125
3.49187
3.49227
3.49276
3.49309
3.49348
3.49374
3.49405
3.49425
3.4945
3.49465
3.49484
3.49496
3.4951
3.49518
3.49526
3.49532
3.4954
3.49546
3.49553
3.49557
3.49563
3.49567
3.49571
3.49574
3.49577
3.49579
3.4958
3.49581
3.4958
3.49578
3.49571
3.49558
3.49524
3.49459
3.49298
3.49045
3.48787
3.48316
3.47827
3.47006
3.46661
3.46559
3.46532
3.46526
3.43846
3.4469
3.45275
3.45905
3.46289
3.46706
3.4697
3.47271
3.47463
3.47683
3.47818
3.47965
3.48072
3.48218
3.48323
3.48459
3.48555
3.48676
3.48759
3.48864
3.48937
3.49027
3.49089
3.49166
3.49218
3.49284
3.49331
3.4939
3.49437
3.49507
3.49571
3.49607
3.49643
3.49665
3.49691
3.49708
3.49729
3.49742
3.49759
3.4977
3.49783
3.49791
3.49802
3.49808
3.49816
3.49822
3.49828
3.49832
3.49836
3.49839
3.49842
3.49844
3.49847
3.49849
3.49851
3.49852
3.49854
3.49856
3.49857
3.49858
3.49859
3.4986
3.4986
3.4986
3.4986
3.49859
3.49857
3.49852
3.49841
3.49819
3.49765
3.49682
3.49595
3.49439
3.49274
3.49004
3.48888
3.48853
3.48844
3.48842
3.43447
3.44241
3.44749
3.45227
3.45485
3.4572
3.45851
3.45976
3.46046
3.46114
3.46161
3.46222
3.46266
3.46321
3.4636
3.4641
3.46445
3.46489
3.4652
3.4656
3.46588
3.46623
3.46648
3.4668
3.46702
3.4673
3.4675
3.46777
3.46798
3.46831
3.46861
3.46877
3.46894
3.46904
3.46916
3.46924
3.46932
3.46938
3.46945
3.46949
3.46954
3.46957
3.46961
3.46963
3.46966
3.46968
3.46969
3.46971
3.46972
3.46973
3.46973
3.46974
3.46974
3.46974
3.46974
3.46974
3.46974
3.46973
3.46972
3.46971
3.46969
3.46967
3.46963
3.46959
3.46952
3.46945
3.46931
3.46915
3.46883
3.46835
3.46729
3.46582
3.4645
3.46232
3.46022
3.45692
3.45552
3.45509
3.45498
3.45496
3.30309
3.32735
3.3425
3.35689
3.36457
3.37165
3.37553
3.37931
3.38139
3.38343
3.38483
3.38667
3.38796
3.38964
3.3908
3.3923
3.39334
3.39468
3.39561
3.3968
3.39763
3.3987
3.39944
3.40039
3.40105
3.4019
3.40251
3.40331
3.40395
3.40492
3.40583
3.40632
3.40682
3.40713
3.40748
3.40771
3.40797
3.40814
3.40835
3.40847
3.40862
3.40872
3.40883
3.4089
3.40898
3.40903
3.40909
3.40912
3.40916
3.40918
3.4092
3.40921
3.40922
3.40923
3.40923
3.40923
3.40922
3.4092
3.40917
3.40914
3.40907
3.40901
3.4089
3.40878
3.40857
3.40835
3.40794
3.40747
3.40649
3.40508
3.40189
3.39747
3.39353
3.38695
3.3807
3.3707
3.36651
3.36527
3.36495
3.36487
3.17074
3.21265
3.23753
3.26178
3.27431
3.28623
3.29256
3.29892
3.30231
3.30575
3.30803
3.31115
3.31325
3.31609
3.31799
3.32053
3.32222
3.32449
3.326
3.32802
3.32938
3.33118
3.33239
3.334
3.33507
3.33652
3.3375
3.33886
3.3399
3.34154
3.34306
3.34387
3.34471
3.34521
3.34581
3.34618
3.34663
3.34691
3.34725
3.34745
3.34771
3.34786
3.34805
3.34817
3.3483
3.34838
3.34848
3.34853
3.34859
3.34863
3.34866
3.34868
3.3487
3.34871
3.34872
3.34871
3.3487
3.34867
3.34862
3.34856
3.34846
3.34835
3.34816
3.34797
3.34762
3.34726
3.34658
3.3458
3.34417
3.34188
3.33654
3.32909
3.32266
3.31157
3.30133
3.28423
3.27738
3.27541
3.2749
3.27479
3.03672
3.09864
3.13258
3.16714
3.18407
3.20103
3.20958
3.21865
3.22324
3.22811
3.23119
3.23566
3.23851
3.24258
3.24515
3.24878
3.25108
3.25432
3.25638
3.25927
3.2611
3.26368
3.26532
3.26762
3.26908
3.27115
3.27248
3.27442
3.27583
3.27817
3.28033
3.28142
3.28261
3.28329
3.28414
3.28464
3.28529
3.28566
3.28615
3.28643
3.2868
3.28701
3.28728
3.28743
3.28762
3.28773
3.28787
3.28794
3.28803
3.28808
3.28813
3.28815
3.28818
3.2882
3.28821
3.2882
3.28817
3.28814
3.28806
3.28799
3.28784
3.2877
3.28742
3.28717
3.28667
3.28619
3.28521
3.28417
3.28188
3.27881
3.27127
3.26067
3.25199
3.23616
3.22223
3.19736
3.18806
3.18548
3.18484
3.18469
2.90021
2.98574
3.02761
3.07321
3.09383
3.11616
3.12659
3.13857
3.14415
3.15054
3.1543
3.16024
3.16373
3.16912
3.17227
3.17709
3.1799
3.18421
3.18671
3.19056
3.1928
3.19623
3.19822
3.20128
3.20307
3.20581
3.20744
3.21001
3.21171
3.2148
3.21763
3.21896
3.22054
3.22136
3.22249
3.2231
3.22396
3.22442
3.22506
3.22541
3.22589
3.22615
3.22651
3.22669
3.22695
3.22709
3.22726
3.22736
3.22747
3.22753
3.22759
3.22762
3.22767
3.22768
3.2277
3.22769
3.22765
3.22761
3.22751
3.22742
3.22722
3.22705
3.22669
3.22638
3.22572
3.22513
3.22385
3.22259
3.21962
3.21591
3.20613
3.19218
3.1816
3.16067
3.14357
3.10987
3.09847
3.09549
3.09476
3.0946
2.76028
2.87458
2.92248
2.98027
3.00352
3.03177
3.04353
3.05873
3.06502
3.07308
3.07732
3.08491
3.08886
3.09576
3.09932
3.10548
3.10866
3.11416
3.117
3.12191
3.12444
3.12882
3.13108
3.13499
3.13701
3.14052
3.14236
3.14562
3.14755
3.15144
3.155
3.15649
3.15849
3.15942
3.16086
3.16155
3.16264
3.16317
3.16399
3.16438
3.165
3.16529
3.16574
3.16596
3.16628
3.16643
3.16666
3.16677
3.16692
3.16698
3.16706
3.1671
3.16715
3.16717
3.16719
3.16718
3.16713
3.16709
3.16696
3.16686
3.1666
3.16641
3.16595
3.1656
3.16476
3.1641
3.16249
3.16108
3.15739
3.15325
3.14116
3.12355
3.11162
3.08503
3.06558
3.02149
3.00854
3.0054
3.00466
3.00449
2.61577
2.76608
2.81696
2.88871
2.91301
2.94804
2.96033
2.97925
2.98583
2.99577
3.0002
3.00973
3.01388
3.02253
3.02626
3.03399
3.03733
3.04422
3.0472
3.05336
3.05601
3.06151
3.06388
3.06878
3.0709
3.07529
3.07722
3.08129
3.0833
3.08809
3.09245
3.094
3.09648
3.09746
3.09927
3.09999
3.10135
3.1019
3.10293
3.10334
3.10412
3.10442
3.10499
3.10521
3.10562
3.10578
3.10607
3.10618
3.10637
3.10643
3.10653
3.10657
3.10664
3.10666
3.10668
3.10667
3.10661
3.10657
3.10641
3.1063
3.10598
3.10578
3.10521
3.10484
3.1038
3.10311
3.10113
3.09966
3.09517
3.09092
3.0764
3.05469
3.04223
3.00911
2.98857
2.93186
2.91822
2.91522
2.91453
2.91438
2.46525
2.66155
2.7106
2.79904
2.82207
2.86521
2.87686
2.90026
2.90649
2.91868
2.92288
2.93477
2.93871
2.94949
2.95305
2.96267
2.96585
2.97444
2.97727
2.98494
2.98747
2.99432
2.99657
3.00268
3.0047
3.01016
3.012
3.01705
3.01894
3.02476
3.03001
3.03147
3.03454
3.03547
3.03771
3.0384
3.0401
3.04062
3.0419
3.04229
3.04325
3.04354
3.04425
3.04446
3.04497
3.04512
3.04548
3.04559
3.04582
3.04588
3.046
3.04604
3.04613
3.04615
3.04617
3.04616
3.0461
3.04605
3.04585
3.04575
3.04536
3.04517
3.04446
3.04411
3.04283
3.04218
3.03974
3.03836
3.03295
3.02899
3.01194
2.98546
2.97367
2.93268
2.91301
2.84051
2.82748
2.82494
2.82439
2.82427
2.30687
2.5629
2.60266
2.71199
2.73032
2.78364
2.79292
2.82196
2.82692
2.8419
2.84525
2.86011
2.86327
2.87674
2.87959
2.89161
2.89415
2.90489
2.90715
2.91674
2.91876
2.92731
2.92911
2.93674
2.93835
2.94518
2.94664
2.95292
2.95443
2.96146
2.96773
2.96888
2.97268
2.97342
2.97622
2.97676
2.97889
2.9793
2.98091
2.98122
2.98242
2.98265
2.98353
2.9837
2.98434
2.98446
2.98491
2.98499
2.98528
2.98533
2.98548
2.98551
2.98562
2.98564
2.98567
2.98566
2.98558
2.98554
2.9853
2.98522
2.98473
2.98458
2.9837
2.98342
2.98183
2.98131
2.97831
2.97722
2.97068
2.96759
2.94785
2.91565
2.90628
2.8554
2.83956
2.74679
2.73632
2.73459
2.73423
2.73415
2.13824
2.47291
2.49194
2.62857
2.63716
2.70383
2.70818
2.74462
2.74695
2.76559
2.76716
2.78593
2.78742
2.80442
2.80576
2.82093
2.82213
2.83567
2.83674
2.84883
2.84978
2.86057
2.86142
2.87104
2.8718
2.88041
2.8811
2.88899
2.88969
2.89818
2.90565
2.90618
2.91094
2.91129
2.91481
2.91507
2.91774
2.91794
2.91996
2.92011
2.92162
2.92173
2.92284
2.92292
2.92372
2.92378
2.92434
2.92438
2.92475
2.92478
2.92496
2.92498
2.92512
2.92513
2.92516
2.92516
2.92506
2.92504
2.92474
2.9247
2.92409
2.92402
2.92291
2.92278
2.92079
2.92055
2.91681
2.9163
2.90826
2.90686
2.88426
2.84493
2.84055
2.77672
2.7692
2.64977
2.64481
2.64418
2.64406
2.64403
)
;

boundaryField
{
    F1_1
    {
        type            fixedValue;
        value           nonuniform List<scalar> 
80
(
2.04735
2.43461
2.43461
2.59033
2.59033
2.66721
2.66721
2.71119
2.71119
2.73876
2.73876
2.75447
2.75447
2.77154
2.77154
2.7877
2.7877
2.80252
2.80252
2.81594
2.81594
2.828
2.828
2.83882
2.83882
2.84852
2.84852
2.85743
2.85743
2.86675
2.87487
2.87487
2.88026
2.88026
2.88425
2.88425
2.88728
2.88728
2.88957
2.88957
2.89128
2.89128
2.89254
2.89254
2.89345
2.89345
2.89409
2.89409
2.89451
2.89451
2.89472
2.89472
2.89488
2.89488
2.89492
2.89492
2.89481
2.89481
2.89446
2.89446
2.89377
2.89377
2.89251
2.89251
2.89025
2.89025
2.886
2.886
2.87694
2.87694
2.85282
2.8089
2.8089
2.7363
2.7363
2.59903
2.59903
2.59903
2.59903
2.59903
)
;
    }
    F1_2
    {
        type            fixedValue;
        value           nonuniform List<scalar> 
80
(
2.11881
2.52312
2.52312
2.73532
2.73532
2.87582
2.87582
2.97923
2.97923
3.05581
3.05581
3.1031
3.1031
3.15461
3.15461
3.20239
3.20239
3.24461
3.24461
3.28116
3.28116
3.31248
3.31248
3.3392
3.3392
3.36204
3.36204
3.3821
3.3821
3.40238
3.41986
3.41986
3.43156
3.43156
3.44047
3.44047
3.44753
3.44753
3.45318
3.45318
3.4577
3.4577
3.46129
3.46129
3.4641
3.4641
3.46627
3.46627
3.46784
3.46784
3.46878
3.46878
3.46973
3.46973
3.47054
3.47054
3.47119
3.47119
3.47168
3.47168
3.47205
3.47205
3.47227
3.47227
3.47227
3.47227
3.4717
3.4717
3.46911
3.46911
3.4583
3.43341
3.43341
3.38233
3.38233
3.2685
3.2685
3.2685
3.2685
3.2685
)
;
    }
    F1_3
    {
        type            fixedValue;
        value           nonuniform List<scalar> 
80
(
2.11882
2.52312
2.52312
2.73532
2.73532
2.87582
2.87582
2.97923
2.97923
3.0558
3.0558
3.1031
3.1031
3.1546
3.1546
3.20238
3.20238
3.24461
3.24461
3.28116
3.28116
3.31247
3.31247
3.33919
3.33919
3.36203
3.36203
3.38209
3.38209
3.40237
3.41985
3.41985
3.43156
3.43156
3.44046
3.44046
3.44753
3.44753
3.45318
3.45318
3.4577
3.4577
3.46128
3.46128
3.4641
3.4641
3.46626
3.46626
3.46784
3.46784
3.46878
3.46878
3.46973
3.46973
3.47054
3.47054
3.47119
3.47119
3.47168
3.47168
3.47204
3.47204
3.47227
3.47227
3.47227
3.47227
3.4717
3.4717
3.46911
3.46911
3.4583
3.43341
3.43341
3.38233
3.38233
3.26849
3.26849
3.26849
3.26849
3.26849
)
;
    }
    F1_4
    {
        type            fixedValue;
        value           nonuniform List<scalar> 
80
(
2.04714
2.43417
2.43417
2.58938
2.58938
2.66514
2.66514
2.70661
2.70661
2.72775
2.72775
2.74916
2.74916
2.76855
2.76855
2.78586
2.78586
2.80131
2.80131
2.81509
2.81509
2.82739
2.82739
2.83836
2.83836
2.84817
2.84817
2.85716
2.85716
2.86656
2.87474
2.87474
2.88016
2.88016
2.88417
2.88417
2.88722
2.88722
2.88953
2.88953
2.89125
2.89125
2.89252
2.89252
2.89344
2.89344
2.89408
2.89408
2.8945
2.8945
2.89472
2.89472
2.89488
2.89488
2.89492
2.89492
2.89481
2.89481
2.89446
2.89446
2.89377
2.89377
2.89251
2.89251
2.89025
2.89025
2.886
2.886
2.87693
2.87693
2.85281
2.80888
2.80888
2.73626
2.73626
2.59898
2.59898
2.59898
2.59898
2.59898
)
;
    }
    F2_1
    {
        type            fixedValue;
        value           uniform 3.5;
    }
    F2_2
    {
        type            fixedValue;
        value           uniform 3.5;
    }
    F2_3
    {
        type            fixedValue;
        value           uniform 3.5;
    }
    F2_4
    {
        type            fixedValue;
        value           uniform 3.5;
    }
    defaultFaces
    {
        type            empty;
    }
}


// ************************************************************************* //
