/*--------------------------------*- C++ -*----------------------------------*\
| =========                 |                                                 |
| \\      /  F ield         | OpenFOAM: The Open Source CFD Toolbox           |
|  \\    /   O peration     | Version:  5.x                                   |
|   \\  /    A nd           | Web:      www.OpenFOAM.org                      |
|    \\/     M anipulation  |                                                 |
\*---------------------------------------------------------------------------*/
FoamFile
{
    version     2.0;
    format      ascii;
    class       volScalarField;
    location    "10.8999";
    object      gradTx;
}
// * * * * * * * * * * * * * * * * * * * * * * * * * * * * * * * * * * * * * //

dimensions      [0 -1 0 1 0 0 0];

internalField   nonuniform List<scalar> 
6300
(
-31.8906
-31.9614
-32.1023
-32.3119
-32.588
-32.9273
-33.3257
-33.7777
-34.2766
-34.8142
-35.3812
-35.9673
-36.5613
-37.1519
-37.7286
-31.8197
-31.8912
-32.0336
-32.2455
-32.5247
-32.8683
-33.2721
-33.7309
-34.2378
-34.7848
-35.3622
-35.9594
-36.5646
-37.1659
-37.7519
-31.6774
-31.7503
-31.8954
-32.1116
-32.3971
-32.749
-33.1636
-33.6358
-34.159
-34.7249
-35.3235
-35.9434
-36.5718
-37.1952
-37.8006
-31.4623
-31.537
-31.686
-31.9085
-32.2029
-32.5671
-32.9976
-33.4898
-34.0374
-34.6322
-35.2636
-35.9191
-36.5839
-37.2424
-37.8786
-31.1724
-31.2494
-31.4032
-31.6334
-31.9391
-32.3187
-32.7698
-33.2884
-33.8687
-34.5028
-35.1797
-35.8852
-36.6025
-37.3119
-37.9932
-30.8054
-30.8849
-31.0441
-31.2829
-31.6014
-31.999
-32.4745
-33.0252
-33.6464
-34.3307
-35.067
-35.8398
-36.6288
-37.4096
-38.1546
-30.359
-30.4409
-30.6052
-30.8527
-31.1844
-31.6014
-32.1039
-32.6914
-33.361
-34.1066
-34.9178
-35.7781
-36.6636
-37.5429
-38.3784
-29.8306
-29.9145
-30.0831
-30.3383
-30.6823
-31.1181
-31.6485
-32.2755
-32.9994
-33.817
-34.7197
-35.6911
-36.7044
-37.7201
-38.6858
-29.2184
-29.3033
-29.4746
-29.7349
-30.0885
-30.5404
-31.0965
-31.7628
-32.5442
-33.4422
-34.4529
-35.5623
-36.7428
-37.9474
-39.1049
-28.5212
-28.6058
-28.7769
-29.0384
-29.3963
-29.8583
-30.4342
-31.1351
-31.9723
-32.9549
-34.0872
-35.3625
-36.7572
-38.2217
-39.6676
-27.7394
-27.8217
-27.9888
-28.2457
-28.5999
-29.0624
-29.6471
-30.3713
-31.2548
-32.3181
-33.5784
-35.0433
-36.7018
-38.5145
-40.3951
-26.8753
-26.953
-27.1111
-27.3554
-27.6954
-28.1442
-28.7204
-29.4481
-30.3575
-31.4842
-32.865
-34.5301
-36.492
-38.7392
-41.2446
-25.9335
-26.0037
-26.147
-26.3697
-26.6819
-27.0988
-27.6423
-28.3431
-29.2429
-30.396
-31.8669
-33.7196
-35.9953
-38.7036
-41.9441
-24.9216
-24.9814
-25.1037
-25.2945
-25.5637
-25.9267
-26.4069
-27.0391
-27.8751
-28.9899
-30.4863
-32.4839
-35.0613
-38.1267
-41.5415
-23.8499
-23.8965
-23.9918
-24.1408
-24.3516
-24.6375
-25.0196
-25.5314
-26.2283
-27.2018
-28.603
-30.6631
-33.6251
-37.1672
-37.6231
-38.238
-38.6781
-39.0941
-39.484
-39.8469
-40.1828
-40.492
-40.7751
-41.0322
-41.2633
-41.4677
-41.6445
-41.7927
-41.9115
-42.0008
-42.0616
-42.0956
-42.1059
-42.0962
-42.0709
-42.0342
-41.9899
-41.9408
-41.8888
-41.8344
-41.777
-41.7151
-41.6468
-41.5702
-41.4837
-41.3868
-41.2798
-41.1642
-41.0421
-40.9164
-40.79
-40.6655
-40.5447
-40.4285
-40.3165
-40.2077
-40.1001
-39.9913
-39.8791
-39.7617
-39.6382
-39.5087
-39.3742
-39.2367
-39.0986
-38.9626
-38.8308
-38.7049
-38.5855
-38.4722
-38.3639
-38.2586
-38.1539
-38.0477
-37.9382
-37.8244
-37.7064
-37.5852
-37.4626
-37.3408
-37.2225
-37.1096
-37.0038
-36.9058
-36.8153
-36.7314
-36.6524
-36.5765
-36.5021
-36.4282
-36.3546
-36.2824
-36.2138
-36.1519
-36.1006
-36.0639
-36.0455
-36.0483
-36.0741
-36.1231
-36.1935
-36.282
-36.3837
-36.4923
-36.6009
-38.2682
-38.7129
-39.1317
-39.5229
-39.8859
-40.2212
-40.5297
-40.8124
-41.0697
-41.3017
-41.5075
-41.6858
-41.835
-41.9539
-42.0421
-42.1
-42.1298
-42.1346
-42.1188
-42.0874
-42.0452
-41.9966
-41.945
-41.8923
-41.8388
-41.7835
-41.7244
-41.6589
-41.5843
-41.4988
-41.4014
-41.2923
-41.1734
-41.0473
-40.9174
-40.7873
-40.6602
-40.5381
-40.4222
-40.3121
-40.2061
-40.1018
-39.9962
-39.8865
-39.7705
-39.6469
-39.5158
-39.3785
-39.2375
-39.0958
-38.9564
-38.8224
-38.6955
-38.5766
-38.4652
-38.3597
-38.2576
-38.1562
-38.0524
-37.9443
-37.8305
-37.711
-37.5872
-37.4613
-37.336
-37.2145
-37.0994
-36.9926
-36.8949
-36.8059
-36.7243
-36.6479
-36.5744
-36.5015
-36.4276
-36.3526
-36.2772
-36.2041
-36.1367
-36.0796
-36.0375
-36.0148
-36.0152
-36.0409
-36.0922
-36.1675
-36.2631
-36.3737
-36.4921
-36.6108
-38.3311
-38.7848
-39.209
-39.6023
-39.9648
-40.2982
-40.6046
-40.8861
-41.1438
-41.3778
-41.5869
-41.7689
-41.921
-42.0407
-42.1268
-42.1791
-42.1998
-42.193
-42.164
-42.1193
-42.0654
-42.0079
-41.951
-41.8969
-41.8457
-41.7955
-41.7429
-41.6839
-41.6143
-41.5311
-41.4326
-41.3191
-41.1929
-41.0579
-40.9187
-40.7805
-40.6475
-40.5228
-40.4077
-40.3015
-40.202
-40.1053
-40.007
-39.9031
-39.7902
-39.6664
-39.5318
-39.3883
-39.2394
-39.0893
-38.9428
-38.8036
-38.6746
-38.5568
-38.4496
-38.3505
-38.2559
-38.1616
-38.0635
-37.9585
-37.8446
-37.722
-37.5923
-37.4589
-37.3258
-37.1974
-37.0773
-36.9683
-36.8713
-36.7858
-36.7096
-36.6394
-36.5714
-36.5021
-36.4289
-36.3509
-36.2689
-36.186
-36.1067
-36.037
-35.9831
-35.951
-35.9458
-35.9707
-36.0266
-36.1121
-36.2228
-36.3522
-36.4917
-36.6317
-38.4317
-38.8993
-39.331
-39.7258
-40.0857
-40.4141
-40.7155
-40.994
-41.252
-41.4898
-41.7054
-41.8949
-42.0534
-42.1762
-42.2599
-42.3037
-42.3097
-42.2832
-42.2318
-42.1645
-42.0907
-42.0182
-41.9528
-41.8973
-41.8511
-41.8109
-41.7708
-41.724
-41.664
-41.5853
-41.4853
-41.3642
-41.2252
-41.0743
-40.9187
-40.7661
-40.6228
-40.4936
-40.3802
-40.2816
-40.1937
-40.1109
-40.0261
-39.9327
-39.8255
-39.7014
-39.5606
-39.4059
-39.2428
-39.078
-38.9184
-38.7702
-38.6375
-38.5219
-38.4222
-38.3347
-38.2537
-38.1725
-38.0847
-37.9853
-37.8714
-37.743
-37.6029
-37.4561
-37.3089
-37.1681
-37.0393
-36.9266
-36.8313
-36.7524
-36.6863
-36.6277
-36.5703
-36.5083
-36.4372
-36.3548
-36.262
-36.1626
-36.0631
-35.9716
-35.8972
-35.8485
-35.8331
-35.8557
-35.9186
-36.0202
-36.1556
-36.3162
-36.4906
-36.666
-38.5788
-39.0655
-39.5059
-39.8999
-40.2517
-40.5688
-40.8595
-41.1314
-41.3892
-41.6337
-41.8615
-42.0657
-42.2374
-42.368
-42.4506
-42.4827
-42.4665
-42.4092
-42.3223
-42.2193
-42.114
-42.0183
-41.9406
-41.8843
-41.8481
-41.826
-41.8082
-41.7834
-41.7404
-41.6704
-41.5685
-41.4349
-41.2748
-41.0975
-40.9146
-40.738
-40.578
-40.4416
-40.3316
-40.246
-40.1784
-40.1193
-40.0576
-39.9823
-39.8849
-39.7606
-39.6093
-39.4358
-39.2487
-39.059
-38.8777
-38.7144
-38.5757
-38.4641
-38.3774
-38.3097
-38.2517
-38.1929
-38.1227
-38.033
-37.9191
-37.781
-37.6231
-37.4537
-37.283
-37.1215
-36.9783
-36.8596
-36.7677
-36.7005
-36.6523
-36.6141
-36.5759
-36.5277
-36.4617
-36.3738
-36.2647
-36.1395
-36.0078
-35.8815
-35.7741
-35.6984
-35.6654
-35.6829
-35.7547
-35.8799
-36.0521
-36.2601
-36.4882
-36.7181
-38.7863
-39.2985
-39.7476
-40.1346
-40.468
-40.7614
-41.0305
-41.2891
-41.5457
-41.8018
-42.0516
-42.2831
-42.4807
-42.6286
-42.7142
-42.7313
-42.6823
-42.5781
-42.436
-42.2774
-42.1236
-41.9927
-41.8973
-41.8424
-41.825
-41.8348
-41.8557
-41.8689
-41.8558
-41.8013
-41.6973
-41.5437
-41.3492
-41.1288
-40.9014
-40.686
-40.4991
-40.3517
-40.2479
-40.1844
-40.1507
-40.1315
-40.1085
-40.0638
-39.9832
-39.8585
-39.6899
-39.4851
-39.2586
-39.0278
-38.8109
-38.6232
-38.4751
-38.3702
-38.3053
-38.2705
-38.251
-38.2295
-38.1888
-38.1154
-38.0016
-37.8473
-37.66
-37.4532
-37.2437
-37.0484
-36.882
-36.7542
-36.6684
-36.6214
-36.6036
-36.6007
-36.5959
-36.5726
-36.5176
-36.4234
-36.2903
-36.1259
-35.9445
-35.7643
-35.6054
-35.4867
-35.4249
-35.4318
-35.5141
-35.6717
-35.8971
-36.175
-36.4832
-36.7947
-39.0755
-39.6222
-40.0786
-40.4466
-40.7417
-40.9889
-41.2167
-41.4496
-41.7028
-41.979
-42.268
-42.5493
-42.7957
-42.979
-43.0762
-43.0751
-42.9778
-42.8013
-42.5737
-42.3287
-42.1
-41.916
-41.7957
-41.7465
-41.7628
-41.8275
-41.9144
-41.9925
-42.0306
-42.0037
-41.8973
-41.7116
-41.4609
-41.1703
-40.8707
-40.5931
-40.3634
-40.199
-40.1064
-40.0797
-40.1023
-40.1492
-40.1907
-40.1972
-40.1448
-40.0198
-39.8224
-39.566
-39.2744
-38.9767
-38.7021
-38.4751
-38.3121
-38.2188
-38.1899
-38.2093
-38.2533
-38.2936
-38.3021
-38.2561
-38.1424
-37.9611
-37.7251
-37.4568
-37.1838
-36.9338
-36.7301
-36.5881
-36.5133
-36.5003
-36.5336
-36.5901
-36.6424
-36.6632
-36.6298
-36.5292
-36.3609
-36.1369
-35.8795
-35.6167
-35.3785
-35.1933
-35.0852
-35.0723
-35.1651
-35.3659
-35.6664
-36.0464
-36.4736
-36.9071
-39.4796
-40.0762
-40.5369
-40.8637
-41.0843
-41.2446
-41.3956
-41.5809
-41.8268
-42.1376
-42.4956
-42.8658
-43.2015
-43.4535
-43.58
-43.5572
-43.3873
-43.0981
-42.7363
-42.3565
-42.0122
-41.7475
-41.5919
-41.5562
-41.6309
-41.7881
-41.9858
-42.1734
-42.2993
-42.3204
-42.2117
-41.9732
-41.6299
-41.2247
-40.8086
-40.4311
-40.1335
-39.9432
-39.8697
-39.9039
-40.0189
-40.1747
-40.3231
-40.4154
-40.4108
-40.2856
-40.0399
-39.6975
-39.2989
-38.8924
-38.5247
-38.2349
-38.0486
-37.9749
-38.0047
-38.1128
-38.2609
-38.4035
-38.4941
-38.494
-38.3805
-38.1539
-37.8366
-37.467
-37.0908
-36.7525
-36.4893
-36.3253
-36.2693
-36.3124
-36.4301
-36.5855
-36.7345
-36.8317
-36.8387
-36.7325
-36.5116
-36.1961
-35.8221
-35.4335
-35.0754
-34.789
-34.6086
-34.5603
-34.6607
-34.9166
-35.3214
-35.8496
-36.4549
-37.0729
-40.0494
-40.7259
-41.1879
-41.4336
-41.5138
-41.5135
-41.525
-41.6248
-41.8574
-42.2281
-42.7059
-43.2317
-43.7277
-44.1088
-44.2988
-44.2514
-43.9684
-43.4996
-42.9247
-42.3334
-41.8096
-41.4218
-41.2155
-41.2069
-41.3801
-41.6906
-42.0719
-42.4431
-42.7189
-42.8242
-42.713
-42.3855
-41.888
-41.295
-40.6907
-40.154
-39.7492
-39.5189
-39.4782
-39.6117
-39.8769
-40.2107
-40.5364
-40.7733
-40.8505
-40.7248
-40.3966
-39.9097
-39.3351
-38.7521
-38.2353
-37.8456
-37.623
-37.5817
-37.707
-37.9586
-38.2765
-38.5881
-38.8167
-38.895
-38.7817
-38.4773
-38.0232
-37.4867
-36.9431
-36.4634
-36.1053
-35.9072
-35.8825
-36.017
-36.2722
-36.5903
-36.9012
-37.1301
-37.2107
-37.101
-36.7985
-36.3397
-35.7857
-35.2064
-34.669
-34.2319
-33.9419
-33.834
-33.9323
-34.2531
-34.7984
-35.542
-36.4177
-37.3217
-40.8616
-41.6847
-42.1503
-42.2416
-42.0594
-41.7655
-41.5274
-41.4774
-41.6892
-42.1643
-42.847
-43.6406
-44.4195
-45.0392
-45.3593
-45.2849
-44.8171
-44.0537
-43.1368
-42.2131
-41.4113
-40.835
-40.5543
-40.5957
-40.9316
-41.4912
-42.1725
-42.8502
-43.3842
-43.6396
-43.5256
-43.0429
-42.2834
-41.3816
-40.4756
-39.687
-39.1136
-38.8217
-38.8359
-39.1298
-39.6362
-40.2583
-40.8775
-41.3612
-41.5824
-41.4555
-40.9818
-40.2485
-39.3831
-38.5163
-37.763
-37.2155
-36.9363
-36.9486
-37.2274
-37.7089
-38.3013
-38.8922
-39.356
-39.5717
-39.4581
-39.0162
-38.3287
-37.5164
-36.7034
-35.999
-35.4912
-35.2395
-35.2663
-35.5478
-36.0236
-36.6056
-37.1857
-37.6421
-37.8565
-37.7472
-37.3105
-36.6202
-35.7857
-34.9191
-34.1182
-33.4628
-33.0132
-32.8108
-32.8837
-33.2661
-33.9899
-35.0441
-36.3397
-37.703
-42.0264
-43.1586
-43.6513
-43.4432
-42.7657
-41.9375
-41.2587
-40.953
-41.1417
-41.8015
-42.8284
-44.0708
-45.3405
-46.401
-46.9881
-46.8847
-46.0918
-44.8286
-43.3589
-41.9173
-40.6884
-39.8222
-39.4294
-39.5606
-40.1609
-41.1168
-42.2782
-43.4644
-44.4505
-44.987
-44.8691
-44.0988
-42.8839
-41.4741
-40.0913
-38.9102
-38.0728
-37.6836
-37.7908
-38.3418
-39.229
-40.31
-41.4136
-42.3272
-42.8154
-42.6856
-41.9406
-40.7777
-39.4332
-38.1172
-36.9944
-36.199
-35.8298
-35.9319
-36.4558
-37.2994
-38.3281
-39.3796
-40.2523
-40.7225
-40.6073
-39.9088
-38.814
-37.5471
-36.3073
-35.2518
-34.508
-34.1706
-34.2832
-34.7991
-35.622
-36.6235
-37.6486
-38.5027
-38.9684
-38.8649
-38.1878
-37.1083
-35.832
-34.5371
-33.3579
-32.3974
-31.7284
-31.391
-31.3894
-31.7873
-32.7059
-34.1986
-36.1641
-38.3046
-43.6722
-45.5549
-46.1623
-45.3191
-43.6878
-41.8945
-40.4532
-39.7169
-39.9157
-40.91
-42.4995
-44.4615
-46.563
-48.4442
-49.6113
-49.4773
-48.0436
-45.901
-43.5406
-41.3151
-39.4431
-38.128
-37.5498
-37.85
-38.8781
-40.4463
-42.3481
-44.3668
-46.1643
-47.2766
-47.1521
-45.795
-43.7651
-41.5277
-39.4165
-37.6385
-36.3864
-35.831
-36.1064
-37.0697
-38.5426
-40.329
-42.2234
-43.9059
-44.9384
-44.8017
-43.5013
-41.5681
-39.4425
-37.4396
-35.7545
-34.5689
-34.0444
-34.3078
-35.2237
-36.6236
-38.322
-40.1245
-41.728
-42.7165
-42.5964
-41.3722
-39.547
-37.5386
-35.6461
-34.0554
-32.9399
-32.4539
-32.7192
-33.6085
-34.963
-36.6075
-38.3575
-39.9225
-40.9
-40.8086
-39.6443
-37.88
-35.9049
-33.9885
-32.2827
-30.9122
-29.9662
-29.4876
-29.32
-29.5588
-30.595
-32.6724
-35.7363
-39.291
-45.791
-49.7955
-50.7695
-48.3282
-44.8375
-41.3439
-38.6329
-37.1347
-37.5442
-39.1615
-41.6342
-44.6515
-48.1027
-51.5159
-54.1079
-53.9414
-51.0163
-47.2869
-43.528
-40.2039
-37.3959
-35.3726
-34.4054
-35.0911
-36.8177
-39.2956
-42.2496
-45.5877
-48.8648
-51.347
-51.2103
-48.46
-44.9452
-41.3996
-38.2619
-35.6095
-33.6968
-32.782
-33.4314
-35.064
-37.4049
-40.1924
-43.3385
-46.4204
-48.7451
-48.5935
-45.9731
-42.6357
-39.2752
-36.3043
-33.7951
-31.987
-31.1245
-31.7438
-33.2949
-35.5179
-38.1659
-41.1562
-44.0891
-46.3069
-46.1754
-43.7009
-40.5439
-37.3631
-34.5502
-32.1747
-30.4652
-29.6553
-30.2564
-31.7482
-33.8864
-36.4395
-39.333
-42.1881
-44.3711
-44.2972
-41.9647
-38.9554
-35.8933
-33.1366
-30.7246
-28.8157
-27.531
-27.1362
-26.6655
-26.182
-26.9848
-29.7258
-34.6018
-40.9939
-47.319
-58.417
-60.3391
-52.866
-45.9779
-39.6589
-35.0642
-31.805
-33.4333
-36.1813
-39.9845
-44.2167
-49.6969
-55.7701
-62.5768
-62.3779
-55.147
-48.7155
-42.8893
-38.3496
-34.2188
-31.0963
-28.8809
-30.8334
-33.6754
-37.4594
-41.5979
-46.8966
-52.7101
-59.1886
-59.032
-52.226
-46.1694
-40.6844
-36.4083
-32.5156
-29.57
-27.4804
-29.3407
-32.0382
-35.6242
-39.5395
-44.546
-50.0252
-56.1179
-55.9402
-49.4775
-43.7365
-38.5469
-34.504
-30.8262
-28.0435
-26.0709
-27.8382
-30.3982
-33.8005
-37.5166
-42.2705
-47.4801
-53.2802
-53.1285
-47.0122
-41.5753
-36.6577
-32.8245
-29.335
-26.6951
-24.8248
-26.5113
-28.9569
-32.2122
-35.7814
-40.3639
-45.4216
-51.0918
-51.0383
-45.2595
-40.1071
-35.4418
-31.7882
-28.4422
-25.8202
-23.8145
-24.8939
-24.0295
-20.9528
-20.5834
-23.7049
-31.2839
-44.1286
-40.9565
-80.206
-83.5953
-56.7223
-46.3214
-35.4884
-29.5719
-19.4373
-27.7102
-31.6815
-37.7169
-41.9847
-50.4372
-58.9683
-81.1335
-80.9408
-58.1265
-49.2723
-40.3983
-35.9062
-29.5899
-25.5138
-17.3547
-25.2948
-29.1765
-35.1126
-39.2756
-47.4641
-55.5979
-76.5849
-76.4287
-54.9128
-46.5706
-38.2284
-34.0024
-28.0579
-24.2107
-16.4911
-24.0442
-27.733
-33.3693
-37.3152
-45.0727
-52.7467
-72.5198
-72.3374
-51.9427
-44.043
-36.1677
-32.1777
-26.5684
-22.9333
-15.6317
-22.7913
-26.2885
-31.6313
-35.3731
-42.7285
-50.0207
-68.8242
-68.6706
-49.3451
-41.8588
-34.3907
-30.6041
-25.272
-21.8166
-14.8724
-21.673
-24.9999
-30.0859
-33.6641
-40.7104
-47.7733
-66.0548
-66.0237
-47.6525
-40.5571
-33.5335
-29.997
-25.117
-21.9375
-15.6554
-25.4509
-24.5792
-11.8249
-9.15535
-11.2654
-20.3831
-50.2407
-36.7118
-36.8141
-36.8877
-36.9273
-36.9311
-36.9009
-36.8415
-36.7598
-36.6638
-36.5622
-36.4633
-36.3745
-36.3021
-36.2511
-36.2247
-36.7317
-36.8427
-36.9217
-36.9631
-36.9651
-36.9301
-36.8639
-36.774
-36.6695
-36.5596
-36.4531
-36.358
-36.2808
-36.2264
-36.1984
-36.7739
-36.9032
-36.9935
-37.0381
-37.036
-36.9907
-36.9098
-36.8028
-36.6805
-36.5535
-36.4317
-36.3237
-36.2365
-36.1754
-36.144
-36.8434
-37.0028
-37.1109
-37.16
-37.15
-37.0871
-36.9818
-36.847
-36.6961
-36.5422
-36.3964
-36.2686
-36.1661
-36.0948
-36.0582
-36.9493
-37.1538
-37.2874
-37.341
-37.3169
-37.2257
-37.0832
-36.9071
-36.715
-36.5226
-36.3433
-36.188
-36.0647
-35.9794
-35.9358
-37.1059
-37.3758
-37.5437
-37.5997
-37.5509
-37.4158
-37.2182
-36.9834
-36.7341
-36.4899
-36.2664
-36.0753
-35.9253
-35.8222
-35.7698
-37.3365
-37.7
-37.9117
-37.9632
-37.8714
-37.6681
-37.3906
-37.0739
-36.7481
-36.4366
-36.1569
-35.9215
-35.7389
-35.6144
-35.5515
-37.6793
-38.1759
-38.4401
-38.47
-38.3031
-37.9949
-37.6021
-37.1737
-36.7478
-36.3514
-36.0032
-35.715
-35.4943
-35.3452
-35.2701
-38.1981
-38.8842
-39.2027
-39.1737
-38.8763
-38.4061
-37.8491
-37.2711
-36.7178
-36.2182
-35.7895
-35.4411
-35.1779
-35.0019
-34.9138
-39.005
-39.9602
-40.3129
-40.1457
-39.6221
-38.9042
-38.1171
-37.3439
-36.6341
-36.014
-35.4953
-35.0821
-34.7744
-34.5707
-34.4693
-40.3092
-41.6386
-41.943
-41.4742
-40.5622
-39.4715
-38.3711
-37.3534
-36.4609
-35.7082
-35.0957
-34.6177
-34.267
-34.0371
-33.9234
-42.5321
-44.342
-44.3463
-43.2457
-41.6811
-40.0485
-38.5425
-37.2375
-36.1478
-35.2623
-34.5615
-34.0259
-33.6387
-33.3874
-33.2638
-46.6135
-48.851
-47.8545
-45.4812
-42.8681
-40.499
-38.5128
-36.9062
-35.6307
-34.6317
-33.8623
-33.2856
-32.8744
-32.61
-32.4807
-54.9349
-56.5938
-52.7397
-47.9565
-43.811
-40.5665
-38.1036
-36.2439
-34.8369
-33.7716
-32.9704
-32.3797
-31.9634
-31.6976
-31.5681
-74.53
-69.8496
-58.554
-49.7941
-43.8528
-39.8523
-37.0911
-35.129
-33.7013
-32.6475
-31.8679
-31.2995
-30.9017
-30.649
-30.5261
-22.8248
-22.8573
-22.9236
-23.0266
-23.1718
-23.3677
-23.6288
-23.9798
-24.4651
-25.1699
-26.2702
-28.1574
-31.7438
-39.0237
-52.0841
-21.8704
-21.8891
-21.9268
-21.9846
-22.064
-22.1681
-22.3021
-22.476
-22.7097
-23.0477
-23.6001
-24.6841
-27.4069
-36.5615
-78.0037
-20.9031
-20.9076
-20.9162
-20.9274
-20.9391
-20.9477
-20.9478
-20.9306
-20.8821
-20.7768
-20.5591
-20.056
-18.5009
-11.6647
25.3435
-19.9326
-19.9235
-19.9037
-19.8699
-19.8163
-19.7333
-19.6054
-19.4071
-19.094
-18.5846
-17.7176
-16.152
-13.1693
-7.70954
-3.89675
-18.9684
-18.9467
-18.901
-18.8263
-18.7139
-18.55
-18.312
-17.9632
-17.4422
-16.6412
-15.364
-13.2406
-9.54234
-2.60007
13.4713
-18.0193
-17.9866
-17.9184
-17.8088
-17.6475
-17.4181
-17.0954
-16.6391
-15.9849
-15.0283
-13.5985
-11.4275
-8.16927
-3.82627
-1.97275
-17.0928
-17.0511
-16.9647
-16.8272
-16.6282
-16.3512
-15.9716
-15.4523
-14.7375
-13.7438
-12.3475
-10.3706
-7.55025
-3.32271
4.93888
-16.1954
-16.1467
-16.0464
-15.8884
-15.663
-15.3556
-14.9449
-14.4013
-13.6839
-12.7387
-11.4995
-9.89962
-7.9087
-5.62035
-3.48008
-15.3318
-15.2781
-15.168
-14.9964
-14.7549
-14.4316
-14.0104
-13.4709
-12.7886
-11.9379
-10.902
-9.70025
-8.47378
-7.8151
-10.4126
-14.5056
-14.4486
-14.3325
-14.153
-13.9036
-13.5756
-13.1582
-12.6398
-12.0102
-11.2657
-10.4197
-9.51803
-8.6446
-7.74855
-5.03581
-13.7189
-13.6601
-13.541
-13.3582
-13.107
-12.7816
-12.376
-11.8859
-11.3115
-10.6642
-9.9759
-9.31624
-8.83114
-8.94357
-11.8882
-12.9729
-12.9136
-12.7937
-12.6108
-12.3618
-12.0433
-11.6527
-11.1905
-10.6635
-10.091
-9.51227
-8.99325
-8.60272
-8.17177
-5.53084
-12.2682
-12.2092
-12.0901
-11.9094
-11.665
-11.3551
-10.9791
-10.54
-10.0472
-9.52217
-9.00718
-8.58102
-8.40239
-8.93465
-12.5941
-11.6046
-11.5464
-11.4293
-11.2522
-11.0137
-10.7127
-10.3494
-9.92676
-9.45321
-8.9464
-8.44041
-7.99692
-7.70841
-7.52587
-5.38567
-10.9813
-10.9244
-10.8102
-10.6377
-10.4058
-10.1136
-9.76078
-9.34895
-8.88234
-8.37007
-7.83025
-7.30519
-6.94083
-7.47658
-13.5038
-10.3975
-10.3424
-10.2316
-10.0645
-9.83983
-9.55646
-9.21323
-8.80917
-8.34319
-7.81289
-7.20985
-6.50187
-5.5482
-3.61375
3.76884
-9.85201
-9.79887
-9.69219
-9.53117
-9.31461
-9.04093
-8.70794
-8.31238
-7.84872
-7.30621
-6.66235
-5.86916
-4.83667
-3.53433
-3.40801
-9.34341
-9.29256
-9.19049
-9.03642
-8.82908
-8.56659
-8.24609
-7.8629
-7.40902
-6.86993
-6.21855
-5.40264
-4.31256
-2.63823
1.13429
-8.87012
-8.82183
-8.72492
-8.57865
-8.38184
-8.13256
-7.82777
-7.46252
-7.02848
-6.51164
-5.889
-5.12654
-4.19418
-3.1992
-3.33493
-8.43036
-8.38487
-8.29361
-8.156
-7.97103
-7.73706
-7.45146
-7.10992
-6.70545
-6.22683
-5.65655
-4.96844
-4.1193
-2.97495
-0.65502
-8.0222
-7.97969
-7.8945
-7.76624
-7.59426
-7.37743
-7.11398
-6.80102
-6.43393
-6.00566
-5.50596
-4.92217
-4.24944
-3.56706
-3.60732
-7.64355
-7.60415
-7.52529
-7.40686
-7.24862
-7.05019
-6.8109
-6.5297
-6.20492
-5.83411
-5.41376
-4.93767
-4.38628
-3.65734
-2.12272
-7.29227
-7.25602
-7.18358
-7.07512
-6.9309
-6.75132
-6.53694
-6.28866
-6.00787
-5.69697
-5.36027
-5.00549
-4.64641
-4.30712
-4.03714
-6.96618
-6.93301
-6.86688
-6.76822
-6.63775
-6.47661
-6.28654
-6.07019
-5.83173
-5.57777
-5.31933
-5.07631
-4.89282
-4.90875
-5.76399
-6.66312
-6.6329
-6.57278
-6.48341
-6.3659
-6.22201
-6.05438
-5.86709
-5.66635
-5.46169
-5.2677
-5.1058
-5.00074
-4.92751
-4.37319
-6.38105
-6.35357
-6.29899
-6.21814
-6.11239
-5.98388
-5.83589
-5.67335
-5.5037
-5.33821
-5.19379
-5.09584
-5.08658
-5.28035
-6.30885
-6.11807
-6.09306
-6.04346
-5.97017
-5.87468
-5.7593
-5.62752
-5.48454
-5.33817
-5.20012
-5.08762
-5.02428
-5.03143
-5.05349
-4.41849
-5.87247
-5.84964
-5.80439
-5.73762
-5.65079
-5.54612
-5.42693
-5.2981
-5.16688
-5.04428
-4.94733
-4.90379
-4.96593
-5.28291
-6.62724
-5.64273
-5.62179
-5.58028
-5.51902
-5.43929
-5.34304
-5.23305
-5.11331
-4.98962
-4.87063
-4.76995
-4.70991
-4.72347
-4.79888
-4.25244
-5.42755
-5.40822
-5.3699
-5.31324
-5.23928
-5.14951
-5.04595
-4.93129
-4.80909
-4.68428
-4.56437
-4.46493
-4.43807
-4.74667
-7.01506
-5.22579
-5.20787
-5.17226
-5.11948
-5.05025
-4.96557
-4.86657
-4.7545
-4.6304
-4.49452
-4.34459
-4.16954
-3.91974
-3.33348
-0.808312
-5.03649
-5.01979
-4.98656
-4.93714
-4.87198
-4.79157
-4.69628
-4.58607
-4.45989
-4.31454
-4.14227
-3.92609
-3.63506
-3.26672
-3.3924
-4.85881
-4.84321
-4.81212
-4.76574
-4.7043
-4.62792
-4.53637
-4.42875
-4.30271
-4.15327
-3.97044
-3.73463
-3.40408
-2.85686
-1.48067
-4.69196
-4.67738
-4.6483
-4.60482
-4.54702
-4.4748
-4.38763
-4.28422
-4.1618
-4.01519
-3.83543
-3.60896
-3.32357
-3.02265
-3.19612
-4.53525
-4.52165
-4.49449
-4.45386
-4.39977
-4.33206
-4.25019
-4.1529
-4.0377
-3.90015
-3.73288
-3.52422
-3.25387
-2.85898
-1.94768
-4.38799
-4.37533
-4.35005
-4.31225
-4.26198
-4.19917
-4.12348
-4.03404
-3.92913
-3.80575
-3.65907
-3.48234
-3.27067
-3.0539
-3.15049
-4.24955
-4.23778
-4.21432
-4.17931
-4.13291
-4.07524
-4.00632
-3.92592
-3.83341
-3.72756
-3.60613
-3.46474
-3.29102
-3.03119
-2.38331
-4.11928
-4.10836
-4.08663
-4.0543
-4.01168
-3.95914
-3.89714
-3.82621
-3.74696
-3.66019
-3.56708
-3.4696
-3.37118
-3.27793
-3.20303
-3.99661
-3.98646
-3.96631
-3.93645
-3.89734
-3.84962
-3.79419
-3.7323
-3.66575
-3.59723
-3.53107
-3.47513
-3.44776
-3.51191
-3.97059
-3.88099
-3.87152
-3.85275
-3.82504
-3.78899
-3.74546
-3.69573
-3.64164
-3.58592
-3.53265
-3.48799
-3.46082
-3.46081
-3.47188
-3.23554
-3.77197
-3.76305
-3.7454
-3.71943
-3.68583
-3.64562
-3.60031
-3.55213
-3.5044
-3.46211
-3.43276
-3.42767
-3.46617
-3.60364
-4.15724
-3.66915
-3.66064
-3.64383
-3.61914
-3.58729
-3.54934
-3.50689
-3.46231
-3.41911
-3.3826
-3.3607
-3.36426
-3.40281
-3.4464
-3.14893
-3.57226
-3.56402
-3.54774
-3.52384
-3.49298
-3.4562
-3.41498
-3.37154
-3.32918
-3.29297
-3.27095
-3.27657
-3.33597
-3.52597
-4.24824
-3.4811
-3.47299
-3.45696
-3.43337
-3.40281
-3.36615
-3.32462
-3.28003
-3.23498
-3.1935
-3.16204
-3.15154
-3.17847
-3.23587
-2.96438
-3.39557
-3.38748
-3.37145
-3.34776
-3.31689
-3.27948
-3.23641
-3.18884
-3.13833
-3.08708
-3.03858
-3.00052
-2.99981
-3.17413
-4.37647
-3.31568
-3.3075
-3.29126
-3.26716
-3.23552
-3.19676
-3.15133
-3.0997
-3.04221
-2.97876
-2.90789
-2.82358
-2.69962
-2.39847
-1.07719
-3.24147
-3.23313
-3.21653
-3.1918
-3.15912
-3.11867
-3.07056
-3.01464
-2.95025
-2.8756
-2.78655
-2.67419
-2.52248
-2.3312
-2.40642
-3.17307
-3.16451
-3.14746
-3.12197
-3.08812
-3.04593
-2.99523
-2.93548
-2.86542
-2.78245
-2.68141
-2.55214
-2.37283
-2.07885
-1.34345
-3.11061
-3.10182
-3.08425
-3.05795
-3.02293
-2.97911
-2.92619
-2.86348
-2.78957
-2.70187
-2.59589
-2.46486
-2.30281
-2.13302
-2.21396
-3.05428
-3.04522
-3.02712
-3
-2.96387
-2.91862
-2.86396
-2.79927
-2.72332
-2.63399
-2.52777
-2.39912
-2.2382
-2.01303
-1.51948
-3.00425
-2.99491
-2.97626
-2.94833
-2.91115
-2.86466
-2.80871
-2.74288
-2.66637
-2.57786
-2.47525
-2.35581
-2.21822
-2.07938
-2.10321
-2.96071
-2.95108
-2.93185
-2.90309
-2.86489
-2.8173
-2.76034
-2.69391
-2.61778
-2.53152
-2.43441
-2.32512
-2.19911
-2.03274
-1.6818
-2.92388
-2.91392
-2.89407
-2.86443
-2.82516
-2.77646
-2.71855
-2.65169
-2.57624
-2.49272
-2.40206
-2.30606
-2.20805
-2.11424
-2.03813
-2.89397
-2.88365
-2.8631
-2.83247
-2.792
-2.74202
-2.68298
-2.61546
-2.54032
-2.45888
-2.37343
-2.28839
-2.2141
-2.18341
-2.3415
-2.87123
-2.8605
-2.83913
-2.80734
-2.76545
-2.7139
-2.65331
-2.58453
-2.50877
-2.42784
-2.34453
-2.26327
-2.18987
-2.12147
-1.95612
-2.85596
-2.84474
-2.82242
-2.78924
-2.74561
-2.69205
-2.62933
-2.55846
-2.48084
-2.39845
-2.31422
-2.23269
-2.16219
-2.12682
-2.25422
-2.84849
-2.83669
-2.81325
-2.77842
-2.73267
-2.67659
-2.61103
-2.53709
-2.45622
-2.37036
-2.28205
-2.19447
-2.11012
-2.01912
-1.81125
-2.84922
-2.83676
-2.81198
-2.77521
-2.7269
-2.66772
-2.59856
-2.52054
-2.43509
-2.34398
-2.24937
-2.15403
-2.06268
-1.99256
-2.05324
-2.85861
-2.84538
-2.81907
-2.78001
-2.72869
-2.6658
-2.59224
-2.50915
-2.41789
-2.32003
-2.21721
-2.11082
-2.0005
-1.87515
-1.64662
-2.8772
-2.86308
-2.83502
-2.79333
-2.73852
-2.67129
-2.59256
-2.50345
-2.4053
-2.29954
-2.18755
-2.07034
-1.94879
-1.82937
-1.77184
-2.90559
-2.89049
-2.86044
-2.81578
-2.75699
-2.68478
-2.60008
-2.50403
-2.39799
-2.28339
-2.16152
-2.03288
-1.8956
-1.74057
-1.52879
-2.94449
-2.92828
-2.89603
-2.84803
-2.78478
-2.70696
-2.6155
-2.51157
-2.39662
-2.27229
-2.14022
-2.00143
-1.85473
-1.69118
-1.46681
-2.99464
-2.97723
-2.94255
-2.89089
-2.8227
-2.73863
-2.63958
-2.52678
-2.40178
-2.26658
-2.12358
-1.97547
-1.82558
-1.68401
-1.61958
-3.05689
-3.03818
-3.00088
-2.94524
-2.87165
-2.7807
-2.67324
-2.55045
-2.41402
-2.2663
-2.11051
-1.95075
-1.79066
-1.62326
-1.35686
-3.13214
-3.11205
-3.07195
-3.01205
-2.93266
-2.83425
-2.71753
-2.5836
-2.43411
-2.27163
-2.10021
-1.92625
-1.76083
-1.63123
-1.66595
-3.22135
-3.19981
-3.15679
-3.09241
-3.00688
-2.90051
-2.7738
-2.62757
-2.46323
-2.28318
-2.09167
-1.89583
-1.70613
-1.52508
-1.2422
-3.32553
-3.3025
-3.25647
-3.18747
-3.09558
-2.9809
-2.84362
-2.68413
-2.50325
-2.30271
-2.08613
-1.86116
-1.64542
-1.48964
-1.59532
-3.4457
-3.42117
-3.3721
-3.29844
-3.20012
-3.077
-2.92888
-2.75556
-2.55693
-2.33337
-2.08642
-1.8201
-1.54309
-1.2726
-1.04837
-3.58291
-3.55689
-3.5048
-3.42654
-3.32188
-3.19045
-3.03165
-2.84456
-2.62793
-2.38029
-2.10017
-1.78646
-1.43623
-1.02342
-0.345655
-3.7382
-3.71072
-3.6557
-3.57297
-3.46224
-3.32293
-3.15407
-2.95407
-2.72048
-2.44976
-2.13725
-1.77818
-1.37283
-0.958237
-0.830798
-3.91258
-3.88368
-3.82583
-3.73886
-3.62245
-3.47593
-3.29812
-3.08692
-2.83883
-2.54825
-2.20669
-1.80203
-1.31585
-0.693624
0.431217
-4.10703
-4.07676
-4.01619
-3.92521
-3.80356
-3.65067
-3.46535
-3.24539
-2.98669
-2.68215
-2.31994
-1.88252
-1.35336
-0.778035
-0.695538
-4.3225
-4.29089
-4.22767
-4.13287
-4.00639
-3.84792
-3.65666
-3.43075
-3.1664
-2.8561
-2.48544
-2.0267
-1.42294
-0.520191
1.40502
-4.55994
-4.52696
-4.4611
-4.36252
-4.23142
-4.06796
-3.87203
-3.64282
-3.37801
-3.07197
-2.71211
-2.27159
-1.70015
-0.972378
-0.785491
-4.82028
-4.78588
-4.71725
-4.61476
-4.47894
-4.31056
-4.11051
-3.87963
-3.61827
-3.32521
-2.99481
-2.60741
-2.08594
-1.04894
2.7819
-5.10451
-5.06857
-4.99693
-4.89013
-4.74908
-4.57516
-4.3704
-4.13759
-3.88054
-3.60439
-3.31709
-3.03633
-2.82974
-3.06565
-6.08522
-5.41371
-5.37605
-5.30103
-5.1893
-5.04204
-4.86119
-4.64977
-4.41241
-4.15607
-3.89133
-3.63482
-3.41376
-3.26624
-3.14927
-1.95435
-5.74906
-5.70949
-5.63062
-5.51315
-5.35834
-5.16844
-4.94715
-4.7004
-4.43745
-4.17256
-3.92794
-3.74012
-3.68153
-3.98145
-5.91197
-6.1119
-6.07021
-5.98704
-5.86293
-5.69902
-5.49749
-5.26221
-4.99965
-4.72018
-4.43971
-4.18161
-3.97675
-3.84784
-3.68128
-2.29185
-6.50369
-6.45974
-6.37188
-6.24034
-6.06582
-5.84999
-5.59623
-5.31066
-5.0036
-4.69133
-4.39831
-4.16063
-4.04031
-4.2303
-5.88887
-6.92601
-6.87977
-6.78707
-6.64761
-6.46132
-6.22884
-5.95233
-5.63659
-5.29063
-4.92959
-4.57658
-4.26302
-4.01729
-3.75948
-2.45559
-7.38045
-7.33206
-7.23472
-7.0874
-6.88889
-6.63827
-6.33567
-5.9835
-5.58815
-5.16229
-4.72744
-4.31832
-4.00266
-4.01509
-5.61811
-7.86849
-7.81836
-7.71708
-7.56274
-7.35266
-7.0838
-6.75345
-6.36039
-5.90687
-5.40122
-4.86045
-4.3087
-3.76018
-3.16613
-2.3925
-8.39135
-8.34017
-8.2363
-8.0768
-7.85725
-7.57204
-7.21476
-6.77927
-6.26178
-5.66456
-5.00108
-4.29685
-3.54931
-2.44188
1.37038
-8.94976
-8.89856
-8.79417
-8.63254
-8.40745
-8.11034
-7.7304
-7.2551
-6.67206
-5.9739
-5.17001
-4.31507
-3.58838
-3.59596
-6.95636
-9.54373
-9.49389
-9.39178
-9.23237
-9.00765
-8.70615
-8.31225
-7.80576
-7.1623
-6.35666
-5.3744
-4.24424
-3.11754
-2.4217
-2.87964
-10.1723
-10.1255
-10.0292
-9.87754
-9.66118
-9.36613
-8.9723
-8.45155
-7.76515
-6.86207
-5.68151
-4.17099
-2.3475
-0.44621
0.879096
-10.8334
-10.7916
-10.705
-10.5677
-10.3694
-10.0947
-9.7205
-9.21236
-8.51848
-7.56019
-6.21774
-4.3151
-1.63147
1.92928
5.5582
-11.5235
-11.4887
-11.4161
-11.3001
-11.1306
-10.8924
-10.5617
-10.1022
-9.45544
-8.52508
-7.14301
-5.00154
-1.52457
4.25742
12.7574
-12.2379
-12.2119
-12.1575
-12.0696
-11.9396
-11.7542
-11.4925
-11.1219
-10.5894
-9.80366
-8.59565
-6.61543
-3.01836
4.69805
25.8594
-146.566
-88.0645
-61.5595
-48.8949
-42.1121
-38.0616
-35.4306
-33.6172
-32.3176
-31.3656
-30.6638
-30.1529
-29.7956
-29.5686
-29.4583
-182.331
-82.4037
-54.6805
-43.9929
-38.6321
-35.4481
-33.3533
-31.8859
-30.8184
-30.0264
-29.4366
-29.0039
-28.6996
-28.5055
-28.4109
47.0214
-26.6011
-35.9711
-35.3918
-33.6404
-32.0781
-30.8402
-29.8769
-29.1279
-28.5467
-28.1004
-27.7658
-27.527
-27.3732
-27.2979
-7.01123
-15.4181
-24.1711
-27.6045
-28.5173
-28.4829
-28.1365
-27.7191
-27.3207
-26.9734
-26.6865
-26.4612
-26.2953
-26.1864
-26.1325
25.9837
-3.9948
-16.0652
-21.5677
-24.052
-25.1044
-25.4821
-25.5482
-25.4782
-25.358
-25.23
-25.1153
-25.0241
-24.9615
-24.9298
-1.39236
-5.00765
-12.5204
-17.6269
-20.581
-22.1945
-23.044
-23.4717
-23.6705
-23.7481
-23.7643
-23.7529
-23.733
-23.7151
-23.705
11.5185
-3.3139
-10.6467
-15.1808
-18.0411
-19.8151
-20.8988
-21.5541
-21.9472
-22.1807
-22.3178
-22.3966
-22.4405
-22.4634
-22.4731
-3.04667
-6.82819
-10.7164
-13.8972
-16.2556
-17.915
-19.0511
-19.8186
-20.3345
-20.6805
-20.9116
-21.0645
-21.1626
-21.2209
-21.248
-14.9857
-10.2684
-11.2773
-13.1847
-14.9553
-16.3785
-17.4592
-18.258