/*--------------------------------*- C++ -*----------------------------------*\
| =========                 |                                                 |
| \\      /  F ield         | OpenFOAM: The Open Source CFD Toolbox           |
|  \\    /   O peration     | Version:  5.x                                   |
|   \\  /    A nd           | Web:      www.OpenFOAM.org                      |
|    \\/     M anipulation  |                                                 |
\*---------------------------------------------------------------------------*/
FoamFile
{
    version     2.0;
    format      ascii;
    class       volScalarField;
    location    "14.6001";
    object      gradTx;
}
// * * * * * * * * * * * * * * * * * * * * * * * * * * * * * * * * * * * * * //

dimensions      [0 -1 0 1 0 0 0];

internalField   nonuniform List<scalar> 
6300
(
-31.9392
-32.0099
-32.1507
-32.3602
-32.6361
-32.9752
-33.3733
-33.825
-34.3236
-34.8609
-35.4276
-36.0133
-36.6069
-37.1972
-37.7735
-31.8684
-31.9398
-32.0821
-32.2938
-32.5728
-32.9162
-33.3198
-33.7782
-34.2848
-34.8315
-35.4086
-36.0054
-36.6102
-37.2111
-37.7968
-31.7262
-31.7989
-31.9439
-32.16
-32.4453
-32.797
-33.2113
-33.6832
-34.206
-34.7716
-35.3699
-35.9894
-36.6174
-37.2404
-37.8454
-31.5111
-31.5858
-31.7347
-31.957
-32.2512
-32.6151
-33.0453
-33.5372
-34.0845
-34.6789
-35.31
-35.965
-36.6296
-37.2877
-37.9235
-31.2214
-31.2984
-31.4521
-31.6821
-31.9876
-32.3669
-32.8176
-33.3359
-33.9159
-34.5496
-35.226
-35.9312
-36.6481
-37.3572
-38.0381
-30.8547
-30.9342
-31.0932
-31.3318
-31.65
-32.0473
-32.5224
-33.0727
-33.6936
-34.3775
-35.1134
-35.8858
-36.6745
-37.4548
-38.1996
-30.4086
-30.4904
-30.6546
-30.9018
-31.2333
-31.6499
-32.152
-32.7391
-33.4082
-34.1534
-34.9642
-35.8241
-36.7092
-37.5882
-38.4233
-29.8806
-29.9644
-30.1328
-30.3877
-30.7314
-31.1668
-31.6968
-32.3233
-33.0467
-33.8638
-34.7661
-35.7371
-36.75
-37.7653
-38.7307
-29.2688
-29.3536
-29.5247
-29.7848
-30.1379
-30.5893
-31.1449
-31.8107
-32.5915
-33.4891
-34.4992
-35.6082
-36.7883
-37.9925
-39.1497
-28.5722
-28.6567
-28.8275
-29.0887
-29.4461
-29.9076
-30.4829
-31.1832
-32.0197
-33.0017
-34.1334
-35.4082
-36.8025
-38.2667
-39.7125
-27.7911
-27.8733
-28.0401
-28.2965
-28.6502
-29.1121
-29.696
-30.4195
-31.3022
-32.3648
-33.6244
-35.0887
-36.7469
-38.5593
-40.4399
-26.9278
-27.0053
-27.1631
-27.4069
-27.7462
-28.1944
-28.7697
-29.4965
-30.405
-31.5307
-32.9107
-34.5752
-36.5365
-38.7835
-41.2892
-25.987
-26.057
-26.1999
-26.422
-26.7335
-27.1495
-27.692
-28.3917
-29.2904
-30.4424
-31.9122
-33.7639
-36.0388
-38.7467
-41.9879
-24.9762
-25.0358
-25.1576
-25.3478
-25.6161
-25.9781
-26.4571
-27.088
-27.9225
-29.036
-30.531
-32.5271
-35.1029
-38.1662
-41.5805
-23.9059
-23.9522
-24.0471
-24.1953
-24.4051
-24.6898
-25.0704
-25.5806
-26.2757
-27.2474
-28.6469
-30.7049
-33.6633
-37.1972
-37.6383
-38.2825
-38.7223
-39.1379
-39.5275
-39.89
-40.2255
-40.5343
-40.8168
-41.0735
-41.304
-41.5078
-41.684
-41.8314
-41.9493
-42.0377
-42.0974
-42.1303
-42.1393
-42.1283
-42.1015
-42.0633
-42.0173
-41.9665
-41.9126
-41.8563
-41.7969
-41.7329
-41.6624
-41.5835
-41.4947
-41.3953
-41.2858
-41.1676
-41.0429
-40.9146
-40.7856
-40.6584
-40.5349
-40.416
-40.3014
-40.19
-40.0799
-39.9686
-39.854
-39.7344
-39.6088
-39.4772
-39.3408
-39.2016
-39.0619
-38.9243
-38.7912
-38.664
-38.5435
-38.4294
-38.3203
-38.2143
-38.1091
-38.0025
-37.8928
-37.779
-37.6612
-37.5403
-37.4181
-37.2969
-37.1792
-37.0672
-36.9623
-36.8652
-36.7758
-36.6931
-36.6153
-36.5406
-36.4675
-36.3948
-36.3226
-36.2517
-36.1845
-36.1239
-36.074
-36.0385
-36.0214
-36.0255
-36.0525
-36.1026
-36.1742
-36.2638
-36.3664
-36.476
-36.5857
-38.3128
-38.7571
-39.1755
-39.5664
-39.929
-40.2639
-40.572
-40.8542
-41.1111
-41.3425
-41.5477
-41.7253
-41.8738
-41.9919
-42.0791
-42.136
-42.1646
-42.1682
-42.151
-42.1181
-42.0744
-42.0242
-41.9708
-41.9162
-41.8608
-41.8035
-41.7423
-41.6745
-41.5977
-41.5098
-41.4099
-41.2984
-41.1769
-41.0481
-40.9156
-40.7829
-40.653
-40.5283
-40.4097
-40.2969
-40.1883
-40.0814
-39.9734
-39.8613
-39.743
-39.6173
-39.4842
-39.345
-39.2022
-39.0588
-38.918
-38.7826
-38.6544
-38.5344
-38.4221
-38.3158
-38.2131
-38.1111
-38.007
-37.8987
-37.7849
-37.6656
-37.5421
-37.4166
-37.2919
-37.1711
-37.0569
-36.9509
-36.8542
-36.7663
-36.6859
-36.6107
-36.5384
-36.4668
-36.3943
-36.3205
-36.2466
-36.1748
-36.1088
-36.053
-36.0122
-35.9908
-35.9925
-36.0193
-36.0718
-36.1482
-36.2449
-36.3565
-36.476
-36.5956
-38.3757
-38.8291
-39.2529
-39.6458
-40.008
-40.341
-40.647
-40.928
-41.1853
-41.4188
-41.6273
-41.8086
-41.96
-42.079
-42.1641
-42.2154
-42.235
-42.2268
-42.1965
-42.1503
-42.0948
-42.0357
-41.977
-41.9211
-41.8679
-41.8157
-41.761
-41.6998
-41.6279
-41.5423
-41.4413
-41.3253
-41.1966
-41.0588
-40.917
-40.7761
-40.6403
-40.5129
-40.3951
-40.2862
-40.184
-40.0847
-39.984
-39.8776
-39.7624
-39.6364
-39.4998
-39.3544
-39.2037
-39.052
-38.9039
-38.7634
-38.6331
-38.5143
-38.4061
-38.3062
-38.2109
-38.1161
-38.0177
-37.9124
-37.7986
-37.6761
-37.5468
-37.4139
-37.2814
-37.1537
-37.0345
-36.9264
-36.8305
-36.7461
-36.6711
-36.6021
-36.5353
-36.4673
-36.3955
-36.3188
-36.2383
-36.1567
-36.0788
-36.0105
-35.9579
-35.9271
-35.9232
-35.9493
-36.0064
-36.0929
-36.2047
-36.3351
-36.4756
-36.6166
-38.4763
-38.9436
-39.3749
-39.7694
-40.1289
-40.457
-40.758
-41.0361
-41.2937
-41.531
-41.7461
-41.935
-42.0929
-42.2149
-42.2977
-42.3404
-42.3453
-42.3175
-42.2647
-42.196
-42.1206
-42.0464
-41.9793
-41.9219
-41.8738
-41.8315
-41.7892
-41.7403
-41.6779
-41.5969
-41.4944
-41.3707
-41.2291
-41.0755
-40.9172
-40.7617
-40.6157
-40.4837
-40.3675
-40.266
-40.1755
-40.09
-40.0026
-39.9068
-39.7972
-39.6709
-39.528
-39.3714
-39.2065
-39.04
-38.879
-38.7294
-38.5955
-38.4788
-38.3781
-38.2898
-38.208
-38.1263
-38.0382
-37.9386
-37.8247
-37.6965
-37.5567
-37.4105
-37.264
-37.1239
-36.9961
-36.8843
-36.7901
-36.7124
-36.6475
-36.5901
-36.5341
-36.4734
-36.4037
-36.3227
-36.2314
-36.1334
-36.0353
-35.9452
-35.8721
-35.8249
-35.8106
-35.8345
-35.8985
-36.0013
-36.1377
-36.2992
-36.4747
-36.651
-38.6234
-39.1098
-39.5499
-39.9436
-40.2951
-40.6118
-40.9022
-41.1737
-41.4312
-41.6753
-41.9026
-42.1063
-42.2774
-42.4072
-42.489
-42.5201
-42.5027
-42.4442
-42.3559
-42.2514
-42.1445
-42.0471
-41.9675
-41.9094
-41.8713
-41.8471
-41.8271
-41.8001
-41.7548
-41.6823
-41.5779
-41.4417
-41.279
-41.0989
-40.9132
-40.7337
-40.5708
-40.4316
-40.3187
-40.2302
-40.1598
-40.0979
-40.0336
-39.9558
-39.8559
-39.7293
-39.5759
-39.4005
-39.2117
-39.0203
-38.8375
-38.6729
-38.533
-38.4202
-38.3325
-38.2639
-38.2052
-38.1457
-38.0752
-37.9853
-37.8714
-37.7335
-37.5761
-37.4073
-37.2373
-37.0767
-36.9345
-36.8169
-36.7261
-36.6602
-36.6132
-36.5763
-36.5394
-36.4926
-36.428
-36.3416
-36.234
-36.1103
-35.9801
-35.8553
-35.7493
-35.6749
-35.6432
-35.662
-35.735
-35.8612
-36.0344
-36.2434
-36.4724
-36.7032
-38.8309
-39.3428
-39.7916
-40.1784
-40.5114
-40.8045
-41.0734
-41.3317
-41.588
-41.8438
-42.0932
-42.3243
-42.5214
-42.6686
-42.7533
-42.7695
-42.7194
-42.6138
-42.4704
-42.3102
-42.1547
-42.0221
-41.9249
-41.8681
-41.8488
-41.8565
-41.8753
-41.8863
-41.8708
-41.8139
-41.7072
-41.551
-41.3537
-41.1305
-40.9002
-40.6819
-40.492
-40.3416
-40.2348
-40.1683
-40.1317
-40.1096
-40.0838
-40.0364
-39.9533
-39.8263
-39.6555
-39.4488
-39.2205
-38.9882
-38.7698
-38.5808
-38.4314
-38.3254
-38.2594
-38.2237
-38.2034
-38.1812
-38.1401
-38.0665
-37.9527
-37.7987
-37.6119
-37.4058
-37.1971
-37.0029
-36.8376
-36.7109
-36.6264
-36.5807
-36.5642
-36.5626
-36.5591
-36.5373
-36.4837
-36.3911
-36.2596
-36.0968
-35.917
-35.7384
-35.5809
-35.4637
-35.4031
-35.4113
-35.4948
-35.6534
-35.8797
-36.1586
-36.4677
-36.78
-39.1201
-39.6666
-40.1227
-40.4905
-40.7853
-41.0323
-41.2598
-41.4924
-41.7454
-42.0214
-42.3102
-42.5912
-42.8372
-43.02
-43.1165
-43.1143
-43.0159
-42.8381
-42.609
-42.3624
-42.132
-41.9462
-41.8241
-41.7729
-41.7873
-41.85
-41.9348
-42.0106
-42.0464
-42.017
-41.908
-41.7195
-41.4659
-41.1724
-40.8698
-40.5891
-40.3563
-40.1888
-40.093
-40.0632
-40.0827
-40.1265
-40.165
-40.1687
-40.1137
-39.9863
-39.7867
-39.5284
-39.2351
-38.9359
-38.6599
-38.4316
-38.2673
-38.1729
-38.1428
-38.1612
-38.2043
-38.2438
-38.2518
-38.2055
-38.0919
-37.911
-37.6755
-37.4081
-37.1362
-36.8874
-36.6849
-36.5442
-36.4708
-36.459
-36.4937
-36.5516
-36.6053
-36.6275
-36.5957
-36.4967
-36.3301
-36.1079
-35.8521
-35.591
-35.3545
-35.1708
-35.064
-35.0523
-35.1463
-35.3481
-35.6495
-36.0302
-36.4582
-36.8925
-39.5242
-40.1206
-40.581
-40.9076
-41.1279
-41.288
-41.4388
-41.6239
-41.8698
-42.1805
-42.5386
-42.9086
-43.2441
-43.4957
-43.6216
-43.5979
-43.4267
-43.1361
-42.7727
-42.3912
-42.0451
-41.7785
-41.6211
-41.5835
-41.6562
-41.8115
-42.0072
-42.1925
-42.316
-42.3346
-42.2231
-41.9817
-41.6355
-41.2273
-40.808
-40.4273
-40.1265
-39.9329
-39.8562
-39.887
-39.9987
-40.1511
-40.2964
-40.3856
-40.3782
-40.2505
-40.0026
-39.6583
-39.2581
-38.8502
-38.4813
-38.1902
-38.0027
-37.9278
-37.9564
-38.0633
-38.2103
-38.3519
-38.4418
-38.4413
-38.328
-38.1018
-37.7852
-37.4168
-37.0419
-36.7051
-36.4433
-36.2808
-36.2262
-36.2707
-36.3897
-36.5465
-36.6969
-36.7956
-36.8043
-36.6998
-36.4808
-36.1672
-35.7951
-35.4083
-35.0519
-34.7671
-34.5882
-34.541
-34.6425
-34.8994
-35.3049
-35.8339
-36.4398
-37.0585
-40.094
-40.7704
-41.2321
-41.4775
-41.5575
-41.5569
-41.5683
-41.668
-41.9007
-42.2715
-42.7496
-43.2756
-43.7717
-44.1526
-44.3421
-44.2938
-44.0095
-43.5391
-42.9625
-42.3692
-41.8435
-41.4538
-41.2455
-41.235
-41.4064
-41.7151
-42.0944
-42.4634
-42.7369
-42.8395
-42.7255
-42.395
-41.8943
-41.2981
-40.6905
-40.1505
-39.7424
-39.5086
-39.4645
-39.5944
-39.856
-40.1861
-40.5083
-40.7418
-40.816
-40.6876
-40.3572
-39.8686
-39.2925
-38.7083
-38.1905
-37.7997
-37.576
-37.5335
-37.6574
-37.9075
-38.2241
-38.5344
-38.762
-38.8397
-38.7265
-38.4227
-37.9697
-37.4346
-36.8928
-36.4149
-36.0586
-35.8622
-35.8389
-35.9748
-36.2313
-36.5508
-36.863
-37.0934
-37.1757
-37.0679
-36.7675
-36.3108
-35.759
-35.1818
-34.6463
-34.2109
-33.9225
-33.8158
-33.9151
-34.2366
-34.7826
-35.5267
-36.4028
-37.3073
-40.9063
-41.7292
-42.1946
-42.2856
-42.103
-41.8088
-41.5705
-41.5205
-41.7326
-42.2082
-42.8915
-43.6858
-44.4652
-45.085
-45.4049
-45.3295
-44.8604
-44.095
-43.1761
-42.2501
-41.4461
-40.8677
-40.5851
-40.6247
-40.9589
-41.5169
-42.1963
-42.872
-43.4036
-43.6564
-43.5394
-43.0535
-42.2906
-41.3853
-40.4759
-39.6839
-39.107
-38.8115
-38.822
-39.1121
-39.6146
-40.2326
-40.8478
-41.3277
-41.5453
-41.4155
-40.9396
-40.2049
-39.3384
-38.4709
-37.7169
-37.1686
-36.8884
-36.8995
-37.1766
-37.6563
-38.2467
-38.8359
-39.2981
-39.513
-39.3995
-38.9584
-38.2725
-37.4622
-36.6516
-35.9495
-35.4438
-35.1941
-35.2225
-35.5054
-35.9823
-36.5654
-37.1468
-37.6046
-37.8207
-37.7135
-37.2792
-36.5915
-35.7596
-34.8954
-34.0967
-33.4431
-32.995
-32.7938
-32.8677
-33.2507
-33.9749
-35.0293
-36.325
-37.6885
-42.0712
-43.2033
-43.6958
-43.4873
-42.8092
-41.9805
-41.3014
-40.9957
-41.1849
-41.8456
-42.8737
-44.1174
-45.3883
-46.4495
-47.0367
-46.9324
-46.1377
-44.8722
-43.3998
-41.9554
-40.724
-39.8555
-39.4607
-39.5903
-40.1892
-41.1437
-42.3037
-43.4881
-44.472
-45.0057
-44.8846
-44.1107
-42.8921
-41.4785
-40.092
-38.9074
-38.0664
-37.6737
-37.777
-38.324
-39.2069
-40.2832
-41.3821
-42.291
-42.775
-42.642
-41.8948
-40.7308
-39.3859
-38.0698
-36.9471
-36.1515
-35.7815
-35.8822
-36.4042
-37.2454
-38.2713
-39.3201
-40.1904
-40.6593
-40.544
-39.8468
-38.7544
-37.4904
-36.2539
-35.2015
-34.4605
-34.1253
-34.2395
-34.7567
-35.5803
-36.5826
-37.6085
-38.4638
-38.9312
-38.83
-38.1559
-37.0797
-35.8066
-34.5146
-33.3379
-32.3795
-31.7121
-31.3759
-31.3751
-31.7733
-32.6919
-34.1844
-36.1495
-38.2898
-43.7174
-45.6003
-46.2072
-45.3633
-43.7312
-41.9369
-40.4948
-39.7585
-39.9581
-40.9539
-42.5454
-44.5097
-46.6135
-48.4966
-49.6644
-49.5295
-48.0932
-45.9471
-43.5831
-41.3542
-39.4791
-38.1614
-37.5812
-37.8801
-38.9074
-40.4748
-42.3757
-44.3931
-46.1885
-47.2979
-47.1698
-45.8084
-43.7742
-41.5326
-39.4176
-37.636
-36.3805
-35.8215
-36.0932
-37.0523
-38.5204
-40.3014
-42.1899
-43.8663
-44.8932
-44.7527
-43.4504
-41.517
-39.3921
-37.3903
-35.7063
-34.5214
-33.9966
-34.2585
-35.172
-36.5685
-38.2629
-40.0613
-41.6609
-42.6468
-42.5264
-41.3044
-39.4831
-37.4792
-35.5912
-34.0048
-32.8929
-32.4095
-32.6764
-33.5665
-34.9212
-36.5658
-38.3159
-39.8814
-40.8604
-40.7718
-39.6115
-37.8516
-35.8806
-33.9678
-32.2649
-30.8967
-29.9523
-29.4748
-29.3078
-29.5467
-30.5825
-32.6591
-35.7218
-39.2753
-45.8371
-49.8436
-50.8161
-48.3723
-44.8804
-41.385
-38.6725
-37.1739
-37.5848
-39.2045
-41.6803
-44.7012
-48.1564
-51.5735
-54.1681
-54.0005
-51.0706
-47.3359
-43.5719
-40.2434
-37.4316
-35.4052
-34.4359
-35.1209
-36.8476
-39.3259
-42.28
-45.6176
-48.8931
-51.3722
-51.2309
-48.475
-44.9548
-41.4046
-38.2629
-35.6072
-33.6913
-32.7734
-33.4192
-35.0476
-37.3834
-40.1648
-43.3033
-46.3766
-48.6927
-48.5361
-45.9149
-42.5789
-39.2211
-36.2531
-33.7468
-31.9408
-31.079
-31.6965
-33.2442
-35.4626
-38.1049
-41.0888
-44.015
-46.2272
-46.0952
-43.6252
-40.4747
-37.3008
-34.4945
-32.1248
-30.42
-29.6134
-30.2157
-31.7073
-33.8447
-36.3968
-39.2893
-42.1437
-44.3271
-44.2567
-41.9304
-38.9275
-35.871
-33.1187
-30.71
-28.8035
-27.5204
-27.1265
-26.6562
-26.1724
-26.9743
-29.7137
-34.5873
-40.9767
-47.3645
-58.4752
-60.3941
-52.9105
-46.0194
-39.6976
-35.1002
-31.8391
-33.4706
-36.2224
-40.0301
-44.2674
-49.7542
-55.8348
-62.6494
-62.4491
-55.2071
-48.7668
-42.9337
-38.3887
-34.2532
-31.1268
-28.9082
-30.8619
-33.7056
-37.4918
-41.6319
-46.9317
-52.7444
-59.2197
-59.0572
-52.2422
-46.1787
-40.6883
-36.4085
-32.513
-29.5652
-27.4734
-29.3305
-32.0242
-35.6049
-39.5137
-44.5108
-49.9772
-56.053
-55.8685
-49.4087
-43.6723
-38.4887
-34.451
-30.7788
-28.0004
-26.031
-27.7952
-30.3505
-33.7464
-37.4552
-42.1992
-47.3972
-53.1835
-53.0306
-46.9258
-41.4999
-36.5932
-32.7688
-29.2875
-26.6538
-24.7885
-26.4743
-28.9183
-32.171
-35.7378
-40.3174
-45.3721
-51.0393
-50.9901
-45.2235
-40.0807
-35.4233
-31.7748
-28.4321
-25.8124
-23.808
-24.8884
-24.0241
-20.9466
-20.576
-23.6952
-31.27
-44.1083
-40.9768
-80.2908
-83.6896
-56.7765
-46.3641
-35.524
-29.603
-19.4588
-27.7433
-31.7197
-37.7614
-42.0341
-50.4971
-59.0389
-81.2322
-81.0377
-58.1892
-49.3231
-40.4407
-35.9441
-29.6218
-25.5413
-17.3725
-25.3212
-29.2065
-35.1481
-39.3139
-47.5074
-55.6415
-76.6257
-76.463
-54.9271
-46.5773
-38.229
-34.0004
-28.0543
-24.2063
-16.4871
-24.0371
-27.7233
-33.3542
-37.2952
-45.0424
-52.7005
-72.4279
-72.2375
-51.861
-43.9695
-36.1062
-32.1227
-26.5238
-22.8951
-15.6066
-22.7549
-26.2462
-31.5797
-35.3145
-42.6559
-49.9321
-68.6922
-68.5369
-49.2487
-41.7776
-34.3271
-30.5492
-25.2294
-21.7812
-14.8498
-21.6414
-24.9645
-30.0451
-33.6203
-40.6615
-47.7185
-65.9831
-65.9566
-47.6181
-40.5351
-33.5226
-29.9904
-25.1133
-21.9351
-15.6536
-25.4505
-24.5789
-11.8231
-9.15247
-11.2606
-20.3732
-50.2149
-36.6976
-36.8009
-36.8757
-36.9163
-36.9211
-36.8919
-36.8334
-36.7524
-36.6572
-36.5563
-36.4579
-36.3696
-36.2976
-36.2468
-36.2206
-36.7175
-36.8296
-36.9097
-36.9521
-36.9551
-36.9211
-36.8558
-36.7667
-36.663
-36.5538
-36.4479
-36.3533
-36.2764
-36.2223
-36.1944
-36.7597
-36.8902
-36.9816
-37.0273
-37.0261
-36.9819
-36.9018
-36.7957
-36.6742
-36.5479
-36.4267
-36.3192
-36.2323
-36.1715
-36.1402
-36.8294
-36.9899
-37.0991
-37.1492
-37.1403
-37.0783
-36.974
-36.8401
-36.6901
-36.5368
-36.3917
-36.2644
-36.1623
-36.0912
-36.0548
-36.9354
-37.141
-37.2756
-37.3304
-37.3074
-37.2172
-37.0757
-36.9006
-36.7093
-36.5177
-36.3391
-36.1842
-36.0614
-35.9763
-35.9329
-37.0921
-37.3631
-37.532
-37.5892
-37.5416
-37.4075
-37.2111
-36.9772
-36.7289
-36.4855
-36.2627
-36.0722
-35.9226
-35.8198
-35.7676
-37.3229
-37.6874
-37.9002
-37.9528
-37.8622
-37.6602
-37.3838
-37.0683
-36.7434
-36.4328
-36.1539
-35.9191
-35.7369
-35.6128
-35.55
-37.6657
-38.1633
-38.4286
-38.4598
-38.2942
-37.9873
-37.5958
-37.1686
-36.7438
-36.3484
-36.001
-35.7135
-35.4933
-35.3445
-35.2696
-38.1843
-38.8714
-39.1911
-39.1634
-38.8675
-38.3989
-37.8433
-37.2667
-36.7146
-36.2161
-35.7883
-35.4407
-35.178
-35.0023
-34.9144
-38.991
-39.947
-40.301
-40.1354
-39.6135
-38.8974
-38.112
-37.3404
-36.632
-36.013
-35.4953
-35.0829
-34.7758
-34.5724
-34.4712
-40.2945
-41.6246
-41.9305
-41.4636
-40.5538
-39.4652
-38.3668
-37.3508
-36.4599
-35.7085
-35.097
-34.6199
-34.2698
-34.0404
-33.9269
-42.5159
-44.3265
-44.3327
-43.2347
-41.6729
-40.0428
-38.5391
-37.2361
-36.1482
-35.2641
-34.5645
-34.0297
-33.6432
-33.3923
-33.269
-46.5945
-48.8327
-47.8393
-45.4696
-42.8601
-40.4942
-38.5108
-36.9064
-35.6327
-34.6353
-33.8671
-33.2913
-32.8808
-32.6169
-32.4877
-54.9101
-56.5707
-52.722
-47.9444
-43.8037
-40.5631
-38.1033
-36.2461
-34.841
-33.7773
-32.9773
-32.3876
-31.9719
-31.7066
-31.5774
-74.4921
-69.8179
-58.5336
-49.7824
-43.8472
-39.8511
-37.0932
-35.1336
-33.7078
-32.6556
-31.8773
-31.3098
-30.9127
-30.6604
-30.5377
-22.8823
-22.9145
-22.9802
-23.0824
-23.2264
-23.4209
-23.6803
-24.0294
-24.5126
-25.2152
-26.3133
-28.1979
-31.779
-39.0395
-52.0455
-21.9295
-21.9478
-21.9849
-22.0417
-22.1199
-22.2224
-22.3545
-22.5261
-22.7573
-23.0926
-23.6422
-24.7235
-27.4413
-36.5713
-77.9646
-20.9639
-20.9681
-20.976
-20.9862
-20.9964
-21.0033
-21.0012
-20.9815
-20.93
-20.8214
-20.6001
-20.0936
-18.535
-11.684
25.3283
-19.9954
-19.9859
-19.9654
-19.9306
-19.8754
-19.7904
-19.6601
-19.4589
-19.1425
-18.6291
-17.7576
-16.1871
-13.1993
-7.7294
-3.90511
-19.0335
-19.0114
-18.9649
-18.889
-18.7751
-18.609
-18.3684
-18.0165
-17.4917
-16.6861
-15.4037
-13.2743
-9.56975
-2.62008
13.4546
-18.0869
-18.0538
-17.9848
-17.874
-17.7109
-17.4794
-17.1538
-16.6941
-16.0357
-15.0742
-13.6385
-11.4607
-8.19498
-3.84307
-1.97389
-17.1633
-17.1211
-17.0339
-16.8951
-16.6944
-16.4151
-16.0326
-15.5096
-14.7904
-13.7912
-12.3884
-10.4039
-7.57531
-3.34086
4.91621
-16.2689
-16.2198
-16.1186
-15.9594
-15.7323
-15.4225
-15.0088
-14.4615
-13.7395
-12.7885
-11.5421
-9.93351
-7.93222
-5.63189
-3.47935
-15.4086
-15.3545
-15.2437
-15.0709
-14.8277
-14.5021
-14.078
-13.5347
-12.8476
-11.9909
-10.9473
-9.73588
-8.49689
-7.82022
-10.38
-14.586
-14.5286
-14.4118
-14.2312
-13.9802
-13.65
-13.2298
-12.7078
-12.0735
-11.323
-10.4691
-9.55737
-8.67111
-7.761
-5.04975
-13.8031
-13.7441
-13.6243
-13.4405
-13.1878
-12.8605
-12.4524
-11.9589
-11.3801
-10.727
-10.0311
-9.36117
-8.86191
-8.95255
-11.8451
-13.0613
-13.0017
-12.8812
-12.6975
-12.4473
-12.1271
-11.7343
-11.2692
-10.7384
-10.1608
-9.57506
-9.04645
-8.64306
-8.19833
-5.57003
-12.3608
-12.3015
-12.182
-12.0007
-11.7553
-11.4441
-11.0664
-10.625
-10.1292
-9.60011
-9.07936
-8.64479
-8.45293
-8.96049
-12.5488
-11.7015
-11.6431
-11.5258
-11.3483
-11.1091
-10.8072
-10.4428
-10.0187
-9.54316
-9.03366
-8.52384
-8.07458
-7.7771
-7.58324
-5.46193
-11.0827
-11.0258
-10.9114
-10.7387
-10.5065
-10.2138
-9.86053
-9.44807
-8.9807
-8.46744
-7.92626
-7.39897
-7.02931
-7.54451
-13.4594
-10.5034
-10.4482
-10.3375
-10.1704
-9.94577
-9.66248
-9.31941
-8.91561
-8.4501
-7.92062
-7.31905
-6.61391
-5.66704
-3.75601
3.50984
-9.96239
-9.90933
-9.8028
-9.64202
-9.42584
-9.15268
-8.82045
-8.42599
-7.96394
-7.42386
-6.78378
-5.99672
-4.97433
-3.68614
-3.54945
-9.45824
-9.40753
-9.30575
-9.15213
-8.94546
-8.68391
-8.3647
-7.98331
-7.53197
-6.99654
-6.35057
-5.54295
-4.46622
-2.81661
0.888846
-8.98929
-8.9412
-8.84469
-8.69907
-8.50318
-8.25518
-7.95212
-7.58922
-7.15839
-6.646
-6.02963
-5.27606
-4.35596
-3.37476
-3.50228
-8.55373
-8.50849
-8.41774
-8.28093
-8.09709
-7.86467
-7.58112
-7.2423
-6.84146
-6.36768
-5.80397
-5.12481
-4.28814
-3.16297
-0.887943
-8.14959
-8.10737
-8.02277
-7.89544
-7.72475
-7.50966
-7.24848
-6.93846
-6.57517
-6.15181
-5.65848
-5.08295
-4.42069
-3.7497
-3.78772
-7.77476
-7.73568
-7.65748
-7.54006
-7.38323
-7.18666
-6.94977
-6.6716
-6.35061
-5.98454
-5.57007
-5.10133
-4.5593
-3.84405
-2.34035
-7.42707
-7.39116
-7.31942
-7.21204
-7.06931
-6.89167
-6.67974
-6.43447
-6.15736
-5.85088
-5.51937
-5.1706
-4.81821
-4.48593
-4.22226
-7.10432
-7.07152
-7.00612
-6.90858
-6.77964
-6.62048
-6.43285
-6.21947
-5.9845
-5.73459
-5.48067
-5.24239
-5.06315
-5.08018
-5.92104
-6.80435
-6.77451
-6.71514
-6.62691
-6.51097
-6.36905
-6.20386
-6.01945
-5.82204
-5.6211
-5.4311
-5.2732
-5.17179
-5.10232
-4.56092
-6.52511
-6.49801
-6.4442
-6.36451
-6.26032
-6.1338
-5.98821
-5.82847
-5.66202
-5.50002
-5.35924
-5.26477
-5.25827
-5.45217
-6.46759
-6.26468
-6.24006
-6.19123
-6.11911
-6.02519
-5.91179
-5.78238
-5.64216
-5.4989
-5.36422
-5.25521
-5.19527
-5.20557
-5.23152
-4.61124
-6.02136
-5.99891
-5.95445
-5.88885
-5.80359
-5.7009
-5.58407
-5.45797
-5.32984
-5.21058
-5.11712
-5.077
-5.14202
-5.45964
-6.79224
-5.79362
-5.77307
-5.73234
-5.67226
-5.59411
-5.49983
-5.3922
-5.2752
-5.15461
-5.03903
-4.942
-4.88572
-4.90305
-4.9829
-4.45018
-5.58016
-5.56123
-5.52369
-5.46821
-5.39582
-5.30803
-5.20684
-5.09494
-4.9759
-4.8546
-4.73858
-4.64333
-4.62069
-4.93153
-7.18656
-5.37986
-5.36232
-5.3275
-5.2759
-5.20825
-5.12554
-5.02893
-4.91964
-4.79875
-4.66653
-4.52074
-4.35051
-4.10673
-3.53003
-1.0308
-5.19173
-5.17542
-5.14297
-5.09473
-5.03114
-4.95271
-4.85981
-4.75241
-4.62948
-4.48787
-4.31989
-4.10878
-3.82398
-3.46362
-3.59749
-5.01494
-4.99973
-4.96942
-4.92422
-4.86435
-4.78993
-4.70077
-4.59597
-4.4732
-4.32751
-4.14901
-3.91823
-3.5937
-3.05398
-1.68797
-4.84872
-4.83452
-4.80621
-4.7639
-4.70766
-4.63739
-4.55261
-4.452
-4.33284
-4.18995
-4.01444
-3.79278
-3.51286
-3.21815
-3.39889
-4.69235
-4.67913
-4.65274
-4.61326
-4.56071
-4.49495
-4.41544
-4.32093
-4.20895
-4.07506
-3.91191
-3.70779
-3.44229
-3.05215
-2.14364
-4.54518
-4.53288
-4.50836
-4.47169
-4.42294
-4.36205
-4.28869
-4.202
-4.10027
-3.98051
-3.83783
-3.66545
-3.45829
-3.24611
-3.34903
-4.40654
-4.39514
-4.37242
-4.33852
-4.29361
-4.23783
-4.1712
-4.09351
-4.00414
-3.90186
-3.7844
-3.64726
-3.47778
-3.22125
-2.57206
-4.27582
-4.26526
-4.24425
-4.213
-4.17183
-4.12114
-4.06139
-3.99313
-3.91698
-3.83376
-3.74464
-3.65153
-3.55772
-3.46904
-3.39799
-4.15245
-4.14265
-4.12319
-4.09438
-4.05668
-4.01075
-3.95751
-3.89823
-3.83474
-3.76976
-3.70765
-3.65629
-3.63412
-3.70459
-4.17452
-4.03588
-4.02674
-4.00863
-3.98193
-3.94724
-3.90544
-3.85782
-3.80626
-3.75354
-3.70378
-3.66321
-3.64079
-3.64618
-3.66272
-3.42699
-3.92568
-3.91707
-3.90005
-3.87505
-3.84274
-3.80417
-3.76087
-3.71512
-3.67028
-3.63142
-3.60616
-3.60598
-3.6505
-3.79603
-4.36604
-3.82145
-3.81324
-3.79702
-3.77323
-3.7426
-3.70619
-3.66564
-3.62333
-3.58286
-3.54963
-3.53169
-3.54014
-3.58468
-3.63456
-3.33538
-3.72293
-3.71497
-3.69925
-3.67619
-3.64646
-3.6111
-3.57163
-3.53029
-3.49043
-3.45723
-3.43891
-3.44926
-3.51515
-3.71547
-4.4624
-3.62994
-3.6221
-3.60658
-3.58377
-3.55424
-3.51888
-3.47893
-3.43621
-3.39337
-3.3545
-3.32623
-3.3198
-3.35227
-3.41678
-3.1441
-3.54241
-3.53456
-3.51899
-3.49602
-3.46608
-3.42984
-3.38816
-3.34221
-3.29357
-3.24443
-3.19838
-3.16333
-3.16714
-3.35224
-4.60035
-3.46033
-3.45237
-3.43656
-3.4131
-3.38231
-3.34458
-3.30036
-3.2501
-3.1941
-3.13221
-3.06289
-2.97988
-2.85613
-2.54948
-1.18797
-3.38379
-3.37565
-3.35943
-3.33528
-3.30336
-3.26383
-3.21676
-3.16197
-3.09874
-3.02516
-2.93691
-2.82474
-2.67212
-2.47927
-2.56535
-3.31291
-3.30453
-3.28783
-3.26286
-3.22969
-3.18831
-3.13852
-3.07972
-3.01057
-2.92831
-2.82755
-2.69769
-2.51606
-2.21534
-1.45426
-3.24784
-3.23921
-3.22197
-3.19615
-3.16174
-3.11865
-3.06654
-3.00465
-2.9315
-2.84432
-2.73839
-2.6066
-2.44271
-2.27109
-2.3628
-3.18878
-3.17987
-3.16207
-3.13539
-3.09982
-3.05525
-3.00134
-2.93742
-2.86218
-2.77335
-2.66719
-2.53781
-2.37472
-2.14398
-1.63
-3.13591
-3.12671
-3.10833
-3.08082
-3.04417
-2.99833
-2.94311
-2.87806
-2.80231
-2.71441
-2.61212
-2.49243
-2.35372
-2.21355
-2.2452
-3.08943
-3.07992
-3.06096
-3.03259
-2.9949
-2.94794
-2.89172
-2.82612
-2.75087
-2.66548
-2.56914
-2.46026
-2.33374
-2.16379
-1.79557
-3.04955
-3.03972
-3.02011
-2.99084
-2.95206
-2.90399
-2.84684
-2.78089
-2.70648
-2.62416
-2.53486
-2.44035
-2.34394
-2.2517
-2.17695
-3.01651
-3.0063
-2.98597
-2.95569
-2.9157
-2.86634
-2.80807
-2.74153
-2.6676
-2.58769
-2.50421
-2.42177
-2.35123
-2.32746
-2.50637
-2.99055
-2.97992
-2.95876
-2.92729
-2.88584
-2.83488
-2.77506
-2.7073
-2.63287
-2.55371
-2.47284
-2.39493
-2.32605
-2.26245
-2.09168
-2.97198
-2.96085
-2.93871
-2.90582
-2.86258
-2.80957
-2.74758
-2.67769
-2.60142
-2.52093
-2.43941
-2.36182
-2.2972
-2.27186
-2.42667
-2.96115
-2.94943
-2.92613
-2.89154
-2.84612
-2.79051
-2.72558
-2.65253
-2.57292
-2.48887
-2.40326
-2.3197
-2.24108
-2.15615
-1.93923
-2.95846
-2.94606
-2.9214
-2.88479
-2.83673
-2.77791
-2.70924
-2.63192
-2.54749
-2.45791
-2.36568
-2.27417
-2.18934
-2.13211
-2.23101
-2.9644
-2.9512
-2.92496
-2.886
-2.83483
-2.77216
-2.6989
-2.61625
-2.52564
-2.42879
-2.32761
-2.22399
-2.11843
-1.99963
-1.76215
-2.9795
-2.9654
-2.93735
-2.89569
-2.84092
-2.77375
-2.6951
-2.60611
-2.50814
-2.40268
-2.29124
-2.17516
-2.05673
-1.94956
-1.95762
-3.00439
-2.98928
-2.9592
-2.91449
-2.85563
-2.78332
-2.69847
-2.6022
-2.49583
-2.38074
-2.25808
-2.12798
-1.9872
-1.81946
-1.54166
-3.03979
-3.02355
-2.99123
-2.94311
-2.87968
-2.80161
-2.70978
-2.60532
-2.48958
-2.36406
-2.2301
-2.08822
-1.93639
-1.76579
-1.54974
-3.08647
-3.06901
-3.03422
-2.98237
-2.91391
-2.82945
-2.72986
-2.61627
-2.49013
-2.35323
-2.20762
-2.05538
-1.8986
-1.74369
-1.64072
-3.14528
-3.1265
-3.08905
-3.03317
-2.95924
-2.86781
-2.75967
-2.63593
-2.49814
-2.34846
-2.18976
-2.0257
-1.85952
-1.68551
-1.42719
-3.21713
-3.19695
-3.15669
-3.09651
-3.01673
-2.91777
-2.80031
-2.66535
-2.51443
-2.34994
-2.17563
-1.99749
-1.82586
-1.68589
-1.69327
-3.303
-3.28136
-3.23815
-3.17348
-3.08753
-2.98058
-2.85311
-2.70586
-2.54015
-2.35824
-2.16415
-1.96476
-1.77024
-1.58393
-1.30541
-3.40389
-3.38076
-3.33453
-3.26523
-3.17291
-3.05766
-2.91964
-2.75921
-2.57711
-2.375
-2.15637
-1.92864
-1.70891
-1.546
-1.63141
-3.52084
-3.49621
-3.44693
-3.37296
-3.27421
-3.15054
-3.00175
-2.82759
-2.62797
-2.40324
-2.1549
-1.88697
-1.60813
-1.33561
-1.1094
-3.6549
-3.62877
-3.57648
-3.4979
-3.39283
-3.26088
-3.10146
-2.91367
-2.69628
-2.44786
-2.16704
-1.85289
-1.50296
-1.09306
-0.430281
-3.8071
-3.77951
-3.72428
-3.64125
-3.5301
-3.3903
-3.22088
-3.02029
-2.78615
-2.51499
-2.20234
-1.84364
-1.43944
-1.02611
-0.891655
-3.97846
-3.94946
-3.89139
-3.80411
-3.68729
-3.54029
-3.36195
-3.15023
-2.90171
-2.61093
-2.26962
-1.866
-1.38225
-0.765504
0.341151
-4.16997
-4.13959
-4.0788
-3.98749
-3.86543
-3.71204
-3.5262
-3.30572
-3.04663
-2.74197
-2.38016
-1.94402
-1.41741
-0.845109
-0.755375
-4.38257
-4.35084
-4.28739
-4.19224
-4.06532
-3.90634
-3.7145
-3.48803
-3.22321
-2.91269
-2.54232
-2.08485
-1.48432
-0.589592
1.3083
-4.61721
-4.58411
-4.518
-4.41905
-4.28748
-4.12345
-3.92686
-3.69697
-3.43151
-3.12497
-2.76497
-2.32505
-1.75552
-1.03072
-0.834911
-4.87484
-4.84031
-4.77142
-4.66852
-4.53219
-4.36316
-4.16235
-3.93062
-3.66835
-3.37438
-3.04314
-2.65524
-2.13455
-1.10448
2.68276
-5.15646
-5.12037
-5.04845
-4.94122
-4.79959
-4.62495
-4.41931
-4.18547
-3.92721
-3.64966
-3.36065
-3.07766
-2.86731
-3.09293
-6.0653
-5.46313
-5.42533
-5.35
-5.23781
-5.08993
-4.90827
-4.69586
-4.45729
-4.19948
-3.93289
-3.67399
-3.44964
-3.29731
-3.17392
-1.98172
-5.79607
-5.75633
-5.67715
-5.55919
-5.40372
-5.21295
-4.99057
-4.74248
-4.47783
-4.21079
-3.96333
-3.77161
-3.70722
-3.99713
-5.90183
-6.15659
-6.11474
-6.03123
-5.90662
-5.74201
-5.53958
-5.30315
-5.03915
-4.75786
-4.47508
-4.21398
-4.00515
-3.87108
-3.69896
-2.31301
-6.54618
-6.50207
-6.41387
-6.28181
-6.10658
-5.88983
-5.63488
-5.34783
-5.03892
-4.72432
-4.42832
-4.18679
-4.06135
-4.24372
-5.88453
-6.96642
-6.92001
-6.82697
-6.68699
-6.49999
-6.26659
-5.9889
-5.6717
-5.32393
-4.96064
-4.60483
-4.28781
-4.03788
-3.77567
-2.47268
-7.41888
-7.37033
-7.27266
-7.12483
-6.92563
-6.67411
-6.37037
-6.01679
-5.61973
-5.19177
-4.7544
-4.34224
-4.02293
-4.03039
-5.62217
-7.90506
-7.85477
-7.75317
-7.59835
-7.3876
-7.11788
-6.78645
-6.39208
-5.93698
-5.42945
-4.88646
-4.33219
-3.78105
-3.18489
-2.41084
-8.42617
-8.37483
-8.27066
-8.11069
-7.89052
-7.60451
-7.24624
-6.80956
-6.29064
-5.69174
-5.02634
-4.31998
-3.57045
-2.4629
1.33803
-8.98293
-8.93158
-8.82691
-8.66485
-8.43917
-8.14133
-7.76049
-7.28413
-6.69984
-6.00023
-5.19467
-4.33776
-3.60847
-3.61132
-6.9564
-9.57535
-9.52537
-9.423
-9.26318
-9.03794
-8.73577
-8.34108
-7.83366
-7.18913
-6.38229
-5.39867
-4.2669
-3.13805
-2.43875
-2.89094
-10.2025
-10.1556
-10.059
-9.90696
-9.69012
-9.39447
-8.99995
-8.4784
-7.79113
-6.88711
-5.70556
-4.19401
-2.36933
-0.466546
0.860514
-10.8622
-10.8202
-10.7335
-10.5958
-10.397
-10.1218
-9.74704
-9.23822
-8.54364
-7.58467
-6.24162
-4.33856
-1.65486
1.90547
5.53355
-11.551
-11.516
-11.4433
-11.3269
-11.1571
-10.9184
-10.5872
-10.1271
-9.47977
-8.54894
-7.16658
-5.02522
-1.54915
4.23045
12.7261
-12.2641
-12.238
-12.1834
-12.0953
-11.9649
-11.7791
-11.5169
-11.1458
-10.6128
-9.82676
-8.61863
-6.63878
-3.04312
4.66929
25.8184
-146.476
-88.0206
-61.5388
-48.8858
-42.1096
-38.0635
-35.4356
-33.6245
-32.3268
-31.3762
-30.6756
-30.1656
-29.809
-29.5824
-29.4723
-182.192
-82.3645
-54.6673
-43.9897
-38.6341
-35.4536
-33.3614
-31.896
-30.8302
-30.0395
-29.4509
-29.019
-28.7153
-28.5216
-28.4272
46.9264
-26.6176
-35.9768
-35.3976
-33.6481
-32.0879
-30.8518
-29.8901
-29.1425
-28.5625
-28.1172
-27.7834
-27.5452
-27.3918
-27.3166
-7.04221
-15.4435
-24.1881
-27.6183
-28.5307
-28.497
-28.1518
-27.7356
-27.3384
-26.9921
-26.7061
-26.4815
-26.3161
-26.2076
-26.1539
25.9153
-4.03103
-16.0898
-21.5875
-24.0702
-25.1226
-25.5009
-25.5679
-25.4989
-25.3796
-25.2524
-25.1383
-25.0477
-24.9854
-24.9538
-1.42299
-5.04052
-12.5477
-17.6505
-20.6031
-22.2163
-23.0662
-23.4947
-23.6944
-23.7727
-23.7897
-23.7789
-23.7594
-23.7419
-23.7319
11.4639
-3.3489
-10.6752
-15.2067
-18.0661
-19.84
-20.9242
-21.5803
-21.9741
-22.2085
-22.3462
-22.4255
-22.4699
-22.4931
-22.5029
-3.07563
-6.85619
-10.7436
-13.9242
-16.2828
-17.9428
-19.0796
-19.848
-20.3646
-20.7113
-20.9431
-21.0965
-21.195
-21.2536
-21.2809
-14.9897
-10.2892
-11.3029
-13.2125
-14.9846
-16.4089