/*--------------------------------*- C++ -*----------------------------------*\
| =========                 |                                                 |
| \\      /  F ield         | OpenFOAM: The Open Source CFD Toolbox           |
|  \\    /   O peration     | Version:  5.x                                   |
|   \\  /    A nd           | Web:      www.OpenFOAM.org                      |
|    \\/     M anipulation  |                                                 |
\*---------------------------------------------------------------------------*/
FoamFile
{
    version     2.0;
    format      ascii;
    class       volScalarField;
    location    "14.6001";
    object      gradTy;
}
// * * * * * * * * * * * * * * * * * * * * * * * * * * * * * * * * * * * * * //

dimensions      [0 -1 0 1 0 0 0];

internalField   nonuniform List<scalar> 
6300
(
32284.1
32252.1
32220.1
32187.9
32155.5
32122.7
32089.6
32056
32022
31987.4
31952.3
31916.6
31880.2
31843.3
31805.8
0.0533742
0.159627
0.264355
0.366429
0.46456
0.557254
0.642801
0.719286
0.784657
0.836846
0.873961
0.894536
0.897812
0.884021
0.854572
0.0895133
0.26775
0.443558
0.615117
0.780327
0.936719
1.08142
1.21117
1.32241
1.41149
1.47497
1.51009
1.51528
1.49073
1.43876
0.126441
0.378301
0.627005
0.870149
1.1049
1.32786
1.53499
1.72156
1.88232
2.0117
2.10431
2.15554
2.16248
2.12483
2.04572
0.16439
0.492006
0.816007
1.13357
1.44126
1.73484
2.00908
2.25774
2.47358
2.64868
2.77499
2.84526
2.85425
2.80034
2.68708
0.203502
0.609324
1.01144
1.40685
1.79172
2.16113
2.50876
2.82672
3.10555
3.33441
3.5017
3.59622
3.60889
3.53517
3.3779
0.243793
0.730343
1.21359
1.69066
2.15764
2.60919
3.03808
3.43482
3.78748
4.08168
4.30115
4.42899
4.44987
4.3535
4.13939
0.285117
0.854663
1.42191
1.98453
2.53898
3.0799
3.59952
4.08698
4.52783
4.90363
5.1922
5.36869
5.40807
5.28955
5.00371
0.327129
0.981278
1.63484
2.28657
2.93384
3.5719
4.19308
4.78574
5.3332
5.81279
6.19529
6.44547
6.52414
6.39288
6.02274
0.369251
1.10847
1.84961
2.59307
3.33787
4.08076
4.81515
5.52967
6.20642
6.81899
7.3307
7.69374
7.85017
7.73518
7.28334
0.41065
1.23375
2.06203
2.89823
3.74381
4.5981
5.45705
6.31134
7.1438
7.92605
8.61478
9.14872
9.44785
9.41478
8.93106
0.450251
1.35383
2.26654
3.19401
4.14102
5.11077
6.1036
7.11482
8.13136
9.12663
10.0537
10.8388
11.3786
11.5469
11.1912
0.48677
1.46479
2.45628
3.47022
4.51547
5.60036
6.73173
7.91297
9.1402
10.3954
11.635
12.7751
13.683
14.2087
14.3004
0.518804
1.56228
2.62356
3.71512
4.85029
6.04346
7.30998
8.6651
10.1211
11.6798
13.316
14.9451
16.3751
17.3207
17.9246
0.544965
1.64197
2.76057
3.9164
5.12708
6.41322
7.79961
9.31636
10.9992
12.8866
15.0047
17.3165
19.5619
20.8116
18.521
31770.9
31738.8
31706.4
31673.6
31640.5
31607.1
31573.4
31539.5
31505.3
31471
31436.5
31401.8
31366.9
31332
31297
31261.9
31226.8
31191.7
31156.5
31121.4
31086.4
31051.3
31016.3
30981.4
30946.5
30911.6
30876.8
30842.1
30807.4
30772.7
30738.2
30703.7
30669.4
30635.1
30601
30566.9
30533
30499.2
30465.4
30431.8
30398.3
30364.8
30331.5
30298.2
30265
30232
30199
30166.2
30133.4
30100.8
30068.3
30036
30003.7
29971.5
29939.5
29907.5
29875.6
29843.8
29812.1
29780.5
29748.9
29717.5
29686.2
29654.9
29623.8
29592.8
29561.8
29531
29500.2
29469.6
29439
29408.4
29377.9
29347.5
29317.2
29286.9
29256.6
29226.4
29196.3
29166.2
29136.2
29106.2
29076.2
29046.2
29016.1
28986
28955.9
28925.6
28895.3
28864.8
0.815613
0.773393
0.726646
0.677583
0.628052
0.579292
0.531794
0.485332
0.439131
0.392164
0.343492
0.292593
0.2396
0.185397
0.131553
0.0801064
0.033228
-0.00715794
-0.0397222
-0.0639783
-0.0803855
-0.0902905
-0.0957232
-0.0990812
-0.102757
-0.108764
-0.118431
-0.132199
-0.149572
-0.169227
-0.189266
-0.207569
-0.22219
-0.231706
-0.235471
-0.233727
-0.227556
-0.218693
-0.209231
-0.20127
-0.196565
-0.196238
-0.200587
-0.209038
-0.220252
-0.232357
-0.24329
-0.251158
-0.254576
-0.252903
-0.246341
-0.235891
-0.223173
-0.210149
-0.198787
-0.19073
-0.187019
-0.187916
-0.192857
-0.200552
-0.209207
-0.216845
-0.221653
-0.222294
-0.218136
-0.209343
-0.196831
-0.182094
-0.166933
-0.153133
-0.142141
-0.134793
-0.13114
-0.130393
-0.131017
-0.130944
-0.127893
-0.119721
-0.104769
-0.0821359
-0.0518491
-0.0149204
0.0267133
0.0703522
0.112781
0.150584
0.180501
0.199796
0.206595
0.200129
1.37023
1.29625
1.21482
1.1301
1.04559
0.963527
0.884716
0.808497
0.733117
0.656316
0.576014
0.490965
0.401233
0.308394
0.215416
0.126224
0.045037
-0.0243843
-0.079431
-0.119129
-0.144336
-0.15762
-0.162867
-0.164664
-0.167589
-0.175493
-0.190903
-0.214635
-0.24569
-0.281461
-0.318221
-0.351818
-0.378444
-0.395329
-0.40122
-0.396595
-0.383555
-0.365461
-0.346356
-0.330297
-0.320676
-0.319658
-0.327814
-0.344028
-0.365685
-0.389138
-0.410361
-0.425674
-0.432392
-0.429282
-0.416755
-0.396763
-0.372453
-0.347621
-0.326075
-0.310993
-0.304392
-0.30678
-0.317065
-0.332735
-0.3503
-0.365911
-0.376043
-0.378117
-0.370926
-0.354818
-0.331594
-0.304174
-0.276072
-0.250775
-0.231129
-0.218807
-0.213972
-0.21517
-0.219493
-0.222998
-0.221314
-0.210328
-0.186839
-0.149069
-0.0969759
-0.0323408
0.0413502
0.119203
0.195357
0.263551
0.317765
0.352907
0.365459
0.353967
1.94165
1.82979
1.70768
1.58232
1.45955
1.34306
1.23389
1.13043
1.02913
0.925496
0.815361
0.696071
0.567332
0.431588
0.293825
0.160811
0.0399027
-0.0623103
-0.141241
-0.195147
-0.225451
-0.236523
-0.234974
-0.228619
-0.225249
-0.231412
-0.251388
-0.286521
-0.335014
-0.392268
-0.451727
-0.506101
-0.548725
-0.574778
-0.582111
-0.571577
-0.546832
-0.513679
-0.479092
-0.450051
-0.432397
-0.429862
-0.443436
-0.471177
-0.50853
-0.549127
-0.585941
-0.612564
-0.624355
-0.619221
-0.597916
-0.563853
-0.522483
-0.480361
-0.444052
-0.419042
-0.408819
-0.414272
-0.433516
-0.462188
-0.494207
-0.522863
-0.542036
-0.547279
-0.536558
-0.510538
-0.472399
-0.427236
-0.381169
-0.340281
-0.309568
-0.292039
-0.288117
-0.295445
-0.309144
-0.322524
-0.328131
-0.318941
-0.289472
-0.236627
-0.160163
-0.0628013
0.049995
0.170498
0.289398
0.396651
0.482493
0.538547
0.558945
0.541218
2.53789
2.37805
2.2052
2.03079
1.86443
1.71204
1.57479
1.44925
1.3285
1.20402
1.06788
0.914776
0.743513
0.557684
0.365394
0.177963
0.00784781
-0.133762
-0.239085
-0.305148
-0.334262
-0.333598
-0.314001
-0.288276
-0.269181
-0.267437
-0.290048
-0.339169
-0.411722
-0.499901
-0.592557
-0.677303
-0.742869
-0.781182
-0.78873
-0.767025
-0.722214
-0.663965
-0.603841
-0.553407
-0.522346
-0.516872
-0.538658
-0.584483
-0.646703
-0.714566
-0.776195
-0.820811
-0.840692
-0.832445
-0.797448
-0.741465
-0.673594
-0.604728
-0.545759
-0.505798
-0.490671
-0.501905
-0.53639
-0.586823
-0.642956
-0.69347
-0.728088
-0.739428
-0.724219
-0.683711
-0.623316
-0.5516
-0.478806
-0.415135
-0.369022
-0.345675
-0.346062
-0.366545
-0.399255
-0.433244
-0.456254
-0.456753
-0.425768
-0.358195
-0.253442
-0.115487
0.0475421
0.224104
0.400208
0.560585
0.690114
0.775534
0.807331
0.781378
3.16893
2.945
2.70493
2.46763
2.24918
2.05916
1.89881
1.76116
1.63323
1.49931
1.34481
1.15962
0.94066
0.693082
0.429964
0.170177
-0.065254
-0.257468
-0.393464
-0.468354
-0.485953
-0.457933
-0.401851
-0.338385
-0.288125
-0.268391
-0.290534
-0.358072
-0.46593
-0.601084
-0.744779
-0.876124
-0.976256
-1.03189
-1.03747
-0.995746
-0.916948
-0.81695
-0.714637
-0.628866
-0.575451
-0.564626
-0.599264
-0.674183
-0.776749
-0.888983
-0.990946
-1.06468
-1.09753
-1.08419
-1.0272
-0.936195
-0.82614
-0.714845
-0.620094
-0.556793
-0.534562
-0.556056
-0.616299
-0.703249
-0.799796
-0.886967
-0.94766
-0.969809
-0.948309
-0.885519
-0.790536
-0.677516
-0.563307
-0.464703
-0.395695
-0.365133
-0.375069
-0.420039
-0.487523
-0.559771
-0.616793
-0.639901
-0.614752
-0.5333
-0.394533
-0.20428
0.025603
0.278369
0.533664
0.768942
0.96125
1.08974
1.13888
1.10157
3.8488
3.53516
3.2006
2.8773
2.59293
2.36355
2.19008
2.05906
1.94654
1.82422
1.66591
1.4531
1.179
0.85085
0.489735
0.127317
-0.200589
-0.462127
-0.635833
-0.714058
-0.703334
-0.622676
-0.500332
-0.369476
-0.263113
-0.209038
-0.225652
-0.318914
-0.480834
-0.689966
-0.914787
-1.11989
-1.27372
-1.35467
-1.35434
-1.27785
-1.14221
-0.973271
-0.801615
-0.65773
-0.56723
-0.546912
-0.601866
-0.724072
-0.892874
-1.07819
-1.24635
-1.36741
-1.42089
-1.39879
-1.30593
-1.15836
-0.98047
-0.801139
-0.649141
-0.548648
-0.515488
-0.554411
-0.657748
-0.805855
-0.970138
-1.11859
-1.22273
-1.26304
-1.23186
-1.13369
-0.98373
-0.805141
-0.625338
-0.471653
-0.367003
-0.326273
-0.353627
-0.441109
-0.568933
-0.708222
-0.826169
-0.89254
-0.884814
-0.790936
-0.609761
-0.350141
-0.0292868
0.328993
0.695943
1.03918
1.32428
1.51822
1.59489
1.54148
4.59983
4.15539
3.68002
3.23089
2.85746
2.58735
2.42022
2.33028
2.27394
2.20092
2.0655
1.8348
1.49518
1.05608
0.551377
0.0347579
-0.431497
-0.793263
-1.01569
-1.08785
-1.02142
-0.847447
-0.61107
-0.365293
-0.162808
-0.0478921
-0.0503973
-0.180889
-0.427751
-0.756256
-1.11319
-1.43749
-1.67612
-1.79451
-1.7809
-1.64512
-1.41542
-1.13351
-0.848605
-0.609718
-0.457949
-0.420807
-0.507628
-0.706862
-0.985223
-1.29209
-1.56958
-1.76747
-1.85308
-1.8153
-1.66344
-1.42417
-1.13688
-0.848072
-0.60402
-0.443544
-0.392614
-0.460009
-0.634729
-0.885169
-1.16327
-1.41403
-1.58973
-1.65922
-1.61187
-1.45642
-1.21815
-0.934516
-0.649758
-0.407992
-0.246266
-0.189373
-0.245598
-0.404087
-0.633834
-0.887404
-1.10981
-1.25188
-1.27893
-1.17428
-0.937951
-0.584178
-0.138069
0.367134
0.892372
1.39313
1.8186
2.11554
2.23824
2.16173
5.46208
4.82006
4.12157
3.47544
2.97319
2.66285
2.53914
2.5531
2.62531
2.66746
2.60228
2.37332
1.95461
1.35575
0.630181
-0.130329
-0.812871
-1.32504
-1.61195
-1.66119
-1.49437
-1.16208
-0.735341
-0.298771
0.0635985
0.28234
0.309158
0.124711
-0.257105
-0.781609
-1.35858
-1.87847
-2.25167
-2.42441
-2.38337
-2.14764
-1.76383
-1.29804
-0.829333
-0.43626
-0.183605
-0.116196
-0.251515
-0.575709
-1.03652
-1.54831
-2.00743
-2.32921
-2.46293
-2.3961
-2.14682
-1.75913
-1.29549
-0.830553
-0.438551
-0.180694
-0.0993535
-0.211058
-0.502672
-0.924652
-1.39576
-1.81758
-2.10965
-2.22365
-2.14756
-1.89839
-1.51792
-1.0655
-0.612267
-0.229073
0.0254309
0.11042
0.00969078
-0.264454
-0.664429
-1.11146
-1.50915
-1.77683
-1.86271
-1.74724
-1.43526
-0.951179
-0.331946
0.376424
1.12406
1.85548
2.49799
2.96379
3.16845
3.05942
6.51489
5.56581
4.48747
3.51271
2.81268
2.4696
2.45974
2.69201
3.01995
3.28851
3.3749
3.18508
2.67343
1.83788
0.759293
-0.407696
-1.43958
-2.18121
-2.55046
-2.54564
-2.20562
-1.61271
-0.873771
-0.1254
0.496829
0.888944
0.972935
0.714522
0.119014
-0.731414
-1.68615
-2.53069
-3.11589
-3.36215
-3.26621
-2.86339
-2.23027
-1.46679
-0.701144
-0.0606002
0.35749
0.480344
0.276577
-0.247832
-1.0144
-1.88038
-2.64307
-3.16176
-3.36157
-3.23965
-2.82949
-2.20346
-1.45595
-0.708013
-0.0799141
0.336341
0.471892
0.296963
-0.182889
-0.893393
-1.69921
-2.40798
-2.88598
-3.06182
-2.93248
-2.52944
-1.92128
-1.19767
-0.473916
0.135159
0.54123
0.677648
0.514699
0.0563762
-0.627264
-1.40656
-2.09571
-2.56356
-2.73644
-2.60316
-2.1804
-1.5128
-0.654182
0.329178
1.37909
2.44587
3.43184
4.18808
4.55036
4.39915
7.92909
6.4974
4.70318
3.15356
2.13847
1.79678
2.03173
2.69313
3.50006
4.17185
4.54525
4.46026
3.85863
2.66999
1.0157
-0.879624
-2.48424
-3.57361
-4.02763
-3.9128
-3.28102
-2.27362
-1.02579
0.229617
1.26142
1.93925
2.12977
1.78975
0.862215
-0.531015
-2.17241
-3.55636
-4.46819
-4.79266
-4.59096
-3.91077
-2.88444
-1.63867
-0.392805
0.635392
1.32372
1.54722
1.26639
0.42875
-0.849124
-2.36118
-3.63005
-4.4535
-4.72349
-4.49826
-3.82302
-2.82275
-1.617
-0.412914
0.583778
1.25759
1.49023
1.24407
0.469034
-0.72488
-2.14242
-3.33067
-4.09742
-4.33947
-4.11151
-3.45586
-2.49088
-1.33004
-0.170429
0.791718
1.44533
1.67597
1.44505
0.701664
-0.45235
-1.83148
-3.00093
-3.77503
-4.05105
-3.87594
-3.27809
-2.34949
-1.15605
0.186099
1.60982
3.15264
4.6965
5.97969
6.67168
6.48236
10.0982
7.9536
4.56458
2.02007
0.493746
0.2941
0.989928
2.48481
4.17479
5.48487
6.37567
6.47937
5.88913
4.17262
1.61917
-1.77017
-4.27086
-5.8809
-6.32397
-6.02437
-4.89731
-3.28075
-1.18871
0.906615
2.53575
3.69125
4.05061
3.71099
2.27602
0.0267348
-3.02938
-5.26187
-6.6663
-6.98085
-6.60474
-5.4566
-3.8546
-1.81069
0.228978
1.82079
2.95932
3.3403
3.05803
1.73926
-0.346632
-3.19217
-5.25842
-6.54224
-6.79854
-6.40487
-5.28459
-3.73792
-1.77566
0.180833
1.71241
2.81414
3.19803
2.95277
1.72414
-0.234343
-2.91581
-4.86033
-6.06443
-6.29393
-5.9064
-4.82771
-3.34254
-1.46064
0.417408
1.89257
2.95853
3.33892
3.11334
1.93826
0.0467359
-2.55834
-4.47547
-5.70374
-6.01531
-5.75744
-4.85206
-3.56754
-1.87205
-0.0744499
1.66905
3.85792
6.3365
8.62263
10.0621
9.92449
13.9493
11.2292
3.22029
-0.59328
-3.06906
-2.5001
-1.20294
1.99543
5.39658
7.40164
9.3395
9.49773
9.54146
6.88044
3.4263
-3.94036
-7.34004
-9.86865
-9.68974
-9.32747
-7.21848
-4.97258
-1.35635
2.25491
4.49213
6.58969
6.97799
7.20951
4.86245
1.74631
-5.07236
-8.15982
-10.4338
-10.1636
-9.73025
-7.656
-5.46109
-1.97661
1.49567
3.65892
5.68577
6.08847
6.34223
4.15443
1.24975
-5.14535
-8.01349
-10.1106
-9.80956
-9.35778
-7.36017
-5.25155
-1.92603
1.38646
3.46004
5.40437
5.81179
6.07754
4.03022
1.29729
-4.75039
-7.45621
-9.43484
-9.13692
-8.69656
-6.78491
-4.76546
-1.58571
1.58541
3.58266
5.45894
5.87448
6.1489
4.20656
1.57333
-4.27584
-6.94195
-8.95251
-8.79954
-8.57136
-6.97201
-5.37738
-2.73509
-0.257098
1.08695
4.14603
8.25364
12.4847
15.7235
16.1946
21.3581
22.287
-4.01457
-5.10764
-11.0181
-6.34405
-6.13391
1.2139
8.62866
9.41515
14.866
12.6809
17.0886
10.7304
10.8674
-11.823
-11.6636
-17.7552
-13.3196
-15.1458
-9.73682
-8.63766
-1.51687
5.58185
6.64962
11.9495
10.1311
14.4212
8.55633
8.79755
-12.4883
-12.2291
-17.865
-13.5812
-15.2187
-10.0291
-8.92456
-2.12497
4.64738
5.69345
10.751
9.05112
13.1423
7.60191
7.87234
-12.1774
-11.8788
-17.1324
-13.0376
-14.5367
-9.59563
-8.5175
-2.05762
4.37611
5.39378
10.2078
8.62954
12.5331
7.32357
7.60216
-11.3972
-11.0992
-16.0835
-12.185
-13.6054
-8.89735
-7.8592
-1.69834
4.44378
5.44694
10.0628
8.61327
12.3766
7.46973
7.73088
-10.5769
-10.3524
-15.3167
-11.6921
-13.3598
-9.08516
-8.69586
-3.36152
1.19313
-1.9648
2.92426
9.99294
17.7758
25.3706
29.6208
32.1446
72.577
-47.5316
-2.66776
-34.2025
-3.75835
-21.3428
0.336087
21.4055
4.71199
31.3882
6.37068
40.1386
5.22708
51.1802
-52.6096
-6.98545
-40.8011
-7.93231
-31.383
-6.04895
-20.9739
-1.64559
17.5933
2.71293
27.5594
4.48807
36.2561
3.45742
46.8478
-50.9289
-7.80965
-39.5805
-8.47228
-30.5379
-6.51997
-20.5888
-2.23408
16.0449
1.95146
25.5469
3.67473
33.8117
2.68187
43.7559
-48.5108
-7.74906
-37.6157
-8.21058
-28.9893
-6.26847
-19.5332
-2.15153
15.1649
1.8608
24.216
3.55346
32.1116
2.71401
41.6673
-45.8323
-7.13583
-35.5232
-7.57408
-27.3391
-5.72515
-18.3296
-1.78396
14.7023
2.10888
23.401
3.84553
31.0893
3.29097
40.6278
-43.5647
-6.29091
-34.0492
-6.96356
-26.7051
-5.60345
-19.1352
-2.86519
13.7495
-16.6042
-1.43615
10.7039
23.3376
39.8337
66.3736
28831.2
28794.5
28757.6
28720.7
28683.7
28646.8
28609.9
28573.1
28536.4
28499.8
28463.3
28426.9
28390.6
28354.3
28318.1
0.178922
0.139887
0.0896518
0.0339628
-0.0213316
-0.071078
-0.111329
-0.139553
-0.154592
-0.15647
-0.146137
-0.125199
-0.0957019
-0.0599534
-0.0204085
0.315803
0.245553
0.155474
0.0561886
-0.041676
-0.128964
-0.198864
-0.247195
-0.272241
-0.274328
-0.255327
-0.218166
-0.166443
-0.104138
-0.0354268
0.481302
0.371048
0.230501
0.0769943
-0.072597
-0.204237
-0.307968
-0.378124
-0.412847
-0.413275
-0.382677
-0.325695
-0.247766
-0.154727
-0.0525881
0.691691
0.526834
0.31849
0.0938846
-0.12147
-0.307418
-0.450647
-0.544486
-0.587748
-0.583247
-0.536411
-0.454172
-0.344198
-0.214417
-0.0727863
0.969096
0.72611
0.422738
0.101524
-0.199749
-0.453317
-0.642715
-0.761425
-0.810411
-0.795555
-0.725546
-0.610384
-0.460436
-0.285958
-0.0969262
1.34497
0.985771
0.54483
0.0892236
-0.325732
-0.663388
-0.905469
-1.04809
-1.09692
-1.06301
-0.959836
-0.801381
-0.601203
-0.372053
-0.125887
1.86565
1.32718
0.681587
0.0362719
-0.529013
-0.969034
-1.26769
-1.42854
-1.46616
-1.39975
-1.2494
-1.0341
-0.770944
-0.475163
-0.160454
2.60181
1.7757
0.818067
-0.0967093
-0.857558
-1.41605
-1.76769
-1.93225
-1.93941
-1.82041
-1.60393
-1.31467
-0.973311
-0.5972
-0.20122
3.66488
2.35575
0.911689
-0.383618
-1.38846
-2.06991
-2.45479
-2.59334
-2.53883
-2.33856
-2.03125
-1.64733
-1.21043
-0.739106
-0.248445
5.23604
3.07075
0.856553
-0.960989
-2.24276
-3.02033
-3.38822
-3.4475
-3.284
-2.96376
-2.53518
-2.03297
-1.48198
-0.900348
-0.3019
7.61288
3.83465
0.404765
-2.07413
-3.60126
-4.38043
-4.63026
-4.52442
-4.18591
-3.6973
-3.11273
-2.46737
-1.78418
-1.0784
-0.360708
11.2462
4.25022
-0.998015
-4.13903
-5.70773
-6.26988
-6.22797
-5.83403
-5.23791
-4.52681
-3.75107
-2.93962
-2.10895
-1.26838
-0.423235
16.4772
2.91805
-4.50801
-7.77624
-8.82076
-8.76337
-8.1777
-7.34583
-6.40488
-5.42094
-4.42513
-3.43109
-2.44361
-1.46295
-0.487082
20.9289
-4.54721
-12.1758
-13.6372
-13.0357
-11.7851
-10.3736
-8.96672
-7.61484
-6.32694
-5.09742
-3.91601
-2.77145
-1.65272
-0.549227
0.563039
1.697
2.85511
4.05521
5.31801
6.66891
8.14049
9.77635
11.6367
13.8061
16.4008
19.5571
23.3049
26.818
24.257
0.573468
1.72864
2.9091
4.13368
5.42461
6.80969
8.3258
10.0247
11.9833
14.3238
17.2559
21.1796
26.981
37.0724
59.8077
0.578176
1.74273
2.93244
4.16609
5.46583
6.85947
8.38419
10.0927
12.0648
14.4305
17.421
21.4921
27.6646
38.5824
62.2749
0.57719
1.73934
2.92528
4.15261
5.44183
6.81825
8.31496
9.97763
11.8729
14.1036
16.8352
20.3393
25.0184
31.0976
35.8951
0.57081
1.71942
2.88938
4.09616
5.35728
6.69351
8.13049
9.70104
11.4483
13.4291
15.7143
18.372
21.386
24.3772
26.0496
0.559575
1.68469
2.82792
4.00197
5.22058
6.49881
7.85326
9.30175
10.8615
12.5433
14.3354
16.1616
17.7799
18.5549
16.915
0.544195
1.63739
2.74504
3.87685
5.04249
6.2512
7.51076
8.82521
10.1899
11.5807
12.9327
14.0964
14.7653
14.4117
12.6187
0.525478
1.58006
2.64539
3.72825
4.83451
5.96828
7.13014
8.31383
9.50006
10.6452
11.6605
12.3745
12.4621
11.2686
7.08683
0.504247
1.51525
2.53359
3.56339
4.60742
5.66587
6.7344
7.8007
8.83883
9.79986
10.5974
11.0875
11.0487
10.2008
8.49381
0.481272
1.44536
2.41382
3.38867
4.37033
5.35648
6.3402
7.30715
8.23118
9.06811
9.7478
10.1676
10.1975
9.72956
8.83866
0.457228
1.37243
2.28962
3.20921
4.13013
5.04877
5.95767
6.84342
7.68404
8.44556
9.07877
9.51845
9.69187
9.55211
9.16707
0.432667
1.29813
2.16374
3.02884
3.89151
4.74786
5.59121
6.41104
7.19184
7.91215
8.54414
9.05424
9.4038
9.54502
9.39427
0.408018
1.22372
2.03823
2.85017
3.65727
4.45597
5.2411
6.00579
6.74167
7.44007
8.09419
8.70153
9.26044
9.74069
9.99855
0.383604
1.15013
1.9145
2.67487
3.42887
4.17349
4.9052
5.62053
6.31753
6.99875
7.67673
8.38247
9.17171
10.0908
10.8709
0.359662
1.07805
1.79354
2.50399
3.207
3.89999
4.58067
5.24801
5.90436
6.55968
7.24001
8.00542
8.99281
10.5375
13.5855
0.336371
1.00797
1.67608
2.33829
2.99207
3.63503
4.26541
4.88313
5.49191
6.10324
6.74421
7.47423
8.42692
9.9402
13.057
0.313877
0.940306
1.56273
2.17843
2.78465
3.37881
3.95894
4.52446
5.07769
5.62622
6.18658
6.7884
7.47173
8.22937
8.59901
0.292302
0.87542
1.45405
2.02515
2.58559
3.13233
3.6626
4.17432
4.66672
5.14098
5.60015
6.04596
6.46494
6.788
6.83859
0.271759
0.813647
1.35061
1.87926
2.39605
2.89729
3.37914
3.83759
4.26836
4.66621
5.023
5.32214
5.52476
5.53583
5.10913
0.252347
0.755292
1.25294
1.7416
2.2173
2.67572
3.11192
3.52009
3.89284
4.21995
4.48587
4.66533
4.7176
4.58766
4.26768
0.234149
0.700613
1.16151
1.61292
2.05056
2.46956
2.86416
3.22717
3.54901
3.81619
4.00877
4.09686
4.03695
3.77147
3.21966
0.217223
0.649796
1.07667
1.49381
1.89675
2.28034
2.63834
2.96283
3.24312
3.46421
3.60425
3.63113
3.49907
3.15411
2.61558
0.201598
0.602931
0.998596
1.38456
1.75637
2.10887
2.4358
2.72918
2.97835
3.1685
3.27829
3.27579
3.10901
2.67117
1.62565
0.187268
0.559998
0.92725
1.28514
1.62941
1.95516
2.25654
2.52621
2.75457
2.9286
3.0303
3.03453
2.90718
2.61023
2.16752
0.17419
0.52087
0.862402
1.19518
1.51529
1.81836
2.0993
2.35193
2.5685
2.73892
2.84998
2.88464
2.82312
2.65049
2.37673
0.162291
0.485315
0.803634
1.114
1.413
1.69693
1.96171
2.2027
2.41446
2.59046
2.72272
2.80152
2.81623
2.76098
2.66118
0.151473
0.453025
0.750385
1.04072
1.32117
1.5888
1.84065
2.07376
2.28524
2.47238
2.63258
2.76291
2.8579
2.90241
2.84894
0.141623
0.423647
0.70201
0.974312
1.23823
1.49161
1.73259
1.95983
2.17294
2.37299
2.56316
2.74884
2.93463
3.11187
3.23298
0.132623
0.396809
0.657842
0.91372
1.16262
1.40304
1.63406
1.85572
2.0697
2.28045
2.49687
2.7347
3.01728
3.3603
3.65101
0.124358
0.372159
0.617253
0.857971
1.09289
1.321
1.54203
1.75693
1.96871
2.18396
2.41571
2.68946
3.05796
3.64505
4.8014
0.116729
0.349389
0.579702
0.806251
1.02788
1.24387
1.45426
1.66031
1.8653
2.076
2.30539
2.57843
2.94684
3.53448
4.70834
0.109652
0.328249
0.544765
0.757948
0.966779
1.17063
1.36951
1.56441
1.75792
1.95508
2.16474
2.40116
2.68348
3.0168
3.25475
0.103066
0.308554
0.512141
0.712665
0.909136
1.10085
1.28752
1.46949
1.64801
1.82547
2.0055
2.19202
2.3847
2.56536
2.67926
0.0969267
0.290179
0.481645
0.670196
0.854798
1.03456
1.20878
1.37696
1.53882
1.69407
1.84176
1.97859
2.09428
2.16027
2.09648
0.091205
0.273043
0.453172
0.630468
0.803821
0.972126
1.13423
1.28883
1.43424
1.5679
1.68557
1.77983
1.83837
1.84531
1.80482
0.0858802
0.257095
0.426667
0.593477
0.756349
0.913995
1.06489
1.20708
1.3378
1.45285
1.54565
1.60586
1.61829
1.56328
1.41537
0.0809342
0.242287
0.402081
0.55922
0.712507
0.860549
1.0016
1.1333
1.25224
1.35326
1.42834
1.46509
1.44504
1.34577
1.17752
0.0763458
0.228563
0.379337
0.527638
0.672307
0.811958
0.944803
1.06838
1.17913
1.27167
1.33765
1.36376
1.32681
1.17616
0.746799
0.072087
0.21584
0.358311
0.498578
0.635593
0.768092
0.894437
1.01238
1.11867
1.20851
1.27465
1.30623
1.28754
1.20009
1.05513
0.0681206
0.204007
0.338817
0.471775
0.602015
0.728499
0.849907
0.96446
1.06964
1.16182
1.23565
1.28361
1.29602
1.26395
1.18629
0.0644002
0.192923
0.320607
0.446861
0.571046
0.692432
0.810138
0.923046
1.02965
1.12785
1.21463
1.28567
1.3354
1.35947
1.3692
0.0608724
0.182423
0.303389
0.423384
0.542022
0.658919
0.773702
0.886009
0.995498
1.10183
1.20453
1.30252
1.3926
1.46495
1.48927
0.0574797
0.172327
0.286846
0.40085
0.514206
0.626876
0.738986
0.85093
0.963539
1.07832
1.19769
1.32488
1.46211
1.60377
1.72344
0.0541651
0.162459
0.270662
0.378766
0.486866
0.595222
0.704386
0.815389
0.930073
1.05162
1.18544
1.34027
1.52855
1.75787
1.96442
0.0508753
0.152656
0.254545
0.356687
0.459348
0.563008
0.668508
0.777294
0.891839
1.01642
1.15859
1.33242
1.56648
1.92779
2.60724
0.047565
0.142777
0.238254
0.334247
0.431136
0.529516
0.63035
0.7352
0.846638
0.968988
1.10975
1.28275
1.51606
1.87677
2.56362
0.0441979
0.132713
0.221604
0.311186
0.401888
0.494322
0.589404
0.68853
0.793861
0.908773
1.03854
1.19119
1.37717
1.59926
1.77815
0.0407482
0.122389
0.204474
0.287349
0.371437
0.457289
0.54565
0.637553
0.734432
0.838241
0.951447
1.07647
1.21321
1.35177
1.46303
0.0371987
0.111755
0.186796
0.26267
0.339762
0.418514
0.499438
0.583121
0.670191
0.761184
0.856148
0.953612
1.04801
1.12322
1.13364
0.0335386
0.100785
0.168541
0.237145
0.306934
0.378231
0.45131
0.526338
0.603228
0.68137
0.759113
0.83289
0.896117
0.939673
0.965171
0.029761
0.0894624
0.149696
0.210797
0.273061
0.33671
0.401831
0.468262
0.535396
0.601835
0.664835
0.719495
0.75789
0.768669
0.73412
0.025859
0.0777699
0.13025
0.183642
0.238226
0.294168
0.351442
0.409699
0.468047
0.524689
0.576348
0.617398
0.638842
0.629143
0.593063
0.021823
0.0656825
0.11017
0.15566
0.202448
0.250701
0.300372
0.351075
0.401884
0.451004
0.49523
0.528918
0.541423
0.507938
0.345022
0.0176387
0.0531591
0.0893951
0.126777
0.165654
0.20625
0.248585
0.292379
0.336894
0.380718
0.421433
0.455148
0.475944
0.476616
0.463044
0.0132857
0.040139
0.0678248
0.0968546
0.127668
0.160591
0.195787
0.233183
0.272386
0.312591
0.352498
0.390351
0.424441
0.455187
0.491158
0.00873715
0.0265408
0.0453216
0.0656946
0.0882162
0.113356
0.141462
0.172731
0.207183
0.244674
0.284991
0.328169
0.375261
0.43013
0.502815
0.00395994
0.0122641
0.0217131
0.0330429
0.0469473
0.0640605
0.0849416
0.110071
0.139872
0.174793
0.2155
0.263269
0.320682
0.392704
0.488383
-0.00108407
-0.00280733
-0.0032011
-0.00139624
0.00345073
0.0121492
0.0254719
0.0441674
0.0690069
0.100896
0.141106
0.191674
0.25596
0.338849
0.443787
-0.00643697
-0.0188019
-0.0296418
-0.0379475
-0.0427199
-0.0429725
-0.0377282
-0.0260018
-0.00675308
0.0212225
0.0595196
0.110554
0.178322
0.269686
0.397378
-0.0121433
-0.0358552
-0.0578422
-0.076952
-0.0920286
-0.101911
-0.105429
-0.101394
-0.0885721
-0.0656175
-0.0309102
0.0178154
0.0842993
0.175297
0.300501
-0.0182486
-0.0541061
-0.0880403
-0.118757
-0.144944
-0.165268
-0.178374
-0.182887
-0.177427
-0.160617
-0.131073
-0.0872534
-0.0267444
0.0571557
0.193775
-0.0247982
-0.0736923
-0.120472
-0.163707
-0.20193
-0.233638
-0.257284
-0.271304
-0.274161
-0.26446
-0.241149
-0.20391
-0.15403
-0.097593
-0.0631025
-0.0318355
-0.0947464
-0.155367
-0.212136
-0.26344
-0.307604
-0.34288
-0.367472
-0.379616
-0.377751
-0.360895
-0.329342
-0.285865
-0.237099
-0.189528
-0.0394004
-0.117391
-0.192936
-0.264358
-0.32991
-0.387742
-0.435892
-0.472285
-0.494798
-0.501452
-0.490846
-0.463054
-0.421373
-0.375771
-0.352011
-0.0475281
-0.141733
-0.233368
-0.320658
-0.401738
-0.474604
-0.537069
-0.586734
-0.620991
-0.637138
-0.632731
-0.606408
-0.559601
-0.499274
-0.4377
-0.0562468
-0.167861
-0.276816
-0.38127
-0.47927
-0.568687
-0.647135
-0.711883
-0.759759
-0.787097
-0.789834
-0.763987
-0.707216
-0.623642
-0.539346
-0.0655763
-0.195834
-0.323388
-0.446364
-0.562763
-0.670386
-0.766714
-0.848749
-0.912788
-0.95414
-0.966784
-0.943038
-0.873443
-0.748508
-0.575462
-0.075527
-0.225686
-0.373141
-0.516024
-0.65235
-0.779927
-0.896218
-0.99811
-1.08157
-1.14112
-1.16901
-1.15393
-1.0781
-0.906784
-0.534573
-0.0860994
-0.257415
-0.426068
-0.590237
-0.748011
-0.897307
-1.03572
-1.16027
-1.26696
-1.35008
-1.40106
-1.407
-1.34907
-1.20457
-0.977668
-0.0972851
-0.290992
-0.482108
-0.66889
-0.84956
-1.02224
-1.18485
-1.33483
-1.46872
-1.58135
-1.66441
-1.70443
-1.68014
-1.55958
-1.28708
-0.10907
-0.32637
-0.541157
-0.751788
-0.956654
-1.15418
-1.34274
-1.52056
-1.68526
-1.83314
-1.95763
-2.04652
-2.07808
-2.0201
-1.86088
-0.121439
-0.363491
-0.603093
-0.838688
-1.06885
-1.29233
-1.50811
-1.71539
-1.91347
-2.10118
-2.27558
-2.42843
-2.5382
-2.55091
-2.3271
-0.13438
-0.402315
-0.66781
-0.929362
-1.18568
-1.43583
-1.67937
-1.91662
-2.14887
-2.37848
-2.60847
-2.84026
-3.06571
-3.24598
-3.28844
-0.147895
-0.442834
-0.735264
-1.02367
-1.3068
-1.58391
-1.855
-2.12133
-2.3861
-2.6555
-2.94013
-3.25648
-3.6246
-4.03676
-4.24246
-0.162
-0.485095
-0.805515
-1.12163
-1.43212
-1.73617
-2.03392
-2.32711
-2.62013
-2.92195
-3.24975
-3.63676
-4.15289
-4.97091
-6.62755
-0.176734
-0.529213
-0.878751
-1.22351
-1.56189
-1.8928
-2.21603
-2.53301
-2.84803
-3.17036
-3.51825
-3.92738
-4.47153
-5.3227
-6.95486
-0.192156
-0.575373
-0.955308
-1.32981
-1.69687
-2.05476
-2.40246
-2.74027
-3.07087
-3.40102
-3.74422
-4.12423
-4.57696
-5.13212
-5.662
-0.208339
-0.623811
-1.03563
-1.44129
-1.8382
-2.2238
-2.59577
-2.95255
-3.294
-3.6226
-3.94463
-4.27059
-4.61124
-4.95911
-5.24129
-0.22536
-0.674783
-1.12024
-1.55885
-1.98739
-2.40229
-2.79964
-3.17545
-3.52607
-3.84876
-4.14231
-4.40674
-4.64052
-4.8317
-4.93643
-0.243281
-0.728509
-1.2096
-1.68339
-2.14606
-2.59296
-3.01846
-3.41586
-3.77752
-4.09515
-4.3602
-4.56417
-4.69939
-4.76434
-4.79144
-0.26213
-0.785105
-1.30405
-1.81565
-2.31567
-2.7985
-3.2568
-3.68109
-4.05955
-4.37806
-4.6205
-4.76936
-4.80704
-4.72325
-4.55105
-0.28187
-0.844503
-1.40358
-1.95595
-2.49721
-3.02108
-3.51876
-3.97814
-4.38322
-4.7138
-4.94579
-5.05175
-4.99905
-4.74356
-4.29011
-0.302379
-0.906367
-1.50778
-2.10398
-2.69082
-3.26185
-3.80731
-4.3129
-4.75862
-5.11799
-5.35859
-5.44433
-5.33188
-4.90135
-3.45089
-0.323421
-0.97002
-1.6156
-2.2585
-2.8954
-3.52039
-4.12354
-4.68923
-5.19399
-5.60467
-5.87893
-5.97453
-5.88561
-5.76742
-6.39733
-0.344634
-1.03438
-1.72528
-2.41718
-3.10827
-3.79408
-4.46578
-5.10788
-5.69471
-6.18606
-6.52336
-6.63286
-6.45965
-6.11398
-6.43068
-0.365516
-1.09793
-1.83428
-2.57641
-3.32482
-4.07756
-4.82859
-5.56491
-6.26171
-6.87445
-7.32597
-7.48752
-7.15347
-6.00055
-3.37974
-0.385438
-1.15875
-1.93926
-2.7313
-3.53835
-4.36222
-5.20162
-6.04937
-6.8871
-7.67479
-8.32996
-8.68633
-8.41595
-6.9065
-3.20288
-0.403667
-1.21458
-2.03623
-2.87576
-3.74019
-4.6361
-5.56885
-6.54079
-7.54724
-8.56717
-9.54143
-10.3204
-10.5389
-9.33618
-4.9025
-0.41941
-1.26295
-2.12078
-3.00292
-3.92017
-4.88441
-5.90887
-7.00825
-8.19801
-9.49127
-10.8885
-12.3437
-13.6488
-14.0096
-10.3322
-0.43188
-1.30139
-2.18844
-3.10571
-4.06753
-5.09088
-6.19685
-7.41296
-8.77689
-10.3432
-12.1954
-14.4712
-17.4144
-21.4873
-27.5584
-11.2607
-25.7448
-24.3308
-20.7775
-17.4774
-14.7113
-12.3953
-10.4139
-8.67485
-7.11134
-5.67514
-4.33075
-3.05103
-1.81427
-0.602089
-111.029
-57.879
-37.3457
-27.2047
-21.1599
-17.0509
-13.9891
-11.5504
-9.50793
-7.7293
-6.13154
-4.65921
-3.27288
-1.94264
-0.644122
-123.449
-67.3625
-43.1438
-30.7874
-23.4981
-18.6633
-15.1503
-12.4118
-10.1578
-8.22164
-6.50083
-4.92795
-3.45578
-2.04898
-0.67902
-67.8079
-54.7158
-40.704
-30.8513
-24.1318
-19.3578
-15.7735
-12.9367
-10.5869
-8.56446
-6.7674
-5.12674
-3.59329
-2.12972
-0.705646
-47.8595
-42.7078
-35.3759
-28.7393
-23.4145
-19.2262
-15.8776
-13.1236
-10.7885
-8.75079
-6.92534
-5.25108
-3.68228
-2.18304
-0.723393
-30.3835
-32.2139
-29.5649
-25.7165
-21.908
-18.5114
-15.5689
-13.0194
-10.7837
-8.7897
-6.97831
-5.30217
-3.72297
-2.20886
-0.73221
-22.4081
-24.8307
-24.5869
-22.6658
-20.1153
-17.4814
-14.9871
-12.6975
-10.611
-8.70178
-6.93735
-5.28595
-3.71847
-2.20866
-0.732532
-12.4452
-19.2991
-20.7736
-20.0524
-18.3804
-16.3546
-14.2631
-12.2344
-10.3153
-8.51329
-6.8179
-5.21144
-3.67391
-2.18508
-0.725169
-15.0075
-17.5033
-18.4851
-18.0991
-16.8914
-15.2732
-13.4956
-11.6952
-9.9383
-8.25076
-6.63668
-5.08906
-3.59553
-2.14143
-0.711154
-15.6577
-16.759
-17.1463
-16.7165
-15.6875
-14.3027
-12.7438
-11.1258
-9.51313
-7.93722
-6.40933
-4.9291
-3.48978
-2.08122
-0.69161
-16.2672
-16.5104
-16.3751
-15.75
-14.7306
-13.4529
-12.0331