/*--------------------------------*- C++ -*----------------------------------*\
| =========                 |                                                 |
| \\      /  F ield         | OpenFOAM: The Open Source CFD Toolbox           |
|  \\    /   O peration     | Version:  5.x                                   |
|   \\  /    A nd           | Web:      www.OpenFOAM.org                      |
|    \\/     M anipulation  |                                                 |
\*---------------------------------------------------------------------------*/
FoamFile
{
    version     2.0;
    format      ascii;
    class       volScalarField;
    location    "18.1";
    object      gradTy;
}
// * * * * * * * * * * * * * * * * * * * * * * * * * * * * * * * * * * * * * //

dimensions      [0 -1 0 1 0 0 0];

internalField   nonuniform List<scalar> 
2048
(
-26.4236
-26.396
-26.3416
-26.262
-26.1592
-26.0358
-25.8945
-25.7382
-25.5697
-25.3915
-25.206
-25.0153
-24.8215
-24.6261
-24.4308
-24.2367
-24.0451
-23.8568
-23.6726
-23.4931
-23.3187
-23.1498
-22.9866
-22.8293
-22.6783
-22.5337
-22.3958
-22.265
-22.1416
-22.0262
-21.9192
-21.8213
-21.7333
-21.6559
-21.5902
-21.5372
-21.4979
-21.4735
-21.4652
-21.4744
-21.5022
-21.55
-21.6188
-21.71
-21.8244
-21.9628
-22.1256
-22.3128
-22.5236
-22.7566
-23.0096
-23.2793
-23.5613
-23.8504
-24.1406
-24.4252
-24.6976
-24.9511
-25.1795
-25.3777
-25.5412
-25.6666
-25.7515
-25.7943
-26.4459
-26.4177
-26.3621
-26.2807
-26.1759
-26.0502
-25.9067
-25.7482
-25.5775
-25.3974
-25.2101
-25.0179
-24.8227
-24.6262
-24.4297
-24.2348
-24.0424
-23.8535
-23.6688
-23.4889
-23.3143
-23.1451
-22.9817
-22.8243
-22.6731
-22.5282
-22.3901
-22.259
-22.1352
-22.0193
-21.9118
-21.8133
-21.7246
-21.6465
-21.58
-21.526
-21.4858
-21.4604
-21.4512
-21.4593
-21.4861
-21.5329
-21.6008
-21.6912
-21.805
-21.9431
-22.106
-22.2936
-22.5056
-22.7405
-22.9962
-23.2693
-23.5555
-23.8495
-24.145
-24.4352
-24.7129
-24.9713
-25.2041
-25.4058
-25.572
-25.6994
-25.7855
-25.829
-26.4887
-26.4591
-26.4011
-26.3164
-26.2076
-26.0776
-25.9296
-25.7668
-25.5922
-25.4084
-25.2179
-25.0227
-24.8249
-24.626
-24.4276
-24.231
-24.0372
-23.8471
-23.6616
-23.481
-23.3059
-23.1363
-22.9726
-22.8148
-22.6632
-22.518
-22.3793
-22.2476
-22.1231
-22.0064
-21.8979
-21.7983
-21.7083
-21.6288
-21.5606
-21.505
-21.463
-21.4357
-21.4246
-21.4307
-21.4556
-21.5004
-21.5666
-21.6555
-21.7681
-21.9055
-22.0684
-22.257
-22.471
-22.7094
-22.9701
-23.2498
-23.5442
-23.8476
-24.1534
-24.4541
-24.7421
-25.01
-25.251
-25.4595
-25.6309
-25.7619
-25.8504
-25.895
-26.5499
-26.5185
-26.4569
-26.3672
-26.2525
-26.1162
-25.9619
-25.7929
-25.6126
-25.4236
-25.2284
-25.0292
-24.8277
-24.6256
-24.4244
-24.2254
-24.0296
-23.838
-23.6512
-23.4698
-23.2939
-23.1239
-22.9597
-22.8015
-22.6494
-22.5036
-22.3643
-22.2317
-22.1063
-21.9884
-21.8785
-21.7773
-21.6854
-21.6039
-21.5335
-21.4755
-21.4309
-21.401
-21.3871
-21.3905
-21.4125
-21.4547
-21.5183
-21.6048
-21.7156
-21.8519
-22.0146
-22.2043
-22.4212
-22.6643
-22.9319
-23.221
-23.5271
-23.8441
-24.1648
-24.481
-24.784
-25.0656
-25.3184
-25.5364
-25.715
-25.8512
-25.9428
-25.9889
-26.6283
-26.5944
-26.5279
-26.4317
-26.3092
-26.1646
-26.0019
-25.8251
-25.6375
-25.442
-25.2411
-25.0368
-24.8308
-24.6247
-24.42
-24.2179
-24.0197
-23.8261
-23.6379
-23.4554
-23.2789
-23.1083
-22.9436
-22.7849
-22.6323
-22.4857
-22.3455
-22.212
-22.0853
-21.966
-21.8544
-21.7512
-21.6571
-21.573
-21.4998
-21.4387
-21.3909
-21.3577
-21.3403
-21.3402
-21.3587
-21.3973
-21.4575
-21.541
-21.6493
-21.7839
-21.9461
-22.1369
-22.3568
-22.6056
-22.8819
-23.1828
-23.5038
-23.8385
-24.1787
-24.515
-24.8376
-25.137
-25.4049
-25.6349
-25.8224
-25.9647
-26.06
-26.1079
-26.7229
-26.6857
-26.6131
-26.5084
-26.3762
-26.2212
-26.0484
-25.8621
-25.6659
-25.4629
-25.2553
-25.045
-24.8338
-24.623
-24.4142
-24.2086
-24.0075
-23.8117
-23.6219
-23.4383
-23.261
-23.0899
-22.9248
-22.7656
-22.6123
-22.465
-22.3238
-22.1891
-22.0611
-21.9401
-21.8266
-21.721
-21.6242
-21.537
-21.4605
-21.3959
-21.3443
-21.3071
-21.2856
-21.2813
-21.2955
-21.3299
-21.386
-21.4657
-21.5707
-21.7029
-21.864
-22.0555
-22.2787
-22.5337
-22.8199
-23.1347
-23.4737
-23.8299
-24.1942
-24.5555
-24.9023
-25.2234
-25.5095
-25.7536
-25.9513
-26.1003
-26.1996
-26.2493
-26.8331
-26.7917
-26.7114
-26.5964
-26.4523
-26.2849
-26.1001
-25.9027
-25.6968
-25.4852
-25.2702
-25.0534
-24.8364
-24.6204
-24.4069
-24.1974
-23.9931
-23.7948
-23.6033
-23.4186
-23.2406
-23.0691
-22.9036
-22.744
-22.59
-22.4418
-22.2997
-22.1637
-22.0342
-21.9114
-21.7957
-21.6876
-21.5877
-21.497
-21.4167
-21.348
-21.2921
-21.2504
-21.2243
-21.2151
-21.2244
-21.2539
-21.3052
-21.3802
-21.4812
-21.6101
-21.7694
-21.9611
-22.187
-22.4485
-22.7454
-23.076
-23.4358
-23.8175
-24.2105
-24.6019
-24.9777
-25.3245
-25.6317
-25.8916
-26.1003
-26.2562
-26.3594
-26.4108
-26.9583
-26.912
-26.8223
-26.6947
-26.5362
-26.3543
-26.1555
-25.9457
-25.729
-25.5082
-25.2853
-25.0616
-24.8383
-24.6167
-24.3981
-24.1842
-23.9763
-23.7754
-23.5821
-23.3965
-23.2181
-23.0463
-22.8806
-22.7205
-22.5659
-22.4168
-22.2735
-22.1363
-22.0052
-21.8805
-21.7625
-21.6515
-21.5483
-21.4538
-21.3692
-21.2959
-21.2352
-21.1886
-21.1573
-21.1429
-21.1468
-21.1706
-21.2163
-21.286
-21.382
-21.5068
-21.6633
-21.8542
-22.0823
-22.3499
-22.658
-23.0057
-23.3891
-23.8002
-24.227
-24.6538
-25.0637
-25.4404
-25.7713
-26.0484
-26.2682
-26.4307
-26.5373
-26.5901
-27.0986
-27.0461
-26.945
-26.8023
-26.627
-26.428
-26.2135
-25.9899
-25.7616
-25.5312
-25.3002
-25.0693
-24.8394
-24.6117
-24.3876
-24.1689
-23.9571
-23.7535
-23.5586
-23.3721
-23.1936
-23.0218
-22.8561
-22.6957
-22.5404
-22.3903
-22.2459
-22.1073
-21.9747
-21.8481
-21.7276
-21.6136
-21.5067
-21.408
-21.3188
-21.2405
-21.1747
-21.1227
-21.0859
-21.0657
-21.0636
-21.0813
-21.1208
-21.1842
-21.2743
-21.394
-21.5465
-21.7355
-21.9647
-22.2376
-22.5569
-22.9229
-23.3323
-23.7768
-24.2426
-24.711
-25.1606
-25.5715
-25.9286
-26.2236
-26.4542
-26.6223
-26.7313
-26.7849
-27.2539
-27.1939
-27.0791
-26.9185
-26.7233
-26.5048
-26.2727
-26.0341
-25.7937
-25.5535
-25.3143
-25.0762
-24.8397
-24.6055
-24.3754
-24.1515
-23.9355
-23.7291
-23.5326
-23.3457
-23.1673
-22.996
-22.8305
-22.6698
-22.5138
-22.3627
-22.217
-22.0771
-21.943
-21.8146
-21.6917
-21.5745
-21.4637
-21.3604
-21.2662
-21.1825
-21.1112
-21.0535
-21.0109
-20.9846
-20.9761
-20.9871
-21.0196
-21.0761
-21.1595
-21.2729
-21.4202
-21.6058
-21.8346
-22.1116
-22.4414
-22.8261
-23.2637
-23.7458
-24.2566
-24.7732
-25.2689
-25.7185
-26.104
-26.4171
-26.6573
-26.8293
-26.9393
-26.9928
-27.4246
-27.3556
-27.2243
-27.0423
-26.824
-26.5833
-26.3316
-26.0771
-25.8242
-25.5744
-25.3274
-25.0823
-24.839
-24.5981
-24.3615
-24.1318
-23.9114
-23.702
-23.5042
-23.3173
-23.1397
-22.9692
-22.8041
-22.6434
-22.4866
-22.3344
-22.1873
-22.0461
-21.9106
-21.7804
-21.6551
-21.5347
-21.4198
-21.3116
-21.2119
-21.1225
-21.0454
-20.9818
-20.9331
-20.9005
-20.8853
-20.8891
-20.9141
-20.9628
-21.0385
-21.1445
-21.2852
-21.4658
-21.6923
-21.9716
-22.3107
-22.7141
-23.1818
-23.7057
-24.2679
-24.8405
-25.3894
-25.8826
-26.2986
-26.6291
-26.8768
-27.0502
-27.1591
-27.2114
-27.6111
-27.5312
-27.3802
-27.173
-26.9279
-26.6621
-26.389
-26.1177
-25.8524
-25.5935
-25.3393
-25.0876
-24.8375
-24.5895
-24.3459
-24.1099
-23.8846
-23.6722
-23.4733
-23.287
-23.1108
-22.9418
-22.7775
-22.6167
-22.4591
-22.3055
-22.157
-22.0145
-21.8779
-21.7462
-21.6186
-21.4948
-21.3754
-21.262
-21.1564
-21.0611
-20.9778
-20.9082
-20.8533
-20.8141
-20.7919
-20.7881
-20.8051
-20.8454
-20.9125
-21.01
-21.1427
-21.3163
-21.5384
-21.8177
-22.1639
-22.5853
-23.0845
-23.6544
-24.2752
-24.9128
-25.5234
-26.0657
-26.5134
-26.8597
-27.1117
-27.2832
-27.3885
-27.4382
-27.814
-27.7212
-27.5466
-27.3098
-27.0337
-26.7397
-26.4434
-26.1547
-25.8774
-25.6104
-25.3499
-25.0921
-24.8353
-24.58
-24.3287
-24.0856
-23.855
-23.6396
-23.44
-23.2548
-23.0809
-22.914
-22.751
-22.5902
-22.4316
-22.2762
-22.1261
-21.9825
-21.845
-21.7121
-21.5824
-21.4552
-21.3312
-21.2121
-21.1003
-20.9985
-20.909
-20.8332
-20.772
-20.7263
-20.6969
-20.6852
-20.6935
-20.7249
-20.7825
-20.8705
-20.9937
-21.1585
-21.3735
-21.6497
-22.0005
-22.4382
-22.9696
-23.5897
-24.277
-24.9903
-25.6727
-26.2698
-26.7502
-27.1093
-27.3612
-27.5266
-27.625
-27.6706
-28.0343
-27.9258
-27.7234
-27.4517
-27.1399
-26.8145
-26.4934
-26.1869
-25.8984
-25.6247
-25.3592
-25.0962
-24.8329
-24.5698
-24.3098
-24.0588
-23.8224
-23.6039
-23.404
-23.221
-23.0503
-22.8864
-22.725
-22.5642
-22.4043
-22.2468
-22.0948
-21.9501
-21.8123
-21.6787
-21.5471
-21.4165
-21.2876
-21.1623
-21.0437
-20.9353
-20.8393
-20.7573
-20.69
-20.6378
-20.601
-20.5811
-20.5804
-20.6021
-20.6497
-20.7272
-20.8394
-20.9933
-21.1985
-21.4681
-21.8196
-22.2711
-22.8348
-23.509
-24.2715
-25.073
-25.8394
-26.4979
-27.0107
-27.3783
-27.6243
-27.7783
-27.8662
-27.9056
-28.273
-28.1457
-27.9104
-27.5977
-27.2451
-26.885
-26.5374
-26.213
-25.9147
-25.6362
-25.3676
-25.1001
-24.8305
-24.5592
-24.2895
-24.0294
-23.7867
-23.565
-23.3653
-23.1854
-23.0192
-22.8594
-22.7
-22.5391
-22.3775
-22.2173
-22.0629
-21.9174
-21.7798
-21.6462
-21.513
-21.379
-21.245
-21.1129
-20.987
-20.8716
-20.7691
-20.6809
-20.6076
-20.549
-20.505
-20.4766
-20.4664
-20.478
-20.515
-20.5811
-20.6811
-20.8221
-21.0144
-21.2733
-21.6209
-22.0823
-22.6774
-23.4091
-24.2562
-25.1613
-26.0265
-26.7536
-27.2973
-27.667
-27.8996
-28.0361
-28.1093
-28.1407
-28.5312
-28.3815
-28.1074
-27.7469
-27.3475
-26.9496
-26.574
-26.2319
-25.9256
-25.6449
-25.3752
-25.1043
-24.8286
-24.5487
-24.2679
-23.9971
-23.7475
-23.5227
-23.3235
-23.1481
-22.9881
-22.8334
-22.6764
-22.5154
-22.3516
-22.1877
-22.0302
-21.8843
-21.7479
-21.6151
-21.4806
-21.3431
-21.2037
-21.0642
-20.9303
-20.8076
-20.6986
-20.6044
-20.5254
-20.4607
-20.4095
-20.3723
-20.3522
-20.3533
-20.3793
-20.4334
-20.5199
-20.6463
-20.8227
-21.066
-21.404
-21.8703
-22.4946
-23.2864
-24.2279
-25.2551
-26.238
-27.0413
-27.6124
-27.9753
-28.1857
-28.2977
-28.3518
-28.373
-28.8104
-28.6339
-28.3144
-27.8979
-27.4452
-27.0065
-26.6018
-26.2423
-25.9305
-25.6509
-25.3828
-25.1093
-24.8276
-24.5388
-24.245
-23.9617
-23.7047
-23.4766
-23.2785
-23.1091
-22.9571
-22.8091
-22.6547
-22.4932
-22.3269
-22.158
-21.9966
-21.8507
-21.7166
-21.5857
-21.4502
-21.3093
-21.1643
-21.0164
-20.8736
-20.7435
-20.628
-20.5278
-20.4437
-20.3734
-20.3151
-20.269
-20.2385
-20.2286
-20.2434
-20.2851
-20.3572
-20.4673
-20.625
-20.8473
-21.1688
-21.6336
-22.2838
-23.1369
-24.1825
-25.3544
-26.4789
-27.3664
-27.9586
-28.3032
-28.4805
-28.5604
-28.5908
-28.5997
-29.1122
-28.9034
-28.5316
-28.0495
-27.5359
-27.0542
-26.6196
-26.2429
-25.9289
-25.6543
-25.3911
-25.1158
-24.8281
-24.5304
-24.2211
-23.9227
-23.6581
-23.4266
-23.2298
-23.0684
-22.9267
-22.7871
-22.6352
-22.4729
-22.3037
-22.1281
-21.9613
-21.8161
-21.686
-21.5585
-21.4222
-21.2778
-21.1271
-20.9698
-20.8169
-20.6794
-20.5574
-20.4515
-20.3628
-20.2875
-20.2224
-20.167
-20.1256
-20.1045
-20.1081
-20.1373
-20.194
-20.2867
-20.423
-20.6185
-20.9156
-21.3706
-22.0421
-22.956
-24.1143
-25.4587
-26.7559
-27.7355
-28.3384
-28.6497
-28.7817
-28.8214
-28.8237
-28.8184
-29.4384
-29.1907
-28.7591
-28.2001
-27.6169
-27.0914
-26.6261
-26.2322
-25.9202
-25.6554
-25.4013
-25.1242
-24.8304
-24.5244
-24.1962
-23.8793
-23.6076
-23.3726
-23.1769
-23.0259
-22.8973
-22.7683
-22.6186
-22.4548
-22.2827
-22.098
-21.9237
-21.7804
-21.6563
-21.5341
-21.3969
-21.2487
-21.0927
-20.9244
-20.7598
-20.6153
-20.487
-20.3754
-20.283
-20.2034
-20.132
-20.0669
-20.014
-19.9814
-19.9741
-19.991
-20.0315
-20.1061
-20.2191
-20.3814
-20.645
-21.08
-21.7674
-22.739
-24.0157
-25.5671
-27.0778
-28.1562
-28.7543
-29.0135
-29.0864
-29.0778
-29.0478
-29.0266
-29.7912
-29.4956
-28.9977
-28.3482
-27.685
-27.117
-26.6205
-26.2084
-25.9041
-25.6548
-25.4147
-25.1349
-24.8345
-24.5223
-24.1705
-23.8304
-23.5532
-23.3145
-23.1189
-22.9816
-22.8692
-22.7536
-22.6049
-22.4389
-22.2646
-22.0675
-21.8827
-21.7431
-21.6275
-21.5132
-21.3745
-21.2222
-21.0619
-20.8803
-20.702
-20.5512
-20.4168
-20.2995
-20.2046
-20.1217
-20.0446
-19.9692
-19.904
-19.8595
-19.842
-19.8472
-19.8703
-19.927
-20.016
-20.1379
-20.358
-20.7606
-21.4578
-22.4812
-23.8763
-25.6774
-27.4567
-28.6376
-29.2078
-29.3923
-29.3914
-29.3267
-29.2607
-29.2223
-30.1732
-29.8179
-29.2487
-28.492
-27.7359
-27.1308
-26.6025
-26.1695
-25.8804
-25.6527
-25.4336
-25.1483
-24.8404
-24.5261
-24.1442
-23.7741
-23.4954
-23.2524
-23.0547
-22.9355
-22.8429
-22.7446
-22.5945
-22.425
-22.2508
-22.0365
-21.8366
-21.7038
-21.5999
-21.4969
-21.3552
-21.1982
-21.0356
-20.8377
-20.6426
-20.4875
-20.3472
-20.2235
-20.1278
-20.0427
-19.9606
-19.8741
-19.7957
-19.7388
-19.7122
-19.707
-19.7112
-19.7509
-19.8166
-19.8901
-20.0558
-20.4106
-21.1125
-22.1786
-23.6821
-25.7864
-27.909
-29.1899
-29.6998
-29.7825
-29.6927
-29.565
-29.4603
-29.4036
-30.5874
-30.1556
-29.5146
-28.6294
-27.7638
-27.1332
-26.5721
-26.1125
-25.8493
-25.6496
-25.4606
-25.1642
-24.8468
-24.5391
-24.1174
-23.7078
-23.4352
-23.1867
-22.9825
-22.8877
-22.8185
-22.7431
-22.5873
-22.4123
-22.243
-22.0048
-21.7835
-21.6623
-21.5733
-21.4865
-21.3389
-21.1759
-21.0153
-20.7966
-20.5803
-20.4246
-20.2783
-20.147
-20.053
-19.9666
-19.881
-19.7822
-19.6891
-19.6192
-19.585
-19.5716
-19.5541
-19.5788
-19.6249
-19.6404
-19.7408
-20.0281
-20.732
-21.829
-23.414
-25.8882
-28.457
-29.8242
-30.2292
-30.1796
-29.9862
-29.7897
-29.6445
-29.5692
-31.038
-30.505
-29.7996
-28.7584
-27.761
-27.1268
-26.5303
-26.0334
-25.8115
-25.6453
-25.5
-25.1821
-24.8518
-24.5658
-24.0902
-23.6272
-23.3745
-23.1183
-22.8998
-22.8387
-22.7959
-22.7517
-22.5828
-22.3995
-22.2442
-21.9724
-21.72
-21.6185
-21.5476
-21.4843
-21.3252
-21.1544
-21.0032
-20.7569
-20.5132
-20.3631
-20.2106
-20.0691
-19.9804
-19.8938
-19.8065
-19.6935
-19.5842
-19.5003
-19.4609
-19.4425
-19.3986
-19.4116
-19.4452
-19.3909
-19.4158
-19.6099
-20.3184
-21.433
-23.046
-25.9739
-29.132
-30.552
-30.793
-30.5776
-30.2674
-29.9982
-29.8118
-29.7181
-31.5302
-30.8593
-30.1106
-28.8768
-27.7167
-27.1161
-26.4786
-25.9261
-25.7688
-25.6388
-25.5573
-25.2007
-24.8516
-24.6131
-24.0628
-23.526
-23.3168
-23.0485
-22.8026
-22.7898
-22.7745
-22.7742
-22.5802
-22.384
-22.2587
-21.9393
-21.642
-21.5731
-21.5222
-21.4932
-21.3135
-21.1316
-21.0024
-20.7187
-20.4382
-20.3046
-20.1445
-19.9886
-19.9107
-19.8244
-19.7381
-19.6082
-19.481
-19.3816
-19.3397
-19.322
-19.2433
-19.2493
-19.2834
-19.1431
-19.0854
-19.1507
-19.876
-20.9966
-22.5432
-26.0296
-29.977
-31.3838
-31.3851
-30.9694
-30.5317
-30.188
-29.9612
-29.8497
-32.0715
-31.2066
-30.459
-28.9823
-27.6158
-27.1096
-26.4202
-25.782
-25.725
-25.6276
-25.641
-25.2178
-24.8399
-24.6909
-24.0351
-23.395
-23.2677
-22.9793
-22.6852
-22.7432
-22.7525
-22.816
-22.578
-22.3619
-22.2929
-21.9052
-21.5435
-21.5278
-21.4956
-21.5175
-21.3025
-21.1043
-21.018
-20.6818
-20.3512
-20.2514
-20.0808
-19.9035
-19.8449
-19.7579
-19.6773
-19.5264
-19.3793
-19.262
-19.2213
-19.2131
-19.086
-19.0912
-19.1469
-18.8974
-18.7563
-18.6421
-19.411
-20.5338
-21.8589
-26.0347
-31.0516
-32.3275
-31.9954
-31.3466
-30.7746
-30.3573
-30.0919
-29.9638
-32.6723
-31.5279
-30.862
-29.0726
-27.4367
-27.1207
-26.3593
-25.5885
-25.6869
-25.6063
-25.7628
-25.2298
-24.8069
-24.8138
-24.0072
-23.2205
-23.236
-22.9137
-22.5391
-22.7032
-22.7264
-22.8849
-22.5739
-22.3267
-22.3561
-21.8701
-21.4162
-21.4859
-21.465
-21.5633
-21.2905
-21.0676
-21.0567
-20.6461
-20.2458
-20.2072
-20.0205
-19.8107
-19.7846
-19.6937
-19.6259
-19.4478
-19.2793
-19.1402
-19.1049
-19.1203
-18.9228
-18.9352
-19.0455
-18.6521
-18.4386
-18.0709
-18.9319
-20.0711
-20.931
-25.9593
-32.4382
-33.3851
-32.6101
-31.7
-30.992
-30.5045
-30.2036
-30.0606
-33.3475
-31.7937
-31.3459
-29.1455
-27.1498
-27.17
-26.3018
-25.3272
-25.6659
-25.5652
-25.9398
-25.2317
-24.7378
-25.0026
-23.9788
-22.9833
-23.2352
-22.8554
-22.3522
-22.6772
-22.6896
-22.9919
-22.5644
-22.2689
-22.4617
-21.8337
-21.2485
-21.4537
-21.4254
-21.6397
-21.2746
-21.014
-21.1288
-20.611
-20.1133
-20.1779
-19.9649
-19.7058
-19.7327
-19.6304
-19.5865
-19.3719
-19.1809
-19.0147
-18.9892
-19.0501
-18.7484
-18.7774
-18.9927
-18.4018
-18.1481
-17.4168
-18.449
-19.652
-19.6778
-25.7602
-34.2496
-34.5487
-33.2103
-32.0205
-31.1806
-30.6288
-30.2966
-30.1404
-34.1181
-31.9598
-31.9491
-29.1987
-26.7137
-27.2881
-26.2552
-24.972
-25.6807
-25.4881
-26.1957
-25.2164
-24.6111
-25.2863
-23.9493
-22.6566
-23.2848
-22.8095
-22.1072
-22.6772
-22.6314
-23.1527
-22.5448
-22.1746
-22.6284
-21.7955
-21.0247
-21.4414
-21.3682
-21.7592
-21.2511
-20.9326
-21.2484
-20.5758
-19.9416
-20.1721
-19.9154
-19.5826
-19.6933
-19.5652
-19.5624
-19.2973
-19.0849
-18.8833
-18.8717
-19.0121
-18.5551
-18.6117
-19.0069
-18.1355
-17.9082
-16.6497
-17.9732
-19.3444
-17.9932
-25.3771
-36.6388
-35.7943
-33.7728
-32.2988
-31.3377
-30.7301
-30.3712
-30.2042
-35.0135
-31.9619
-32.7267
-29.2301
-26.0724
-27.5185
-26.2289
-24.4863
-25.7607
-25.3486
-26.5641
-25.1744
-24.3962
-25.7052
-23.9179
-22.2033
-23.4131
-22.7823
-21.7795
-22.7222
-22.5344
-23.3892
-22.5088
-22.0241
-22.8821
-21.7544
-20.7237
-21.4655
-21.2797
-21.9394
-21.2149
-20.8084
-21.4352
-20.5393
-19.714
-20.2021
-19.8737
-19.4323
-19.6731
-19.4937
-19.5587
-19.2222
-18.9923
-18.7437
-18.7482
-19.0194
-18.3326
-18.4285
-19.1132
-17.8338
-17.7539
-15.7267
-17.5145
-19.2485
-15.7411
-24.7268
-39.8117
-37.0738
-34.271
-32.5273
-31.4618
-30.8085
-30.4284
-30.2528
-36.0746
-31.7087
-33.7558
-29.2372
-25.1504
-27.9219
-26.234
-23.8195
-25.9498
-25.1065
-27.0911
-25.0934
-24.0509
-26.3133
-23.8829
-21.5737
-23.6589
-22.7812
-21.3358
-22.8408
-22.3719
-23.7317
-22.4478
-21.7902
-23.2578
-21.7086
-20.317
-21.5505
-21.1386
-22.2045
-21.1589
-20.6205
-21.716
-20.4998
-19.4083
-20.2855
-19.8414
-19.2429
-19.6819
-19.409
-19.582
-19.1433
-18.9049
-18.5932
-18.6123
-19.0906
-18.0674
-18.2139
-19.3465
-17.4653
-17.7364
-14.5882
-17.0794
-19.5069
-12.7486
-23.6962
-44.0418
-38.304
-34.6765
-32.7002
-31.5528
-30.865
-30.4693
-30.2874
-37.3573
-31.0741
-35.1425
-29.2175
-23.8479
-28.5808
-26.2834
-22.9031
-26.3125
-24.702
-27.8392
-24.9573
-23.5182
-27.1825
-23.8421
-20.7022
-24.0755
-22.815
-20.7306
-23.0751
-22.1049
-24.2215
-22.3511
-21.4363
-23.802
-21.6551
-19.7671
-21.7327
-20.9135
-22.5877
-21.0745
-20.3407
-22.1262
-20.4543
-18.9953
-20.4463
-19.82
-18.9981
-19.7339
-19.3007
-19.6418
-19.0556
-18.8259
-18.429
-18.4542
-19.2508
-17.7421
-17.9483
-19.7544
-16.9813
-17.9289
-13.1534
-16.6673
-20.3158
-8.79963
-22.1345
-49.6875
-39.3537
-34.963
-32.8144
-31.6114
-30.901
-30.4952
-30.3093
-38.9367
-29.8874
-37.0288
-29.1674
-22.0356
-29.6048
-26.3915
-21.646
-26.9402
-24.0495
-28.8921
-24.7462
-22.7228
-28.4067
-23.7919
-19.5033
-24.7336
-22.8936
-19.9034
-23.4845
-21.6768
-24.9133
-22.205
-20.914
-24.5757
-21.5895
-19.0249
-22.0625
-20.5586
-23.1327
-20.9499
-19.9318
-22.7124
-20.3989
-18.437
-20.7164
-19.8105
-18.6767
-19.849
-19.1539
-19.751
-18.9518
-18.7595
-18.2481
-18.2599
-19.5331
-17.3347
-17.6048
-20.4012
-16.3104
-18.4332
-11.3163
-16.2661
-21.9385
-3.62746
-19.8438
-57.2129
-40.0274
-35.1108
-32.8702
-31.6395
-30.9182
-30.5075
-30.3197
)
;

boundaryField
{
    left
    {
        type            calculated;
        value           nonuniform List<scalar> 
32
(
-26.4236
-26.4459
-26.4887
-26.5499
-26.6283
-26.7229
-26.8331
-26.9583
-27.0986
-27.2539
-27.4246
-27.6111
-27.814
-28.0343
-28.273
-28.5312
-28.8104
-29.1122
-29.4384
-29.7912
-30.1732
-30.5874
-31.038
-31.5302
-32.0715
-32.6723
-33.3475
-34.1181
-35.0135
-36.0746
-37.3573
-38.9367
)
;
    }
    right
    {
        type            calculated;
        value           nonuniform List<scalar> 
32
(
-25.7943
-25.829
-25.895
-25.9889
-26.1079
-26.2493
-26.4108
-26.5901
-26.7849
-26.9928
-27.2114
-27.4382
-27.6706
-27.9056
-28.1407
-28.373
-28.5997
-28.8184
-29.0266
-29.2223
-29.4036
-29.5692
-29.7181
-29.8497
-29.9638
-30.0606
-30.1404
-30.2042
-30.2528
-30.2874
-30.3093
-30.3197
)
;
    }
    interface
    {
        type            calculated;
        value           nonuniform List<scalar> 
64
(
-39.8112
-29.1316
-38.1173
-29.1342
-20.9837
-30.2237
-26.462
-20.9192
-27.3337
-23.6486
-29.5066
-24.6192
-22.2486
-29.1208
-23.7639
-18.81
-25.133
-22.9453
-19.4257
-23.7416
-21.4141
-25.3175
-22.1177
-20.6039
-25.0285
-21.553
-18.5987
-22.2716
-20.3419
-23.4519
-20.8759
-19.6899
-23.0561
-20.3682
-18.1161
-20.8833
-19.8088
-18.4938
-19.9253
-19.0687
-19.8198
-18.8948
-18.7302
-18.1532
-18.1516
-19.7096
-17.1075
-17.4096
-20.7935
-15.9177
-18.7782
-10.2821
-16.0657
-22.9907
-0.698838
-18.4881
-61.5107
-40.2411
-35.1482
-32.8838
-31.6463
-30.9223
-30.5105
-30.3222
)
;
    }
    bottom
    {
        type            calculated;
        value           nonuniform List<scalar> 
64
(
-26.4178
-26.3904
-26.3363
-26.2571
-26.1549
-26.032
-25.8913
-25.7356
-25.5676
-25.3899
-25.2049
-25.0147
-24.8212
-24.6261
-24.4311
-24.2372
-24.0458
-23.8577
-23.6736
-23.4942
-23.3198
-23.151
-22.9878
-22.8306
-22.6796
-22.5351
-22.3973
-22.2666
-22.1433
-22.028
-21.9211
-21.8234
-21.7355
-21.6584
-21.5929
-21.5401
-21.501
-21.4769
-21.4689
-21.4783
-21.5064
-21.5544
-21.6235
-21.7149
-21.8295
-21.968
-22.1308
-22.3178
-22.5283
-22.7608
-23.0131
-23.2818
-23.5627
-23.8506
-24.1394
-24.4226
-24.6936
-24.9458
-25.1732
-25.3704
-25.5332
-25.6581
-25.7426
-25.7853
)
;
    }
    defaultFaces
    {
        type            empty;
    }
}


// ************************************************************************* //
