/*--------------------------------*- C++ -*----------------------------------*\
| =========                 |                                                 |
| \\      /  F ield         | OpenFOAM: The Open Source CFD Toolbox           |
|  \\    /   O peration     | Version:  5.x                                   |
|   \\  /    A nd           | Web:      www.OpenFOAM.org                      |
|    \\/     M anipulation  |                                                 |
\*---------------------------------------------------------------------------*/
FoamFile
{
    version     2.0;
    format      ascii;
    class       volScalarField;
    location    "5.4";
    object      T;
}
// * * * * * * * * * * * * * * * * * * * * * * * * * * * * * * * * * * * * * //

dimensions      [0 0 0 1 0 0 0];

internalField   nonuniform List<scalar> 
6300
(
322.844
322.531
322.218
321.902
321.585
321.264
320.939
320.61
320.277
319.938
319.593
319.243
318.887
318.525
318.157
322.844
322.532
322.219
321.905
321.588
321.267
320.943
320.615
320.282
319.943
319.599
319.249
318.893
318.531
318.163
322.845
322.535
322.223
321.91
321.594
321.275
320.952
320.625
320.292
319.954
319.611
319.261
318.905
318.543
318.174
322.846
322.538
322.228
321.917
321.603
321.286
320.965
320.639
320.308
319.971
319.629
319.279
318.923
318.561
318.192
322.847
322.542
322.236
321.927
321.616
321.301
320.983
320.659
320.33
319.995
319.653
319.304
318.948
318.585
318.215
322.849
322.548
322.245
321.94
321.632
321.321
321.005
320.684
320.358
320.024
319.684
319.336
318.98
318.617
318.245
322.852
322.554
322.256
321.955
321.652
321.344
321.033
320.715
320.392
320.061
319.723
319.376
319.02
318.656
318.283
322.854
322.562
322.269
321.973
321.675
321.373
321.066
320.753
320.433
320.106
319.77
319.424
319.069
318.704
318.328
322.857
322.571
322.284
321.995
321.702
321.406
321.104
320.797
320.482
320.159
319.826
319.483
319.128
318.761
318.383
322.861
322.582
322.302
322.019
321.734
321.444
321.149
320.848
320.54
320.222
319.893
319.553
319.199
318.831
318.448
322.865
322.593
322.321
322.047
321.769
321.487
321.201
320.907
320.606
320.295
319.973
319.636
319.285
318.916
318.528
322.869
322.606
322.343
322.077
321.809
321.536
321.258
320.974
320.682
320.38
320.065
319.735
319.388
319.019
318.626
322.874
322.621
322.366
322.111
321.852
321.59
321.323
321.049
320.768
320.477
320.173
319.852
319.511
319.145
318.751
322.879
322.636
322.392
322.147
321.899
321.648
321.393
321.132
320.865
320.587
320.297
319.99
319.66
319.301
318.91
322.884
322.652
322.419
322.185
321.949
321.711
321.469
321.223
320.97
320.71
320.438
320.15
319.837
319.49
319.105
317.815
317.5
317.181
316.859
316.534
316.205
315.875
315.541
315.206
314.868
314.528
314.187
313.844
313.5
313.155
312.81
312.463
312.117
311.77
311.424
311.078
310.731
310.385
310.04
309.694
309.349
309.004
308.659
308.315
307.972
307.628
307.286
306.944
306.603
306.263
305.924
305.585
305.247
304.911
304.574
304.239
303.904
303.57
303.236
302.903
302.571
302.24
301.91
301.581
301.253
300.925
300.599
300.273
299.949
299.625
299.302
298.979
298.658
298.337
298.017
297.698
297.379
297.062
296.745
296.429
296.115
295.801
295.488
295.176
294.864
294.553
294.243
293.934
293.625
293.316
293.009
292.702
292.395
292.089
291.784
291.479
291.174
290.869
290.565
290.259
289.954
289.648
289.341
289.033
288.724
317.82
317.505
317.186
316.863
316.538
316.209
315.878
315.545
315.209
314.87
314.53
314.189
313.846
313.501
313.156
312.81
312.464
312.117
311.77
311.424
311.077
310.731
310.385
310.039
309.694
309.348
309.003
308.659
308.315
307.971
307.628
307.285
306.943
306.602
306.262
305.922
305.584
305.246
304.909
304.573
304.238
303.903
303.569
303.235
302.902
302.57
302.239
301.909
301.579
301.251
300.924
300.598
300.272
299.948
299.624
299.301
298.978
298.657
298.336
298.016
297.696
297.378
297.06
296.744
296.428
296.113
295.799
295.487
295.174
294.863
294.552
294.242
293.933
293.624
293.316
293.008
292.701
292.394
292.089
291.783
291.478
291.174
290.869
290.565
290.26
289.955
289.649
289.342
289.034
288.725
317.831
317.515
317.196
316.873
316.546
316.217
315.885
315.551
315.214
314.876
314.535
314.193
313.849
313.504
313.158
312.812
312.465
312.117
311.77
311.423
311.077
310.73
310.384
310.038
309.693
309.347
309.002
308.658
308.313
307.969
307.626
307.283
306.941
306.6
306.259
305.92
305.582
305.244
304.907
304.571
304.236
303.901
303.567
303.233
302.9
302.568
302.236
301.906
301.577
301.248
300.921
300.595
300.27
299.945
299.621
299.299
298.976
298.655
298.334
298.013
297.694
297.375
297.057
296.741
296.425
296.111
295.797
295.484
295.172
294.861
294.551
294.241
293.931
293.622
293.314
293.006
292.699
292.393
292.087
291.782
291.478
291.174
290.87
290.566
290.262
289.957
289.651
289.344
289.037
288.728
317.848
317.531
317.21
316.886
316.559
316.229
315.896
315.561
315.223
314.884
314.542
314.199
313.854
313.508
313.161
312.814
312.466
312.118
311.77
311.422
311.075
310.729
310.383
310.037
309.692
309.346
309.001
308.656
308.311
307.967
307.623
307.279
306.937
306.596
306.255
305.916
305.578
305.241
304.904
304.568
304.233
303.898
303.564
303.23
302.896
302.564
302.232
301.902
301.572
301.244
300.917
300.591
300.266
299.942
299.618
299.295
298.973
298.651
298.33
298.01
297.69
297.371
297.053
296.736
296.421
296.106
295.793
295.481
295.169
294.858
294.548
294.238
293.928
293.619
293.311
293.003
292.696
292.39
292.085
291.78
291.476
291.173
290.87
290.567
290.264
289.96
289.655
289.349
289.041
288.732
317.87
317.552
317.23
316.904
316.576
316.244
315.91
315.574
315.235
314.895
314.552
314.207
313.861
313.514
313.165
312.816
312.467
312.117
311.769
311.421
311.074
310.727
310.381
310.035
309.69
309.345
308.999
308.654
308.308
307.963
307.619
307.275
306.932
306.59
306.25
305.911
305.573
305.236
304.9
304.564
304.229
303.894
303.56
303.226
302.892
302.559
302.227
301.896
301.566
301.238
300.911
300.585
300.261
299.937
299.614
299.292
298.969
298.647
298.326
298.005
297.685
297.365
297.047
296.73
296.415
296.101
295.788
295.476
295.165
294.854
294.544
294.235
293.925
293.616
293.307
292.999
292.692
292.386
292.081
291.777
291.474
291.172
290.87
290.569
290.267
289.964
289.66
289.355
289.048
288.738
317.898
317.578
317.254
316.927
316.596
316.263
315.928
315.59
315.251
314.909
314.564
314.218
313.87
313.52
313.17
312.818
312.467
312.117
311.767
311.418
311.071
310.724
310.379
310.034
309.688
309.343
308.998
308.652
308.305
307.959
307.614
307.269
306.925
306.583
306.243
305.904
305.566
305.23
304.895
304.56
304.225
303.891
303.556
303.221
302.886
302.552
302.219
301.888
301.558
301.229
300.903
300.578
300.254
299.932
299.609
299.287
298.965
298.643
298.321
297.999
297.678
297.358
297.039
296.722
296.407
296.093
295.781
295.47
295.16
294.85
294.541
294.231
293.921
293.612
293.303
292.994
292.687
292.38
292.075
291.772
291.471
291.17
290.87
290.571
290.271
289.971
289.668
289.364
289.057
288.747
317.933
317.611
317.284
316.954
316.621
316.286
315.949
315.61
315.269
314.925
314.58
314.232
313.881
313.529
313.175
312.821
312.467
312.114
311.763
311.414
311.066
310.72
310.376
310.031
309.687
309.342
308.996
308.65
308.302
307.955
307.607
307.261
306.916
306.573
306.233
305.895
305.558
305.223
304.889
304.556
304.221
303.887
303.551
303.215
302.88
302.544
302.21
301.877
301.547
301.219
300.893
300.569
300.247
299.925
299.604
299.283
298.961
298.638
298.315
297.992
297.67
297.349
297.029
296.712
296.397
296.084
295.773
295.463
295.154
294.845
294.537
294.227
293.918
293.607
293.297
292.988
292.679
292.372
292.068
291.765
291.465
291.167
290.87
290.574
290.277
289.979
289.679
289.376
289.07
288.76
317.975
317.649
317.319
316.985
316.649
316.311
315.972
315.632
315.29
314.946
314.599
314.248
313.895
313.539
313.181
312.823
312.465
312.11
311.757
311.407
311.06
310.715
310.372
310.029
309.687
309.342
308.997
308.649
308.3
307.949
307.599
307.25
306.904
306.56
306.22
305.883
305.548
305.215
304.883
304.551
304.218
303.884
303.548
303.21
302.872
302.534
302.198
301.864
301.533
301.205
300.88
300.558
300.238
299.918
299.599
299.279
298.957
298.634
298.31
297.985
297.66
297.337
297.016
296.698
296.383
296.071
295.762
295.454
295.148
294.841
294.533
294.224
293.914
293.603
293.291
292.979
292.669
292.362
292.057
291.755
291.457
291.162
290.869
290.577
290.285
289.991
289.694
289.394
289.089
288.778
318.025
317.694
317.358
317.019
316.678
316.338
315.998
315.657
315.315
314.97
314.622
314.269
313.912
313.551
313.188
312.824
312.461
312.101
311.746
311.395
311.049
310.707
310.367
310.028
309.688
309.345
309
308.65
308.298
307.944
307.59
307.237
306.887
306.542
306.202
305.867
305.535
305.206
304.877
304.548
304.217
303.883
303.546
303.206
302.864
302.523
302.183
301.846
301.514
301.186
300.863
300.544
300.227
299.912
299.595
299.277
298.956
298.632
298.305
297.977
297.649
297.322
296.999
296.68
296.365
296.055
295.749
295.445
295.141
294.838
294.532
294.224
293.913
293.599
293.284
292.969
292.656
292.346
292.041
291.741
291.445
291.154
290.866
290.58
290.294
290.007
289.715
289.418
289.115
288.803
318.084
317.746
317.401
317.055
316.709
316.365
316.024
315.684
315.343
315
314.651
314.297
313.935
313.568
313.196
312.823
312.452
312.087
311.728
311.377
311.034
310.696
310.361
310.028
309.692
309.353
309.007
308.656
308.299
307.939
307.577
307.218
306.864
306.517
306.178
305.846
305.519
305.195
304.873
304.548
304.22
303.887
303.548
303.204
302.857
302.508
302.162
301.822
301.488
301.161
300.841
300.527
300.216
299.906
299.594
299.279
298.959
298.633
298.303
297.969
297.635
297.302
296.975
296.655
296.341
296.034
295.732
295.434
295.136
294.837
294.534
294.227
293.914
293.597
293.277
292.956
292.638
292.324
292.018
291.719
291.427
291.142
290.861
290.583
290.306
290.028
289.744
289.453
289.152
288.839
318.155
317.805
317.448
317.089
316.735
316.388
316.047
315.711
315.376
315.037
314.69
314.334
313.967
313.59
313.206
312.819
312.436
312.062
311.699
311.349
311.01
310.68
310.354
310.03
309.702
309.368
309.024
308.67
308.306
307.935
307.562
307.192
306.831
306.482
306.144
305.816
305.497
305.183
304.87
304.554
304.231
303.899
303.558
303.207
302.85
302.49
302.135
301.788
301.451
301.126
300.811
300.505
300.203
299.902
299.598
299.288
298.969
298.641
298.305
297.962
297.617
297.276
296.942
296.62
296.307
296.005
295.711
295.421
295.133
294.841
294.543
294.237
293.923
293.6
293.271
292.94
292.612
292.293
291.984
291.686
291.4
291.122
290.852
290.586
290.321
290.055
289.784
289.502
289.206
288.891
318.243
317.875
317.495
317.118
316.752
316.402
316.065
315.738
315.414
315.084
314.743
314.387
314.013
313.623
313.219
312.809
312.407
312.02
311.653
311.305
310.974
310.656
310.346
310.038
309.723
309.397
309.055
308.697
308.322
307.935
307.541
307.154
306.782
306.429
306.094
305.775
305.468
305.17
304.872
304.568
304.254
303.925
303.581
303.219
302.846
302.467
302.096
301.738
301.398
301.076
300.77
300.475
300.188
299.902
299.611
299.309
298.993
298.662
298.316
297.958
297.594
297.238
296.894
296.569
296.259
295.965
295.683
295.408
295.133
294.853
294.564
294.261
293.943
293.611
293.267
292.918
292.575
292.246
291.934
291.638
291.359
291.092
290.836
290.586
290.338
290.09
289.838
289.573
289.286
288.969
318.356
317.964
317.539
317.131
316.746
316.395
316.068
315.762
315.459
315.146
314.817
314.464
314.085
313.675
313.24
312.787
312.355
311.95
311.579
311.235
310.918
310.62
310.337
310.054
309.759
309.447
309.111
308.75
308.358
307.942
307.509
307.095
306.706
306.35
306.02
305.715
305.428
305.155
304.883
304.598
304.298
303.974
303.627
303.25
302.85
302.433
302.036
301.662
301.321
301.003
300.711
300.435
300.173
299.911
299.638
299.35
299.039
298.706
298.344
297.961
297.561
297.18
296.822
296.494
296.189
295.909
295.644
295.393
295.142
294.88
294.604
294.305
293.986
293.638
293.27
292.886
292.52
292.175
291.86
291.567
291.299
291.048
290.812
290.583
290.353
290.132
289.911
289.676
289.409
289.091
318.519
318.098
317.561
317.108
316.693
316.354
316.043
315.779
315.521
315.231
314.928
314.576
314.204
313.761
313.289
312.735
312.266
311.83
311.467
311.126
310.837
310.564
310.326
310.088
309.818
309.534
309.2
308.848
308.426
307.977
307.448
307
306.583
306.235
305.909
305.631
305.368
305.139
304.911
304.651
304.377
304.056
303.717
303.311
302.879
302.371
301.942
301.541
301.207
300.894
300.628
300.376
300.156
299.937
299.687
299.424
299.117
298.791
298.402
297.988
297.501
297.089
296.705
296.385
296.085
295.829
295.588
295.377
295.167
294.927
294.676
294.381
294.068
293.696
293.298
292.829
292.432
292.062
291.753
291.462
291.215
290.981
290.779
290.579
290.358
290.173
290.004
289.825
289.604
289.296
318.777
318.402
317.461
317.031
316.531
316.271
315.949
315.787
315.63
315.333
315.112
314.715
314.424
313.889
313.457
312.558
312.13
311.605
311.322
310.942
310.733
310.456
310.313
310.171
309.897
309.691
309.319
309.043
308.536
308.126
307.27
306.861
306.36
306.09
305.726
305.525
305.26
305.123
304.986
304.722
304.523
304.165
303.9
303.412
303.018
302.197
301.805
301.325
301.065
300.717
300.524
300.27
300.138
300.006
299.754
299.563
299.22
298.966
298.498
298.12
297.333
296.958
296.498
296.249
295.915
295.73
295.486
295.36
295.234
294.992
294.809
294.481
294.238
293.789
293.426
292.668
292.306
291.861
291.619
291.293
291.112
290.869
290.742
290.605
290.312
290.19
290.113
290.035
289.922
289.691
288.383
288.01
287.637
287.263
286.888
286.514
286.14
285.767
285.395
285.025
284.655
284.286
283.918
283.55
283.183
288.384
288.011
287.637
287.263
286.888
286.514
286.14
285.766
285.394
285.023
284.654
284.285
283.917
283.55
283.183
288.387
288.013
287.638
287.263
286.888
286.512
286.138
285.764
285.392
285.021
284.652
284.283
283.916
283.549
283.183
288.39
288.016
287.64
287.264
286.887
286.511
286.135
285.761
285.389
285.018
284.648
284.28
283.914
283.548
283.183
288.396
288.02
287.643
287.264
286.886
286.508
286.131
285.757
285.384
285.013
284.644
284.276
283.911
283.546
283.182
288.404
288.026
287.646
287.265
286.884
286.504
286.126
285.75
285.376
285.006
284.637
284.271
283.907
283.543
283.181
288.415
288.034
287.651
287.266
286.881
286.498
286.118
285.741
285.367
284.996
284.629
284.264
283.901
283.54
283.18
288.43
288.045
287.656
287.266
286.877
286.49
286.107
285.728
285.354
284.984
284.617
284.254
283.894
283.536
283.178
288.452
288.06
287.664
287.266
286.87
286.478
286.091
285.711
285.336
284.967
284.603
284.242
283.885
283.53
283.177
288.482
288.08
287.672
287.263
286.858
286.46
286.07
285.688
285.314
284.946
284.584
284.227
283.874
283.523
283.174
288.525
288.107
287.681
287.257
286.84
286.435
286.04
285.657
285.284
284.919
284.561
284.209
283.86
283.515
283.171
288.587
288.141
287.688
287.242
286.811
286.398
286
285.617
285.246
284.885
284.532
284.186
283.844
283.505
283.168
288.678
288.183
287.687
287.213
286.766
286.344
285.945
285.564
285.198
284.843
284.497
284.158
283.824
283.493
283.164
288.814
288.226
287.666
287.156
286.694
286.269
285.872
285.497
285.138
284.792
284.455
284.125
283.8
283.479
283.159
289.011
288.24
287.594
287.053
286.584
286.164
285.777
285.414
285.067
284.732
284.406
284.088
283.774
283.463
283.154
322.889
322.667
322.445
322.222
321.997
321.771
321.542
321.311
321.075
320.833
320.583
320.319
320.032
319.696
319.261
322.894
322.682
322.469
322.256
322.042
321.828
321.612
321.394
321.174
320.951
320.724
320.49
320.241
319.953
319.519
322.899
322.696
322.494
322.291
322.088
321.885
321.682
321.478
321.275
321.072
320.87
320.671
320.479
320.31
320.252
322.904
322.711
322.518
322.326
322.134
321.943
321.752
321.563
321.376
321.192
321.015
320.848
320.701
320.592
320.552
322.908
322.726
322.543
322.361
322.18
322
321.821
321.646
321.474
321.308
321.151
321.01
320.895
320.826
320.848
322.913
322.74
322.567
322.395
322.224
322.055
321.889
321.726
321.568
321.417
321.278
321.155
321.057
320.998
320.986
322.918
322.754
322.591
322.428
322.268
322.109
321.954
321.802
321.657
321.519
321.392
321.282
321.193
321.137
321.132
322.922
322.768
322.614
322.461
322.31
322.161
322.016
321.875
321.74
321.613
321.496
321.393
321.307
321.241
321.199
322.927
322.781
322.636
322.492
322.35
322.211
322.075
321.944
321.818
321.7
321.59
321.492
321.405
321.329
321.254
322.931
322.794
322.657
322.522
322.388
322.258
322.131
322.008
321.891
321.78
321.677
321.583
321.496
321.418
321.347
322.935
322.806
322.677
322.55
322.425
322.302
322.183
322.069
321.959
321.856
321.758
321.668
321.582
321.5
321.409
322.939
322.817
322.696
322.577
322.459
322.345
322.233
322.126
322.024
321.927
321.835
321.749
321.667
321.587
321.512
322.943
322.828
322.714
322.602
322.492
322.384
322.28
322.18
322.084
321.994
321.908
321.827
321.749
321.67
321.579
322.946
322.838
322.731
322.626
322.523
322.422
322.324
322.231
322.142
322.057
321.978
321.903
321.832
321.763
321.694
322.949
322.848
322.747
322.648
322.551
322.457
322.366
322.278
322.195
322.117
322.044
321.977
321.915
321.854
321.779
322.952
322.857
322.763
322.67
322.579
322.49
322.405
322.323
322.246
322.174
322.107
322.047
321.995
321.956
321.945
322.955
322.866
322.777
322.689
322.604
322.521
322.441
322.365
322.293
322.226
322.165
322.112
322.068
322.037
322.02
322.958
322.873
322.79
322.708
322.627
322.55
322.475
322.403
322.336
322.274
322.219
322.17
322.132
322.107
322.105
322.96
322.881
322.802
322.725
322.649
322.576
322.506
322.439
322.376
322.318
322.266
322.222
322.186
322.162
322.148
322.963
322.888
322.814
322.741
322.67
322.601
322.534
322.471
322.412
322.358
322.309
322.267
322.233
322.209
322.2
322.965
322.894
322.824
322.756
322.689
322.623
322.561
322.501
322.446
322.394
322.347
322.306
322.272
322.246
322.228
322.967
322.9
322.834
322.769
322.706
322.644
322.585
322.529
322.476
322.426
322.381
322.341
322.307
322.279
322.26
322.968
322.906
322.843
322.782
322.722
322.664
322.608
322.554
322.503
322.456
322.412
322.372
322.336
322.304
322.276
322.97
322.911
322.852
322.794
322.737
322.682
322.628
322.577
322.529
322.483
322.44
322.4
322.363
322.327
322.29
322.972
322.915
322.86
322.804
322.751
322.698
322.647
322.599
322.552
322.508
322.466
322.426
322.388
322.351
322.315
322.973
322.92
322.867
322.815
322.763
322.713
322.665
322.618
322.574
322.531
322.49
322.451
322.413
322.374
322.333
322.975
322.924
322.873
322.824
322.775
322.728
322.682
322.637
322.594
322.553
322.513
322.475
322.437
322.4
322.362
322.976
322.928
322.88
322.833
322.786
322.741
322.697
322.654
322.613
322.574
322.536
322.499
322.462
322.425
322.382
322.977
322.931
322.886
322.841
322.796
322.753
322.711
322.671
322.631
322.594
322.557
322.522
322.488
322.453
322.418
322.978
322.934
322.891
322.848
322.806
322.765
322.725
322.686
322.649
322.613
322.578
322.545
322.513
322.482
322.445
322.979
322.937
322.896
322.855
322.815
322.776
322.737
322.7
322.665
322.631
322.598
322.567
322.539
322.514
322.498
322.98
322.94
322.901
322.862
322.823
322.786
322.749
322.714
322.68
322.647
322.617
322.588
322.562
322.54
322.522
322.981
322.943
322.905
322.868
322.831
322.795
322.76
322.726
322.694
322.663
322.634
322.607
322.583
322.563
322.551
322.982
322.945
322.909
322.873
322.838
322.804
322.77
322.738
322.706
322.677
322.649
322.623
322.601
322.581
322.565
322.982
322.947
322.913
322.878
322.845
322.812
322.779
322.748
322.718
322.69
322.663
322.638
322.616
322.597
322.583
322.983
322.95
322.916
322.883
322.851
322.819
322.788
322.758
322.729
322.701
322.675
322.651
322.629
322.61
322.592
322.984
322.951
322.919
322.888
322.856
322.826
322.796
322.767
322.739
322.712
322.687
322.663
322.641
322.621
322.604
322.984
322.953
322.922
322.892
322.862
322.832
322.803
322.775
322.748
322.722
322.697
322.673
322.651
322.629
322.609
322.985
322.955
322.925
322.895
322.866
322.838
322.81
322.783
322.756
322.731
322.706
322.682
322.66
322.637
322.614
322.985
322.956
322.928
322.899
322.871
322.843
322.816
322.79
322.764
322.739
322.715
322.691
322.668
322.646
322.623
322.986
322.958
322.93
322.902
322.875
322.848
322.822
322.796
322.771
322.747
322.723
322.7
322.677
322.654
322.63
322.986
322.959
322.932
322.905
322.879
322.853
322.827
322.802
322.778
322.754
322.731
322.708
322.685
322.663
322.641
322.987
322.96
322.934
322.908
322.882
322.857
322.832
322.808
322.784
322.761
322.738
322.716
322.694
322.672
322.648
322.987
322.961
322.936
322.91
322.885
322.861
322.836
322.813
322.79
322.767
322.745
322.724
322.703
322.682
322.661
322.987
322.962
322.937
322.913
322.888
322.864
322.841
322.818
322.795
322.773
322.752
322.732
322.712
322.692
322.67
322.988
322.963
322.939
322.915
322.891
322.867
322.844
322.822
322.8
322.779
322.759
322.739
322.72
322.703
322.689
322.988
322.964
322.94
322.916
322.893
322.87
322.848
322.826
322.805
322.784
322.764
322.746
322.728
322.712
322.698
322.988
322.965
322.941
322.918
322.895
322.873
322.851
322.829
322.809
322.789
322.77
322.752
322.735
322.72
322.707
322.988
322.965
322.942
322.919
322.897
322.875
322.853
322.832
322.812
322.793
322.774
322.757
322.74
322.725
322.712
322.989
322.966
322.943
322.921
322.898
322.877
322.855
322.835
322.815
322.796
322.778
322.761
322.745
322.73
322.718
322.989
322.966
322.944
322.921
322.9
322.878
322.857
322.837
322.817
322.799
322.781
322.764
322.748
322.734
322.72
322.989
322.966
322.944
322.922
322.9
322.879
322.859
322.838
322.819
322.801
322.783
322.766
322.751
322.737
322.724
322.989
322.967
322.944
322.923
322.901
322.88
322.859
322.84
322.82
322.802
322.785
322.768
322.753
322.738
322.725
322.989
322.967
322.945
322.923
322.901
322.88
322.86
322.84
322.821
322.803
322.786
322.769
322.754
322.739
322.726
322.989
322.967
322.944
322.923
322.901
322.88
322.86
322.84
322.821
322.803
322.786
322.77
322.754
322.74
322.727
322.989
322.966
322.944
322.922
322.901
322.88
322.859
322.84
322.821
322.802
322.785
322.769
322.754
322.74
322.727
322.989
322.966
322.944
322.922
322.9
322.879
322.858
322.838
322.819
322.801
322.784
322.768
322.753
322.739
322.727
322.989
322.966
322.943
322.921
322.899
322.878
322.857
322.837
322.818
322.799
322.782
322.766
322.751
322.738
322.726
322.988
322.965
322.942
322.92
322.897
322.876
322.855
322.835
322.815
322.797
322.78
322.763
322.749
322.735
322.724
322.988
322.965
322.941
322.918
322.895
322.874
322.852
322.832
322.812
322.794
322.776
322.76
322.745
322.731
322.72
322.988
322.964
322.94
322.916
322.893
322.871
322.849
322.828
322.808
322.79
322.772
322.755
322.74
322.726
322.711
322.988
322.963
322.938
322.914
322.89
322.868
322.845
322.824
322.804
322.785
322.767
322.75
322.734
322.72
322.706
322.987
322.962
322.936
322.912
322.887
322.864
322.841
322.819
322.799
322.779
322.761
322.744
322.728
322.713
322.698
322.987
322.96
322.934
322.909
322.884
322.859
322.836
322.814
322.793
322.773
322.754
322.737
322.721
322.706
322.693
322.986
322.959
322.932
322.905
322.879
322.854
322.83
322.807
322.786
322.765
322.747
322.73
322.714
322.699
322.684
322.986
322.957
322.929
322.901
322.874
322.848
322.824
322.8
322.778
322.757
322.738
322.721
322.705
322.691
322.679
322.985
322.955
322.926
322.897
322.869
322.842
322.816
322.791
322.769
322.748
322.728
322.711
322.696
322.683
322.67
322.984
322.953
322.922
322.892
322.863
322.835
322.807
322.782
322.758
322.737
322.717
322.7
322.686
322.674
322.665
322.984
322.951
322.918
322.887
322.856
322.826
322.798
322.771
322.747
322.724
322.704
322.687
322.673
322.663
322.658
322.983
322.948
322.914
322.881
322.848
322.817
322.787
322.759
322.733
322.71
322.689
322.672
322.659
322.65
322.644
322.982
322.945
322.909
322.874
322.84
322.807
322.775
322.746
322.718
322.694
322.672
322.654
322.641
322.633
322.632
322.981
322.942
322.904
322.867
322.83
322.795
322.762
322.731
322.702
322.675
322.652
322.633
322.619
322.611
322.609
322.979
322.939
322.898
322.858
322.82
322.783
322.747
322.714
322.683
322.655
322.63
322.609
322.593
322.585
322.588
322.978
322.935
322.892
322.85
322.809
322.769
322.731
322.695
322.662
322.632
322.604
322.581
322.563
322.551
322.548
322.977
322.931
322.885
322.84
322.796
322.754
322.714
322.675
322.64
322.606
322.576
322.55
322.527
322.511
322.51
322.975
322.926
322.877
322.83
322.783
322.738
322.695
322.654
322.615
322.579
322.546
322.515
322.488
322.461
322.427
322.974
322.921
322.869
322.818
322.768
322.72
322.674
322.63
322.589
322.55
322.513
322.479
322.447
322.415
322.385
322.972
322.916
322.86
322.806
322.753
322.701
322.652
322.605
322.561
322.519
322.479
322.442
322.406
322.369
322.326
322.97
322.91
322.851
322.793
322.736
322.681
322.628
322.578
322.531
322.486
322.444
322.404
322.365
322.328
322.292
322.968
322.904
322.841
322.779
322.718
322.659
322.603
322.549
322.499
322.451
322.406
322.364
322.324
322.284
322.24
322.966
322.898
322.83
322.764
322.699
322.636
322.576
322.519
322.465
322.414
322.367
322.324
322.283
322.244
322.208
322.963
322.89
322.818
322.747
322.678
322.611
322.547
322.486
322.428
322.375
322.326
322.282
322.241
322.202
322.16
322.961
322.883
322.806
322.73
322.656
322.584
322.515
322.45
322.389
322.333
322.282
322.236
322.197
322.162
322.134
322.958
322.875
322.792
322.711
322.632
322.555
322.481
322.411
322.346
322.287
322.234
322.188
322.149
322.117
322.101
322.955
322.866
322.778
322.691
322.606
322.523
322.444
322.369
322.3
322.237
322.181
322.134
322.095
322.063
322.024
322.952
322.857
322.763
322.67
322.578
322.49
322.405
322.324
322.249
322.181
322.122
322.074
322.038
322.013
321.99
322.949
322.847
322.747
322.647
322.549
322.454
322.362
322.274
322.193
322.119
322.056
322.006
321.973
321.96
321.966
322.946
322.837
322.73
322.623
322.518
322.415
322.316
322.221
322.131
322.05
321.98
321.926
321.895
321.895
321.936
322.942
322.827
322.712
322.598
322.485
322.375
322.267
322.163
322.064
321.973
321.894
321.831
321.794
321.802
321.883
322.939
322.816
322.693
322.572
322.451
322.332
322.215
322.101
321.992
321.889
321.795
321.717
321.663
321.658
321.761
289.218
288.14
287.431
286.892
286.44
286.039
285.669
285.322
284.989
284.668
284.355
284.049
283.746
283.446
283.149
288.836
287.793
287.164
286.684
286.273
285.902
285.556
285.228
284.911
284.605
284.305
284.01
283.719
283.43
283.143
287.333
287.156
286.796
286.429
286.08
285.748
285.431
285.125
284.827
284.536
284.251
283.969
283.69
283.413
283.138
286.741
286.648
286.431
286.16
285.873
285.584
285.298
285.016
284.738
284.464
284.194
283.926
283.66
283.395
283.132
286.181
286.227
286.104
285.904
285.669
285.418
285.162
284.904
284.646
284.39
284.135
283.881
283.629
283.377
283.126
285.928
285.922
285.829
285.671
285.475
285.256
285.027
284.792
284.554
284.315
284.075
283.836
283.597
283.358
283.119
285.665
285.679
285.6
285.466
285.295
285.103
284.896
284.682
284.462
284.24
284.016
283.791
283.565
283.339
283.113
285.547
285.5
285.411
285.285
285.131
284.958
284.771
284.575
284.372
284.166
283.957
283.746
283.533
283.32
283.107
285.452
285.35
285.246
285.123
284.981
284.823
284.652
284.472
284.286
284.094
283.899
283.701
283.502
283.302
283.101
285.29
285.2
285.095
284.975
284.842
284.697
284.54
284.375
284.202
284.025
283.843
283.658
283.472
283.284
283.095
285.184
285.063
284.952
284.837
284.712
284.578
284.434
284.282
284.123
283.958
283.789
283.617
283.442
283.266
283.089
285.011
284.917
284.813
284.705
284.59
284.466
284.333
284.193
284.047
283.894
283.737
283.577
283.414
283.249
283.083
284.898
284.778
284.678
284.578
284.472
284.359
284.238
284.11
283.975
283.834
283.688
283.539
283.387
283.233
283.078
284.706
284.626
284.542
284.455
284.361
284.259
284.149
284.031
283.906
283.776
283.641
283.503
283.361
283.217
283.073
284.567
284.477
284.408
284.336
284.254
284.164
284.064
283.957
283.842
283.722
283.597
283.468
283.337
283.203
283.068
284.297
284.312
284.278
284.223
284.154
284.074
283.985
283.887
283.782
283.672
283.556
283.436
283.314
283.189
283.063
284.175
284.182
284.162
284.12
284.062
283.992
283.912
283.823
283.726
283.624
283.517
283.406
283.292
283.176
283.059
284.042
284.07
284.061
284.028
283.979
283.917
283.844
283.763
283.675
283.58
283.481
283.378
283.272
283.164
283.055
283.975
283.985
283.976
283.948
283.904
283.849
283.783
283.708
283.627
283.54
283.448
283.352
283.254
283.153
283.051
283.896
283.912
283.904
283.878
283.839
283.788
283.727
283.659
283.583
283.503
283.417
283.328
283.236
283.143
283.048
283.855
283.856
283.844
283.818
283.781
283.733
283.677
283.614
283.544
283.469
283.389
283.306
283.221
283.133
283.044
283.808
283.808
283.793
283.767
283.73
283.685
283.632
283.573
283.508
283.438
283.363
283.286
283.206
283.124
283.042
283.785
283.772
283.75
283.722
283.686
283.642
283.592
283.536
283.475
283.409
283.34
283.268
283.193
283.116
283.039
283.766
283.74
283.713
283.682
283.646
283.604
283.556
283.503
283.445
283.384
283.319
283.251
283.181
283.109
283.036
283.733
283.708
283.679
283.647
283.61
283.569
283.523
283.473
283.419
283.361
283.299
283.236
283.17
283.102
283.034
283.711
283.678
283.647
283.614
283.578
283.538
283.494
283.446
283.394
283.34
283.282
283.222
283.16
283.096
283.032
283.675
283.647
283.616
283.583
283.548
283.509
283.467
283.421
283.372
283.321
283.266
283.209
283.151
283.091
283.03
283.652
283.618
283.587
283.555
283.52
283.483
283.443
283.399
283.353
283.303
283.252
283.198
283.142
283.086
283.029
283.613
283.586
283.558
283.528
283.495
283.459
283.421
283.379
283.335
283.288
283.239
283.188
283.135
283.082
283.027
283.586
283.556
283.53
283.502
283.471
283.437
283.401
283.361
283.319
283.274
283.227
283.178
283.128
283.077
283.026
283.533
283.524
283.504
283.479
283.45
283.418
283.383
283.345
283.304
283.261
283.217
283.17
283.123
283.074
283.025
283.51
283.499
283.481
283.458
283.431
283.4
283.366
283.33
283.291
283.25
283.207
283.163
283.117
283.071
283.024
283.486
283.478
283.461
283.44
283.414
283.385
283.352
283.317
283.28
283.24
283.199
283.156
283.113
283.068
283.023
283.475
283.462
283.446
283.425
283.4
283.371
283.34
283.306
283.27
283.232
283.192
283.151
283.109
283.065
283.022
283.462
283.45
283.433
283.412
283.388
283.36
283.329
283.296
283.261
283.224
283.186
283.146
283.105
283.063
283.021
283.456
283.441
283.423
283.402
283.378
283.35
283.321
283.288
283.254
283.218
283.181
283.142
283.102
283.061
283.021
283.45
283.434
283.416