/*--------------------------------*- C++ -*----------------------------------*\
| =========                 |                                                 |
| \\      /  F ield         | OpenFOAM: The Open Source CFD Toolbox           |
|  \\    /   O peration     | Version:  5.x                                   |
|   \\  /    A nd           | Web:      www.OpenFOAM.org                      |
|    \\/     M anipulation  |                                                 |
\*---------------------------------------------------------------------------*/
FoamFile
{
    version     2.0;
    format      ascii;
    class       volScalarField;
    location    "2.3";
    object      gradTy;
}
// * * * * * * * * * * * * * * * * * * * * * * * * * * * * * * * * * * * * * //

dimensions      [0 -1 0 1 0 0 0];

internalField   nonuniform List<scalar> 
6300
(
32285.2
32255.7
32226
32196.1
32166.1
32135.7
32104.9
32073.8
32042.1
32010
31977.3
31944.1
31910.3
31875.8
31840.9
0.0515819
0.154267
0.255493
0.354184
0.449115
0.53887
0.62183
0.696184
0.759997
0.811322
0.848384
0.869815
0.874921
0.863946
0.838256
0.0864863
0.258703
0.428596
0.594432
0.754211
0.905592
1.04586
1.17191
1.28041
1.3679
1.43117
1.46764
1.47586
1.45604
1.41043
0.122149
0.365468
0.605767
0.84075
1.06772
1.28345
1.48411
1.66523
1.82186
1.94874
2.0408
2.09375
2.10488
2.07395
2.00403
0.158791
0.475257
0.788254
1.09508
1.39248
1.6764
1.9419
2.18306
2.39305
2.5644
2.68956
2.7617
2.77595
2.73088
2.62993
0.19655
0.588514
0.976912
1.35886
1.73071
2.08777
2.42404
2.73206
3.00288
3.22628
3.39133
3.48753
3.50637
3.44369
3.30231
0.235447
0.705337
1.17202
1.63273
2.08374
2.51992
2.93443
3.31827
3.66015
3.9465
4.16199
4.29071
4.31831
4.23522
4.04113
0.27535
0.825367
1.37311
1.91632
2.45158
2.97377
3.47549
3.94645
4.37295
4.73758
5.01941
5.19504
5.24096
5.13773
4.87672
0.315938
0.947671
1.57874
2.20787
2.83251
3.4481
4.04732
4.61911
5.14764
5.61148
5.98304
6.22908
6.31276
6.19804
5.85796
0.35667
1.07064
1.78629
2.50392
3.22248
3.93882
4.64661
5.33502
5.98704
6.57766
7.07219
7.42549
7.58296
7.48373
7.06662
0.396766
1.19195
1.99188
2.79904
3.61469
4.43809
5.26528
6.08732
6.88786
7.63996
8.30258
8.81775
9.10989
9.08729
8.63918
0.435215
1.3085
2.19025
3.08567
3.99915
4.93358
5.88911
6.86115
7.83714
8.79174
9.68044
10.4331
10.9516
11.1164
10.7848
0.470807
1.4166
2.37496
3.35424
4.36268
5.408
6.49645
7.63103
8.80782
10.0094
11.1944
12.2826
13.1469
13.6421
13.7156
0.502217
1.51215
2.53874
3.59366
4.68936
5.83928
7.05768
8.35872
9.75367
11.2439
12.8051
14.3559
15.7115
16.5896
17.0939
0.528131
1.59104
2.6742
3.7923
4.96183
6.20209
7.53628
8.99253
10.6043
12.4074
14.4261
16.6247
18.7536
19.911
17.5844
31808.3
31778.3
31747.9
31717.2
31686.2
31654.9
31623.3
31591.5
31559.4
31527.1
31494.6
31462
31429.1
31396.2
31363.1
31329.9
31296.7
31263.4
31230
31196.7
31163.3
31129.9
31096.4
31063
31029.6
30996.1
30962.7
30929.2
30895.7
30862.2
30828.8
30795.3
30761.9
30728.5
30695.1
30661.8
30628.5
30595.2
30561.9
30528.7
30495.4
30462.2
30429
30395.8
30362.6
30329.5
30296.3
30263.2
30230.2
30197.1
30164.2
30131.2
30098.3
30065.4
30032.6
29999.7
29966.9
29934.1
29901.4
29868.6
29835.9
29803.2
29770.5
29738
29705.4
29672.9
29640.5
29608.1
29575.7
29543.4
29511.1
29478.9
29446.7
29414.5
29382.3
29350.2
29318.1
29286.1
29254.1
29222.1
29190.2
29158.3
29126.4
29094.4
29062.5
29030.4
28998.3
28966.1
28933.8
28901.4
0.803499
0.765562
0.723453
0.679283
0.634818
0.591245
0.549052
0.508043
0.467504
0.426476
0.384079
0.339815
0.293796
0.246832
0.200374
0.156306
0.116631
0.0831189
0.0569778
0.0386221
0.0275771
0.0225343
0.0215463
0.0223244
0.022593
0.020442
0.014621
0.00472701
-0.00874782
-0.0245216
-0.0407668
-0.0554517
-0.0667174
-0.0732195
-0.0743708
-0.0704473
-0.0625414
-0.0523776
-0.0420231
-0.0335427
-0.028654
-0.0284387
-0.0331576
-0.0422041
-0.0542073
-0.0672718
-0.0793138
-0.0884321
-0.0932434
-0.0931217
-0.0883008
-0.0798272
-0.0693767
-0.0589676
-0.0506187
-0.0460074
-0.0461841
-0.0513885
-0.0610031
-0.0736543
-0.0874492
-0.100306
-0.110322
-0.1161
-0.116986
-0.113166
-0.105616
-0.0959209
-0.0859788
-0.0776634
-0.0724768
-0.0712606
-0.0740076
-0.0798098
-0.0869556
-0.0931661
-0.0959338
-0.0929084
-0.0822652
-0.0630008
-0.0351181
0.00031429
0.0412271
0.0847248
0.127353
0.165436
0.195462
0.214475
0.22044
0.212499
1.34904
1.28234
1.20879
1.13235
1.05633
0.982918
0.912883
0.845643
0.779576
0.712568
0.642669
0.568697
0.490691
0.410098
0.329662
0.253018
0.18407
0.126286
0.0820476
0.0521967
0.0358541
0.0305313
0.0325079
0.0374077
0.0408783
0.0392684
0.0301959
0.0129144
-0.0115888
-0.0407896
-0.0710998
-0.0985349
-0.119455
-0.131233
-0.132723
-0.124458
-0.108551
-0.0883361
-0.0678066
-0.0509517
-0.0410927
-0.0403253
-0.0491585
-0.0664172
-0.0894355
-0.114521
-0.137612
-0.155008
-0.164022
-0.16345
-0.153754
-0.13697
-0.116347
-0.0957908
-0.0792097
-0.0698537
-0.0697639
-0.0794143
-0.0976143
-0.121699
-0.147988
-0.172433
-0.191335
-0.201997
-0.20317
-0.195242
-0.180138
-0.160953
-0.141398
-0.125144
-0.115154
-0.113128
-0.119138
-0.131515
-0.147032
-0.161352
-0.169683
-0.167523
-0.151359
-0.119226
-0.0710329
-0.00866347
0.0641547
0.14217
0.219088
0.288169
0.342932
0.37788
0.389202
0.375289
1.91033
1.80906
1.69836
1.58488
1.47417
1.36979
1.27276
1.18163
1.09308
1.00291
0.907208
0.803477
0.691402
0.573231
0.453585
0.338745
0.235535
0.150052
0.0865055
0.046428
0.0283742
0.028131
0.0393767
0.0546681
0.0666008
0.0689646
0.0577181
0.0316293
-0.00753466
-0.055328
-0.105439
-0.150863
-0.185221
-0.203922
-0.204982
-0.189329
-0.16062
-0.124602
-0.0881521
-0.0581386
-0.0402906
-0.0382371
-0.052876
-0.082185
-0.121535
-0.164489
-0.20396
-0.233499
-0.248454
-0.246763
-0.229261
-0.199489
-0.163067
-0.126738
-0.097245
-0.080206
-0.079168
-0.0949796
-0.125603
-0.166424
-0.211038
-0.252395
-0.284073
-0.301416
-0.302318
-0.287515
-0.2604
-0.226381
-0.191934
-0.163474
-0.146233
-0.143299
-0.154976
-0.178579
-0.208713
-0.238044
-0.258426
-0.262189
-0.243341
-0.198471
-0.127259
-0.0325881
0.0796933
0.20129
0.322195
0.431606
0.519013
0.575386
0.594374
0.573265
2.49479
2.34935
2.19193
2.03341
1.88291
1.7461
1.62415
1.51391
1.40892
1.3012
1.18332
1.05027
0.900892
0.73849
0.57059
0.407723
0.261474
0.142229
0.0571666
0.00894378
-0.00475493
0.00918459
0.0404173
0.0767625
0.1061
0.118256
0.10661
0.0691684
0.00894145
-0.0665346
-0.14653
-0.219135
-0.273536
-0.302024
-0.301314
-0.273009
-0.223222
-0.1615
-0.0992374
-0.0478165
-0.016754
-0.0121218
-0.0354791
-0.0835042
-0.148456
-0.219487
-0.284621
-0.333003
-0.35687
-0.352858
-0.322449
-0.271598
-0.209668
-0.147858
-0.0973607
-0.0675316
-0.0643237
-0.0892307
-0.138923
-0.2057
-0.278791
-0.346309
-0.397466
-0.424528
-0.424093
-0.397534
-0.350617
-0.29244
-0.233859
-0.185661
-0.156722
-0.152439
-0.173652
-0.216245
-0.271559
-0.327631
-0.371104
-0.38942
-0.372801
-0.315653
-0.217269
-0.0818756
0.0818144
0.261402
0.441847
0.606728
0.739777
0.82672
0.857285
0.826962
3.1118
2.90688
2.68709
2.47038
2.27196
2.10098
1.95869
1.83864
1.72869
1.61413
1.48127
1.32059
1.12913
0.911661
0.680344
0.452764
0.248522
0.0851737
-0.0252296
-0.0782646
-0.0776931
-0.0346746
0.0340848
0.108937
0.170327
0.201812
0.192632
0.139505
0.0473619
-0.0712483
-0.198281
-0.313636
-0.399185
-0.442188
-0.437402
-0.387642
-0.303031
-0.199198
-0.094732
-0.00820035
0.0448196
0.0542749
0.0174156
-0.0604733
-0.166649
-0.283
-0.389431
-0.467834
-0.505461
-0.496993
-0.4451
-0.35969
-0.256128
-0.152716
-0.0677442
-0.0165527
-0.00902361
-0.0478216
-0.127669
-0.235915
-0.354601
-0.463811
-0.545585
-0.587262
-0.583515
-0.536893
-0.457078
-0.359106
-0.26086
-0.180141
-0.131731
-0.124888
-0.16156
-0.235614
-0.333332
-0.435377
-0.520024
-0.566973
-0.560634
-0.492228
-0.360584
-0.171922
0.0610318
0.320269
0.583898
0.827676
1.02692
1.15923
1.20786
1.16513
3.77452
3.48582
3.17784
2.88101
2.6215
2.41456
2.2612
2.14884
2.05509
1.95342
1.81927
1.63522
1.39482
1.10477
0.784706
0.464193
0.176671
-0.0481323
-0.190248
-0.242679
-0.211768
-0.115614
0.0189644
0.160483
0.277601
0.343911
0.341923
0.266008
0.123877
-0.0638537
-0.266866
-0.451083
-0.58612
-0.651193
-0.638278
-0.552487
-0.410546
-0.237836
-0.0644278
0.0796445
0.169098
0.187335
0.129363
0.00326048
-0.170223
-0.360829
-0.534637
-0.661418
-0.720462
-0.703697
-0.616053
-0.473957
-0.302409
-0.131056
0.010478
0.0972625
0.11295
0.0526606
-0.0755569
-0.251133
-0.444095
-0.620856
-0.75148
-0.815444
-0.804711
-0.724086
-0.58972
-0.426199
-0.262656
-0.128126
-0.0469145
-0.0347065
-0.0956677
-0.220931
-0.388898
-0.568197
-0.723249
-0.82128
-0.837861
-0.759882
-0.586021
-0.325762
0.00238623
0.372797
0.754522
1.11273
1.41045
1.61221
1.68999
1.62994
4.50394
4.09254
3.65251
3.23788
2.89534
2.651
2.50465
2.43223
2.39288
2.33949
2.22915
2.03096
1.73203
1.34108
0.889711
0.428105
0.0144951
-0.300523
-0.484424
-0.527122
-0.439809
-0.251902
-0.00616639
0.247148
0.458021
0.58434
0.597648
0.487843
0.266032
-0.0344763
-0.362539
-0.659374
-0.873831
-0.97253
-0.944125
-0.798218
-0.562398
-0.277511
0.00808764
0.246108
0.395893
0.430105
0.339381
0.135188
-0.14918
-0.462885
-0.7476
-0.952581
-1.04467
-1.01251
-0.865458
-0.630678
-0.348451
-0.0665031
0.167495
0.313413
0.344284
0.250915
0.0447068
-0.241359
-0.55696
-0.844381
-1.05341
-1.15123
-1.12659
-0.988709
-0.764385
-0.493365
-0.222711
0.000627672
0.137231
0.160804
0.0627865
-0.144785
-0.428174
-0.735958
-1.00861
-1.19289
-1.25127
-1.16562
-0.93589
-0.577378
-0.117135
0.409014
0.958984
1.48488
1.93215
2.2437
2.37056
2.28593
5.33777
4.74049
4.09062
3.49093
3.02779
2.74631
2.64166
2.668
2.75089
2.80755
2.76553
2.57176
2.20176
1.66436
1.00946
0.322891
-0.289668
-0.741735
-0.981952
-0.998798
-0.812725
-0.471484
-0.0422299
0.39491
0.76018
0.987484
1.03064
0.870943
0.521488
0.0345539
-0.503207
-0.98632
-1.32827
-1.47693
-1.41921
-1.17346
-0.784945
-0.318246
0.149079
0.539592
0.789075
0.852742
0.712756
0.382525
-0.0859333
-0.606728
-1.07543
-1.40636
-1.54785
-1.48681
-1.24124
-0.855773
-0.394143
0.0670466
0.451298
0.69518
0.754473
0.611608
0.279914
-0.189104
-0.710456
-1.18084
-1.51552
-1.66341
-1.61159
-1.37785
-1.00634
-0.560051
-0.114676
0.254236
0.484095
0.531365
0.37896
0.0405011
-0.432354
-0.954341
-1.42124
-1.74584
-1.87212
-1.77886
-1.47122
-0.975508
-0.331577
0.410904
1.1981
1.97022
2.64923
3.14113
3.35564
3.23657
6.35072
5.46416
4.45647
3.54735
2.89862
2.58698
2.59004
2.82234
3.14666
3.41774
3.5204
3.36634
2.91254
2.15685
1.17479
0.111094
-0.82495
-1.48803
-1.80115
-1.7627
-1.4091
-0.817823
-0.0896685
0.646144
1.26099
1.65579
1.7557
1.52728
0.974889
0.17675
-0.722597
-1.51658
-2.06106
-2.27854
-2.16511
-1.7543
-1.12012
-0.359919
0.400642
1.03612
1.4498
1.5686
1.36005
0.828867
0.0526346
-0.825635
-1.60169
-2.13297
-2.34271
-2.22691
-1.81852
-1.1906
-0.439251
0.311333
0.937178
1.3427
1.45571
1.24416
0.712814
-0.0615376
-0.937401
-1.71276
-2.24666
-2.46323
-2.3586
-1.96544
-1.35602
-0.62547
0.103419
0.708033
1.09384
1.18941
0.963008
0.419279
-0.365816
-1.25208
-2.03882
-2.58438
-2.80911
-2.70081
-2.27741
-1.58709
-0.68795
0.348395
1.45889
2.58961
3.6357
4.43796
4.82103
4.65738
7.70315
6.36231
4.6804
3.22883
2.28403
1.97445
2.20829
2.84416
3.61908
4.27044
4.64497
4.59255
4.05804
2.97529
1.45766
-0.284528
-1.75332
-2.73829
-3.12665
-2.98041
-2.34777
-1.36129
-0.148156
1.07154
2.07866
2.74869
2.95355
2.65011
1.78214
0.464659
-1.09375
-2.40614
-3.2648
-3.5567
-3.33929
-2.65683
-1.63681
-0.402153
0.832283
1.852
2.53509
2.7558
2.47187
1.62804
0.338088
-1.19179
-2.48048
-3.32264
-3.60642
-3.38837
-2.71201
-1.70319
-0.483328
0.735186
1.74026
2.41139
2.62425
2.33717
1.49557
0.212146
-1.30913
-2.59244
-3.43478
-3.72566
-3.52115
-2.86447
-1.88021
-0.688546
0.500411
1.47686
2.12147
2.31106
2.00395
1.14558
-0.153639
-1.69316
-3.00375
-3.88493
-4.2257
-4.0765
-3.468
-2.49936
-1.24191
0.17912
1.69058
3.3309
4.97332
6.33841
7.07366
6.8698
9.76111
7.75169
4.57271
2.18069
0.754796
0.579442
1.24761
2.66575
4.26945
5.5218
6.38438
6.51297
5.99304
4.41998
2.06392
-1.07384
-3.37838
-4.84765
-5.22197
-4.89855
-3.79598
-2.23112
-0.216096
1.80306
3.38176
4.51146
4.88334
4.58589
3.2367
1.0995
-1.81917
-3.94907
-5.28467
-5.56827
-5.18315
-4.04548
-2.46258
-0.444076
1.57312
3.1526
4.28623
4.66967
4.38995
3.06962
0.969015
-1.90526
-4.00227
-5.31643
-5.59279
-5.20982
-4.08426
-2.51973
-0.525481
1.46637
3.02417
4.13997
4.51269
4.22865
2.91455
0.82831
-2.02356
-4.10714
-5.41705
-5.70144
-5.33485
-4.23525
-2.70307
-0.747749
1.20339
2.72349
3.80431
4.14791
3.83869
2.50668
0.404555
-2.46389
-4.58704
-5.96366
-6.34782
-6.11359
-5.17716
-3.82749
-2.03137
-0.120244
1.7369
4.06946
6.71061
9.1462
10.679
10.5305
13.3726
10.8253
3.33182
-0.258623
-2.57513
-2.03017
-0.792964
2.22015
5.42581
7.33449
9.18075
9.36733
9.44458
6.99225
3.79585
-3.06294
-6.20622
-8.53372
-8.32203
-7.93861
-5.90987
-3.74916
-0.289954
3.1689
5.33144
7.36555
7.777
8.03625
5.82601
2.85972
-3.68037
-6.63576
-8.81942
-8.54277
-8.11064
-6.07521
-3.91561
-0.484073
2.94429
5.09526
7.11766
7.53855
7.80652
5.63483
2.71405
-3.73795
-6.65135
-8.80463
-8.52856
-8.10057
-6.08863
-3.95503
-0.564166
2.82261
4.94459
6.93857
7.3469
7.6034
5.44543
2.547
-3.84434
-6.73589
-8.87604
-8.61463
-8.20405
-6.22892
-4.13524
-0.800923
2.52709
4.60268
6.54876
6.92484
7.14625
4.97675
2.06627
-4.30783
-7.24531
-9.47151
-9.36035
-9.16178
-7.48135
-5.79839
-2.98625
-0.341505
1.09936
4.36475
8.74505
13.2552
16.7063
17.2063
20.2031
21.0209
-3.52969
-4.53239
-10.0255
-5.63652
-5.39071
1.4974
8.44997
9.23722
14.3672
12.3793
16.5389
10.6361
10.8018
-10.4022
-10.2086
-15.8761
-11.6692
-13.3477
-8.21362
-7.13685
-0.363091
6.40162
7.4663
12.5565
10.8901
15.0429
9.50425
9.76645
-10.7033
-10.4335
-15.8968
-11.7409
-13.3467
-8.2835
-7.2
-0.519244
6.15516
7.2233
12.2555
10.6279
14.7365
9.27897
9.54432
-10.666
-10.3947
-15.7908
-11.6829
-13.272
-8.26793
-7.20056
-0.596715
6.0004
7.04959
12.0208
10.4
14.4552
9.04282
9.2957
-10.7046
-10.4464
-15.793
-11.7424
-13.3259
-8.3931
-7.35369
-0.844809
5.6545
6.66857
11.5542
9.92469
13.8969
8.51403
8.71576
-11.1003
-10.9276
-16.345
-12.4985
-14.3437
-9.78897
-9.39501
-3.69962
1.17175
-2.16362
3.05832
10.5967
18.8932
26.9874
31.5146
29.9277
67.7494
-44.2992
-2.33896
-31.7044
-3.27532
-19.5519
0.68342
20.3538
4.88803
29.8053
6.54054
38.1248
5.54343
48.5822
-48.5519
-5.76869
-37.435
-6.53902
-28.5645
-4.67221
-18.7255
-0.42051
17.8451
3.80719
27.4798
5.62638
36.0082
4.83233
46.5303
-47.5879
-5.97249
-36.8221
-6.63902
-28.1824
-4.75753
-18.5408
-0.541639
17.4427
3.64675
26.9874
5.46095
35.4452
4.6861
45.8635
-47.0836
-5.97313
-36.4589
-6.62929
-27.9334
-4.7744
-18.4145
-0.615494
17.1713
3.51101
26.5994
5.2836
34.9446
4.48623
45.213
-46.7331
-6.08207
-36.2383
-6.75312
-27.8277
-4.94698
-18.4445
-0.871236
16.6843
3.16301
25.945
4.86155
34.1222
4.01283
44.1942
-46.6737
-6.55715
-36.5556
-7.43812
-28.7387
-6.10257
-20.623
-3.2235
14.5064
-17.7567
-1.59108
11.3493
24.8154
42.3972
70.6836
28865.6
28826.5
28787.2
28747.9
28708.5
28669.2
28629.9
28590.8
28551.7
28512.7
28473.8
28435.1
28396.4
28357.8
28319.3
0.18897
0.146622
0.0925596
0.0328741
-0.02623
-0.0792836
-0.1221
-0.151996
-0.167755
-0.169416
-0.158003
-0.13524
-0.103317
-0.064704
-0.0220237
0.333155
0.257113
0.160298
0.0539768
-0.0505677
-0.143614
-0.217936
-0.269104
-0.295313
-0.296936
-0.275986
-0.235603
-0.17964
-0.112355
-0.0382161
0.507477
0.388434
0.237591
0.07335
-0.0863606
-0.22663
-0.33689
-0.411139
-0.447429
-0.447007
-0.413383
-0.351533
-0.267275
-0.166856
-0.0567014
0.72907
0.551554
0.328282
0.0881924
-0.141594
-0.339656
-0.491855
-0.59113
-0.636257
-0.630276
-0.579006
-0.48987
-0.371071
-0.23109
-0.0784352
1.02138
0.760422
0.435786
0.0927285
-0.228557
-0.498545
-0.699745
-0.82527
-0.876194
-0.858833
-0.782493
-0.657869
-0.496048
-0.307998
-0.104384
1.41783
1.03296
0.561706
0.0754873
-0.366818
-0.726222
-0.983312
-1.13401
-1.18442
-1.14637
-1.03426
-0.863062
-0.647254
-0.400468
-0.135488
1.96774
1.39185
0.702581
0.0143254
-0.587987
-1.05622
-1.37327
-1.54304
-1.58109
-1.50796
-1.34513
-1.11286
-0.829437
-0.511131
-0.172586
2.7464
1.8641
0.84243
-0.13279
-0.943243
-1.53739
-1.91052
-2.08379
-2.08892
-1.95926
-1.72543
-1.41381
-1.0465
-0.642031
-0.216313
3.87259
2.47569
0.935803
-0.444684
-1.51481
-2.23956
-2.64764
-2.79269
-2.73155
-2.51473
-2.18353
-1.77045
-1.30072
-0.794178
-0.266948
5.53948
3.23018
0.869705
-1.067
-2.43176
-3.25841
-3.6478
-3.70776
-3.52986
-3.18457
-2.7235
-2.18372
-1.59176
-0.967007
-0.324247
8.06456
4.03588
0.379824
-2.26129
-3.8869
-4.71452
-4.97737
-4.86067
-4.49557
-3.97017
-3.34218
-2.64916
-1.9156
-1.15784
-0.387278
11.9288
4.46921
-1.12491
-4.47106
-6.14005
-6.73543
-6.6865
-6.26197
-5.62159
-4.85833
-4.0259
-3.15512
-2.26365
-1.36147
-0.454303
17.4977
3.03814
-4.87741
-8.35786
-9.46677
-9.40066
-8.77122
-7.87912
-6.87046
-5.81568
-4.74793
-3.68179
-2.62239
-1.57008
-0.522767
22.2368
-4.93454
-13.0644
-14.6161
-13.9684
-12.6292
-11.1186
-9.61282
-8.16545
-6.78598
-5.46837
-4.2017
-2.97404
-1.77369
-0.589454
0.546343
1.64644
2.76925
3.93154
5.15274
6.45668
7.87392
9.44533
11.2274
13.2995
15.771
18.7711
22.3289
25.6484
23.0443
0.557253
1.67952
2.82562
4.01328
5.26339
6.60208
8.06397
9.69763
11.5754
13.8119
16.6049
20.3325
25.8392
35.4324
57.0339
0.562772
1.69607
2.85313
4.05167
5.31255
6.66194
8.13474
9.78047
11.6742
13.9381
16.7897
20.6586
26.5118
36.8772
59.4839
0.562912
1.6961
2.85184
4.04678
5.30026
6.63611
8.08544
9.69113
11.5159
13.6562
16.2681
19.6068
24.0508
29.8218
34.4943
0.557938
1.68048
2.82335
4.00124
5.23077
6.5315
7.92756
9.44972
11.1384
13.0469
15.2417
17.7874
20.6684
23.5295
25.1953
0.548338
1.65074
2.77053
3.91986
5.11183
6.36071
7.68213
9.09271
10.6083
12.2386
13.9718
15.7352
17.2999
18.0673
16.5834
0.534758
1.60895
2.69719
3.80889
4.95339
6.13956
7.37479
8.66277
9.99867
11.359
12.6809
13.8209
14.4851
14.1685
12.4925
0.517933
1.5574
2.60756
3.67515
4.76603
5.88435
7.03084
8.19956
9.37204
10.5062
11.5164
12.2369
12.3514
11.2138
7.1076
0.49861
1.49843
2.50585
3.52523
4.55962
5.60961
6.67145
7.73378
8.77204
9.7395
10.5531
11.0739
11.0872
10.3208
8.74277
0.477483
1.43418
2.39583
3.3649
4.34238
5.32664
6.31176
7.28472
8.22122
9.07964
9.7932
10.2634
10.3645
9.99125
9.20947
0.455157
1.36649
2.28067
3.19875
4.12043
5.0431
5.96052
6.86099
7.72467
8.52039
9.20234
9.70908
9.9714
9.94543
9.7088
0.432122
1.29684
2.16279
3.03011
3.89781
4.76321
5.62109
6.46282
7.27532
8.04017
8.73318
9.32456
9.77848
10.0459
10.0294
0.408757
1.22634
2.04397
2.8612
3.67681
4.48854
5.29288
6.08496
6.85908
7.60987
8.33463
9.03551
9.71508
10.3437
10.7695
0.385348
1.1558
1.92544
2.69342
3.4585
4.21904
4.97318
5.7196
6.45906
7.19766
7.95267
8.7613
9.6871
10.7822
11.7538
0.362107
1.08584
1.80807
2.52766
3.24337
3.95398
4.65887
5.35908
6.05964
6.77409
7.5335
8.40574
9.5416
11.3065
14.7283
0.339204
1.01692
1.69253
2.36462
3.03177
3.69291
4.34783
4.99835
5.65061
6.3193
7.03601
7.86714
8.95928
10.6802
14.1629
0.316783
0.949459
1.57946
2.20499
2.82437
3.43618
4.03984
4.63641
5.23018
5.8312
6.45906
7.14732
7.94032
8.8305
9.31483
0.294981
0.883862
1.46949
2.04966
2.62222
3.18513
3.73679
4.27644
4.80474
5.32446
5.84021
6.35477
6.85392
7.26266
7.3916
0.273932
0.820529
1.3633
1.89963
2.42677
2.9419
3.44211
3.92435
4.38528
4.82051
5.2222
5.57296
5.83032
5.88914
5.47531
0.253762
0.759854
1.26161
1.75597
2.23967
2.70905
3.15991
3.58706
3.9837
4.33985
4.63958
4.85602
4.94462
4.84388
4.54232
0.234588
0.702196
1.16504
1.61973
2.06252
2.48909
2.89417
3.27099
3.61025
3.8984
4.11483
4.22786
4.19043
3.9381
3.37477
0.216503
0.64785
1.07414
1.49176
1.89665
2.28405
2.64807
2.98102
3.27231
3.50677
3.6619
3.70422
3.5855
3.24832
2.71077
0.199572
0.597015
0.989278
1.37264
1.74293
2.09526
2.42356
2.71998
2.97387
3.17023
3.28731
3.29244
3.13229
2.6977
1.64598
0.183823
0.54978
0.910597
1.2626
1.6017
1.92316
2.2212
2.48849
2.71539
2.88877
2.9905
2.99544
2.86968
2.57567
2.13693
0.169249
0.506118
0.838041
1.16152
1.47273
1.76733
2.0402
2.28508
2.49408
2.65707
2.76092
2.78923
2.72393
2.55416
2.30104
0.155807
0.465892
0.771353
1.06897
1.35531
1.62661
1.87865
2.10659
2.30475
2.46646
2.58383
2.64802
2.65075
2.59053
2.49517
0.143427
0.42888
0.710116
0.984257
1.24834
1.49927
1.73385
1.94878
2.14076
2.30664
2.44368
2.54953
2.6213
2.65134
2.61253
0.132019
0.394801
0.65381
0.906538
1.1505
1.3833
1.60271
1.80693
1.99489
2.16688
2.32521
2.47471
2.62086
2.75996
2.85538
0.121486
0.363343
0.60187
0.834911
1.06043
1.27663
1.48213
1.67637
1.86014
2.03661
2.21289
2.40225
2.62534
2.89895
3.14327
0.111728
0.334199
0.553745
0.768514
0.97684
1.17739
1.3694
1.55311
1.73048
1.90648
2.0915
2.3064
2.59475
3.05831
3.97946
0.102654
0.30709
0.50894
0.706598
0.89866
1.08408
1.26243
1.43425
1.60179
1.77011
1.94937
2.15955
2.44251
2.89992
3.8395
0.0941874
0.281779
0.467052
0.648572
0.825098
0.995709
1.16
1.31839
1.47256
1.62616
1.7858
1.96219
2.16915
2.40672
2.54178
0.0862655
0.258081
0.427774
0.594021
0.755651
0.911729
1.06169
1.20547
1.34374
1.47802
1.61063
1.74361
1.87455
1.98474
2.02474
0.0788415
0.235858
0.390892
0.542683
0.690065
0.83201
0.967668
1.09639
1.21771
1.33106
1.43522
1.52646
1.59438
1.61152
1.50426
0.0718812
0.215014
0.356267
0.494413
0.628263
0.756664
0.878473
0.992478
1.09721
1.19051
1.26879
1.32554
1.3495
1.32472
1.24886
0.0653589
0.195478
0.323802
0.449131
0.570252
0.685905
0.794708
0.895017
0.984652
1.06042
1.11732
1.1474
1.13848
1.07341
0.925624
0.059253
0.177192
0.293421
0.406777
0.516046
0.61991
0.716851
0.804979
0.88174
0.943439
0.984493
0.996366
0.966466
0.879546
0.740763
0.0535422
0.160094
0.265038
0.367266
0.465599
0.558731
0.645124
0.722845
0.7893
0.840809
0.871943
0.874355
0.834066
0.721717
0.443774
0.048202
0.144115
0.238545
0.330464
0.418771
0.50224
0.579429
0.648547
0.70725
0.752341
0.779354
0.78201
0.751723
0.678895
0.570128
0.0432032
0.129168
0.2138
0.296175
0.37531
0.450118
0.519347
0.581491
0.634664
0.67644
0.703694
0.712555
0.698934
0.661045
0.606704
0.0385115
0.11515
0.190626
0.264142
0.33486
0.401877
0.464194
0.520676
0.570003
0.610636
0.640821
0.658726
0.663013
0.654634
0.642099
0.034088
0.10194
0.168816
0.234056
0.296985
0.356907
0.413103
0.464839
0.51139
0.552101
0.586488
0.614368
0.635902
0.651125
0.657813
0.0298902
0.0894094
0.148145
0.20558
0.261205
0.314531
0.365117
0.412612
0.456845
0.497971
0.536686
0.574432
0.613188
0.653559
0.689021
0.0258746
0.0774247
0.128382
0.178366
0.227026
0.274066
0.319287
0.362661
0.404468
0.445527
0.487571
0.53381
0.58937
0.659419
0.731596
0.0219979
0.0658538
0.109297
0.152074
0.193978
0.234872
0.274747
0.313806
0.352622
0.39241
0.435559
0.48673
0.555507
0.66382
0.870169
0.018219
0.0545717
0.0906761
0.126395
0.161637
0.196393
0.230781
0.265131
0.300112
0.336973
0.377988
0.42744
0.494207
0.600161
0.813952
0.0144999
0.0434637
0.0723267
0.10105
0.129639
0.158175
0.18685
0.216025
0.246307
0.278664
0.314572
0.356142
0.40571
0.461636
0.490036
0.0108066
0.0324273
0.0540775
0.0758015
0.0976833
0.119867
0.14258
0.16616
0.191072
0.2179
0.247236
0.279304
0.312817
0.342245
0.355732
0.00710861
0.021372
0.0357796
0.0504476
0.065523
0.0811968
0.0977144
0.115377
0.134516
0.155404
0.178017
0.201475
0.222776
0.23394
0.214148
0.00337915
0.0102182
0.0173036
0.0248145
0.032952
0.0419466
0.0520608
0.0635772
0.0767555
0.0917214
0.108223
0.125157
0.13979
0.147144
0.143608
-0.000405839
-0.00110528
-0.00146538
-0.00125026
-0.000209827
0.00192455
0.00543998
0.0106308
0.0177619
0.0269815
0.0381397
0.0504468
0.06187
0.067924
0.0574287
-0.00426824
-0.012663
-0.0206315
-0.0278848
-0.034127
-0.0390514
-0.0423381
-0.043656
-0.0426742
-0.0390957
-0.032732
-0.0236392
-0.0123107
0.000206494
0.0130086
-0.00822856
-0.0245154
-0.0402919
-0.0552185
-0.0689554
-0.0811596
-0.0914776
-0.0995332
-0.104906
-0.107099
-0.10549
-0.0992688
-0.0873075
-0.0677
-0.0351687
-0.0123067
-0.0367209
-0.0605404
-0.0833753
-0.104844
-0.124573
-0.142183
-0.157267
-0.16934
-0.177734
-0.181444
-0.178876
-0.167606
-0.144574
-0.109596
-0.0165226
-0.0493384
-0.0814706
-0.112478
-0.141939
-0.169453
-0.194636
-0.217087
-0.23632
-0.251616
-0.261748
-0.264519
-0.256065
-0.229736
-0.171948
-0.0208974
-0.0624294
-0.10318
-0.142652
-0.180381
-0.215949
-0.248982
-0.279137
-0.306029
-0.329077
-0.347158
-0.357951
-0.356929
-0.336738
-0.292985
-0.0254543
-0.0760619
-0.125776
-0.174033
-0.220321
-0.2642
-0.305323
-0.343447
-0.378402
-0.409983
-0.43762
-0.459581
-0.471098
-0.460093
-0.395567
-0.03022
-0.090314
-0.149382
-0.20678
-0.261931
-0.314361
-0.363743
-0.409951
-0.453112
-0.49362
-0.532019
-0.568456
-0.6009
-0.620609
-0.607743
-0.0352257
-0.105278
-0.174146
-0.241085
-0.305429
-0.366636
-0.424364
-0.478568
-0.529659
-0.578715
-0.627776
-0.680096
-0.739537
-0.80374
-0.818256
-0.0405082
-0.121063
-0.200247
-0.27719
-0.351102
-0.421325
-0.487427
-0.549343
-0.607615
-0.663803
-0.721262
-0.786786
-0.87486
-1.02137
-1.3385
-0.0461107
-0.1378
-0.227903
-0.315399
-0.399334
-0.478872
-0.553393
-0.622645
-0.687013
-0.748003
-0.809141
-0.877808
-0.969598
-1.1205
-1.42672
-0.0520825
-0.155638
-0.257369
-0.35608
-0.450616
-0.539901
-0.623016
-0.699334
-0.768752
-0.832097
-0.891786
-0.952767
-1.02328
-1.11175
-1.19789
-0.0584774
-0.174741
-0.288931
-0.39966
-0.505542
-0.605212
-0.697358
-0.780812
-0.854704
-0.918726
-0.973529
-1.0211
-1.06449
-1.10462
-1.13041
-0.065352
-0.195285
-0.322895
-0.446603
-0.564782
-0.675745
-0.777732
-0.868927
-0.947506
-1.01176
-1.06029
-1.09234
-1.10795
-1.10746
-1.08868
-0.0727618
-0.217441
-0.359568
-0.497384
-0.629032
-0.752509
-0.865599
-0.965802
-1.05026
-1.11569
-1.15849
-1.17498
-1.16259
-1.12298
-1.07051
-0.0807582
-0.241368
-0.399235
-0.552447
-0.698955
-0.836485
-0.962414
-1.07361
-1.16621
-1.23536
-1.27495
-1.27769
-1.23613
-1.14744
-1.02728
-0.089384
-0.2672
-0.442133
-0.612165
-0.775113
-0.928515
-1.06946
-1.19433
-1.29845
-1.37554
-1.41702
-1.41116
-1.34239
-1.19375
-0.976308
-0.0986707
-0.295033
-0.488433
-0.676801
-0.857899
-1.02919
-1.18766
-1.32946
-1.44946
-1.54044
-1.59195
-1.58832
-1.50411
-1.28784
-0.779239
-0.108637
-0.324924
-0.538228
-0.746486
-0.947491
-1.13878
-1.31744
-1.47974
-1.62062
-1.73275
-1.80518
-1.82142
-1.75755
-1.58493
-1.31125
-0.119289
-0.356886
-0.591527
-0.821205
-1.04383
-1.25714
-1.45857
-1.6449
-1.81174
-1.95263
-2.05743
-2.11016
-2.08651
-1.95221
-1.65393
-0.130623
-0.390899
-0.648274
-0.900823
-1.14663
-1.38376
-1.61019
-1.82357
-2.0209
-2.19757
-2.34583
-2.45194
-2.49231
-2.43336
-2.2661
-0.142629
-0.426928
-0.70837
-0.985121
-1.25546
-1.51782
-1.77085
-2.01341
-2.24439
-2.46224
-2.66352
-2.83939
-2.96708
-2.98973
-2.75999
-0.155302
-0.464941
-0.771725
-1.07387
-1.36982
-1.65835
-1.9388
-2.21129
-2.47701
-2.73841
-2.99885
-3.26028
-3.51481
-3.72138
-3.77818
-0.168643
-0.504937
-0.838298
-1.16693
-1.48933
-1.8045
-2.11227
-2.41386
-2.71262
-3.01524
-3.33349
-3.68597
-4.09584
-4.55703
-4.79982
-0.182674
-0.546969
-0.908153
-1.26432
-1.61387
-1.95578
-2.29005
-2.61841
-2.94555
-3.28123
-3.64437
-4.07181
-4.64123
-5.54437
-7.373
-0.197435
-0.591162
-0.981495
-1.3663
-1.7437
-2.11236
-2.47192
-2.8238
-3.17254
-3.52816
-3.9106
-4.35904
-4.95488
-5.88902
-7.69219
-0.212988
-0.63771
-1.05868
-1.47342
-1.87961
-2.27527
-2.65912
-3.03136
-3.39474
-3.75647
-4.13101
-4.54391
-5.0336
-5.63018
-6.18306
-0.229414
-0.686868
-1.14017
-1.58648
-2.02284
-2.44636
-2.8544
-3.24508
-3.6181
-3.97587
-4.32478
-4.67546
-5.03811
-5.40169
-5.68292
-0.246792
-0.738907
-1.22654
-1.70643
-2.17499
-2.62821
-3.06172
-3.47106
-3.85205
-4.20143
-4.51731
-4.7987
-5.04197
-5.23039
-5.3085
-0.265189
-0.794059
-1.31827
-1.83426
-2.33779
-2.82373
-3.28583
-3.71673
-4.10796
-4.45025
-4.73379
-4.9484
-5.08393
-5.13571
-5.1347
-0.284632
-0.852446
-1.41571
-1.97073
-2.51281
-3.03579
-3.53162
-3.98994
-4.39785
-4.73986
-4.99814
-5.15301
-5.18407
-5.07769
-4.86523
-0.305084
-0.913991
-1.51887
-2.1162
-2.7011
-3.26671
-3.80344
-4.29815
-4.7335
-5.08761
-5.33429
-5.44361
-5.37965
-5.09335
-4.58558
-0.326409
-0.978332
-1.62728
-2.27028
-2.90277
-3.51768
-4.10443
-4.64758
-5.12558
-5.50994
-5.76584
-5.85455
-5.72966
-5.26288
-3.70236
-0.348356
-1.04474
-1.73982
-2.43167
-3.11663
-3.78821
-4.43569
-5.04224
-5.58267
-6.02148
-6.31349
-6.41382
-6.31714
-6.19208
-6.87788
-0.370534
-1.11204
-1.85459
-2.59785
-3.33979
-4.07547
-4.79537
-5.48281
-6.11032
-6.63495
-6.99425
-7.10992
-6.92444
-6.5585
-6.91259
-0.392404
-1.17862
-1.96885
-2.76494
-3.56728
-4.37368
-5.17758
-5.965
-6.7094
-7.36322
-7.8442
-8.01518
-7.6572
-6.42546
-3.6243
-0.413293
-1.24242
-2.07905
-2.92769
-3.79194
-4.67362
-5.57124
-6.47705
-7.37138
-8.21149
-8.9094
-9.28778
-8.9968
-7.38276
-3.42466
-0.432416
-1.30101
-2.1809
-3.07959
-4.00448
-4.96247
-5.95919
-6.99705
-8.07098
-9.15851
-10.1965
-11.0252
-11.2552
-9.96794
-5.23283
-0.448924
-1.35175
-2.26968
-3.2133
-4.19403
-5.22443
-6.31856
-7.49199
-8.76113
-10.1399
-11.6288
-13.1785
-14.5671
-14.9475
-11.0205
-0.461973
-1.39201
-2.34062
-3.32124
-4.34907
-5.44213
-6.62284
-7.92046
-9.37512
-11.0449
-13.0188
-15.4435
-18.5791
-22.9181
-29.387
-12.1084
-27.556
-26.0365
-22.2374
-18.7109
-15.7551
-13.2798
-11.1611
-9.30049
-7.6266
-6.08798
-4.64681
-3.27425
-1.94723
-0.64625
-118.61
-61.8496
-39.9234
-29.0959
-22.6423
-18.2548
-14.9843
-12.3779
-10.1935
-8.28973
-6.57823
-4.99994
-3.51293
-2.0854
-0.691502
-131.842
-71.9544
-46.1032
-32.9171
-25.1388
-19.9787
-16.2276
-13.3017
-10.8915
-8.81933
-6.97597
-5.28969
-3.71028
-2.2002
-0.72919
-72.354
-58.424
-43.4881
-32.9829
-25.817
-20.724
-16.8979
-13.8674
-11.3547
-9.19002
-7.26462
-5.5052
-3.85949
-2.28787
-0.758107
-51.0378
-45.5926
-37.7963
-30.7297
-25.0557
-20.5895
-17.0157
-14.0735
-11.5762
-9.39452
-7.43798
-5.64172
-3.95725
-2.34646
-0.777613
-32.3946
-34.394
-31.5977
-27.5095
-23.4555
-19.8352
-16.6948
-13.9706
-11.5786
-9.44263
-7.50003
-5.70062
-4.00383
-2.37592
-0.787658
-23.8947
-26.5259
-26.2964
-24.2655
-21.5542
-18.7475
-16.0848
-13.637
-11.4032
-9.35642
-7.46261
-5.68824
-4.00256
-2.37784
-0.788714
-13.2939
-20.6444
-22.2458
-21.494
-19.7191
-17.5598
-15.3256
-13.1547
-11.0979
-9.16398
-7.34225
-5.61425
-3.95895
-2.35504
-0.781644
-16.0525
-18.7552
-19.8294
-19.433
-18.1509
-16.4242
-14.5225
-12.593
-10.7073
-8.89359
-7.15678
-5.48976