/*--------------------------------*- C++ -*----------------------------------*\
| =========                 |                                                 |
| \\      /  F ield         | OpenFOAM: The Open Source CFD Toolbox           |
|  \\    /   O peration     | Version:  5.x                                   |
|   \\  /    A nd           | Web:      www.OpenFOAM.org                      |
|    \\/     M anipulation  |                                                 |
\*---------------------------------------------------------------------------*/
FoamFile
{
    version     2.0;
    format      ascii;
    class       volScalarField;
    location    "0.1";
    object      T;
}
// * * * * * * * * * * * * * * * * * * * * * * * * * * * * * * * * * * * * * //

dimensions      [0 0 0 1 0 0 0];

internalField   nonuniform List<scalar> 
2048
(
9.77164
9.77167
9.77173
9.77182
9.77193
9.77205
9.77219
9.77233
9.77248
9.77262
9.77276
9.77289
9.77301
9.77312
9.77322
9.77331
9.77339
9.77345
9.77351
9.77356
9.7736
9.77363
9.77365
9.77367
9.77368
9.77368
9.77368
9.77367
9.77365
9.77363
9.77359
9.77355
9.7735
9.77344
9.77336
9.77327
9.77316
9.77304
9.77288
9.77271
9.7725
9.77226
9.77199
9.77167
9.77131
9.7709
9.77044
9.76992
9.76936
9.76874
9.76808
9.76737
9.76664
9.76588
9.76512
9.76438
9.76366
9.76299
9.76239
9.76186
9.76143
9.7611
9.76087
9.76076
9.32493
9.32502
9.32519
9.32546
9.32579
9.32617
9.32658
9.327
9.32744
9.32786
9.32827
9.32866
9.32902
9.32935
9.32964
9.3299
9.33013
9.33033
9.3305
9.33064
9.33076
9.33085
9.33092
9.33097
9.33099
9.331
9.33099
9.33097
9.33092
9.33084
9.33075
9.33063
9.33048
9.33029
9.33007
9.3298
9.32948
9.32911
9.32866
9.32814
9.32754
9.32683
9.32602
9.32508
9.32402
9.32281
9.32144
9.31993
9.31825
9.31642
9.31445
9.31236
9.31017
9.30793
9.30567
9.30345
9.30132
9.29933
9.29754
9.29597
9.29468
9.29369
9.29301
9.29268
8.89781
8.89796
8.89826
8.8987
8.89926
8.89989
8.90057
8.90128
8.902
8.90271
8.90338
8.90402
8.90461
8.90515
8.90563
8.90606
8.90643
8.90675
8.90703
8.90726
8.90745
8.9076
8.90771
8.90779
8.90784
8.90785
8.90784
8.90779
8.90771
8.90759
8.90744
8.90725
8.907
8.9067
8.90634
8.90591
8.9054
8.90479
8.90407
8.90323
8.90225
8.90111
8.89979
8.89827
8.89653
8.89456
8.89234
8.88987
8.88712
8.88413
8.88089
8.87745
8.87384
8.87014
8.86641
8.86274
8.85921
8.85592
8.85295
8.85036
8.84823
8.84659
8.84548
8.84492
8.48945
8.48967
8.4901
8.49073
8.49151
8.49241
8.49337
8.49437
8.49538
8.49637
8.49731
8.4982
8.49901
8.49975
8.50042
8.501
8.50151
8.50196
8.50233
8.50264
8.5029
8.5031
8.50326
8.50336
8.50343
8.50345
8.50343
8.50337
8.50326
8.50311
8.5029
8.50264
8.50231
8.50191
8.50142
8.50084
8.50015
8.49933
8.49836
8.49722
8.49589
8.49434
8.49255
8.49049
8.48812
8.48543
8.4824
8.479
8.47523
8.4711
8.46663
8.46186
8.45685
8.4517
8.44649
8.44137
8.43644
8.43185
8.4277
8.42409
8.42111
8.41883
8.41729
8.41651
8.09904
8.09934
8.09991
8.10074
8.10177
8.10294
8.1042
8.10551
8.10681
8.10808
8.10929
8.11042
8.11146
8.1124
8.11324
8.11398
8.11462
8.11518
8.11565
8.11604
8.11636
8.11661
8.1168
8.11693
8.11701
8.11704
8.11702
8.11694
8.11681
8.11662
8.11637
8.11604
8.11564
8.11515
8.11455
8.11383
8.11298
8.11196
8.11077
8.10936
8.10771
8.10579
8.10356
8.10099
8.09804
8.09467
8.09086
8.08659
8.08183
8.0766
8.07091
8.06483
8.05842
8.05181
8.04512
8.03852
8.03217
8.02625
8.02091
8.01627
8.01245
8.00952
8.00754
8.00655
7.72581
7.7262
7.72692
7.72797
7.72927
7.73074
7.73231
7.73393
7.73554
7.7371
7.73859
7.73996
7.74122
7.74235
7.74336
7.74425
7.74501
7.74567
7.74623
7.74669
7.74707
7.74737
7.7476
7.74776
7.74785
7.74788
7.74786
7.74777
7.74762
7.7474
7.7471
7.74673
7.74626
7.74568
7.74498
7.74415
7.74315
7.74196
7.74056
7.73891
7.73698
7.73472
7.73209
7.72905
7.72556
7.72156
7.71702
7.7119
7.70619
7.69989
7.69301
7.68562
7.67781
7.66971
7.66151
7.65339
7.64558
7.6383
7.63173
7.62604
7.62136
7.61778
7.61537
7.61416
7.369
7.36948
7.37038
7.37167
7.37326
7.37506
7.37697
7.37892
7.38085
7.38271
7.38447
7.38609
7.38756
7.38888
7.39005
7.39108
7.39197
7.39272
7.39336
7.39389
7.39432
7.39466
7.39492
7.3951
7.39521
7.39525
7.39522
7.39512
7.39495
7.39471
7.39438
7.39395
7.39343
7.39278
7.392
7.39106
7.38994
7.3886
7.38702
7.38516
7.38297
7.3804
7.37742
7.37395
7.36996
7.36537
7.36015
7.35424
7.34761
7.34026
7.33221
7.32351
7.31428
7.30467
7.2949
7.28521
7.27589
7.26719
7.25936
7.2526
7.24704
7.2428
7.23996
7.23853
7.02787
7.02845
7.02955
7.03111
7.03304
7.03519
7.03746
7.03977
7.04204
7.0442
7.04623
7.0481
7.04978
7.05129
7.05262
7.05377
7.05477
7.05562
7.05633
7.05693
7.0574
7.05778
7.05807
7.05827
7.05839
7.05843
7.0584
7.0583
7.05811
7.05784
7.05748
7.05702
7.05645
7.05574
7.05489
7.05386
7.05263
7.05117
7.04944
7.04739
7.04497
7.04214
7.03883
7.03498
7.03053
7.02541
7.01954
7.01289
7.00539
6.99702
6.98781
6.9778
6.96713
6.95596
6.94456
6.93324
6.92233
6.91216
6.90303
6.89515
6.88871
6.88381
6.88053
6.87888
6.70171
6.70241
6.70374
6.70561
6.7079
6.71044
6.71311
6.7158
6.71841
6.7209
6.7232
6.72531
6.72721
6.72889
6.73036
6.73165
6.73275
6.73368
6.73446
6.73511
6.73563
6.73604
6.73635
6.73657
6.7367
6.73675
6.73672
6.73661
6.73641
6.73612
6.73574
6.73525
6.73463
6.73388
6.73297
6.73187
6.73055
6.72898
6.72712
6.72491
6.7223
6.71924
6.71565
6.71146
6.7066
6.70098
6.69453
6.68717
6.67884
6.6695
6.65914
6.64783
6.63568
6.6229
6.60981
6.59677
6.58419
6.57248
6.56198
6.55297
6.54563
6.54007
6.53635
6.53449
6.38985
6.39069
6.39227
6.3945
6.39719
6.40016
6.40326
6.40635
6.40933
6.41214
6.41472
6.41707
6.41917
6.42102
6.42264
6.42404
6.42523
6.42624
6.42709
6.42778
6.42834
6.42878
6.42911
6.42934
6.42948
6.42953
6.4295
6.42939
6.42918
6.42888
6.42848
6.42796
6.42732
6.42653
6.42557
6.42441
6.42302
6.42136
6.41939
6.41705
6.41429
6.41102
6.40719
6.40271
6.39748
6.39142
6.38444
6.37643
6.36731
6.35703
6.34555
6.33293
6.31928
6.30484
6.28997
6.2751
6.26076
6.24742
6.23551
6.22534
6.21708
6.21087
6.20673
6.20466
6.09162
6.09262
6.0945
6.09712
6.10028
6.10372
6.10728
6.11079
6.11416
6.11729
6.12016
6.12274
6.12503
6.12705
6.1288
6.1303
6.13158
6.13266
6.13356
6.1343
6.13489
6.13535
6.1357
6.13594
6.13609
6.13615
6.13612
6.136
6.13578
6.13548
6.13506
6.13453
6.13386
6.13304
6.13204
6.13084
6.12939
6.12767
6.12562
6.12317
6.12028
6.11685
6.11281
6.10807
6.10253
6.09608
6.08861
6.08001
6.07016
6.05898
6.04642
6.03249
6.01731
6.00114
5.98439
5.96759
5.95137
5.93632
5.92294
5.91157
5.90241
5.89554
5.891
5.88873
5.80639
5.80757
5.80979
5.81287
5.81654
5.82051
5.82456
5.82853
5.83228
5.83575
5.83889
5.8417
5.84418
5.84635
5.84822
5.84983
5.85119
5.85233
5.85327
5.85404
5.85466
5.85514
5.8555
5.85576
5.85591
5.85597
5.85594
5.85582
5.8556
5.85529
5.85486
5.85431
5.85363
5.85279
5.85177
5.85053
5.84905
5.84728
5.84516
5.84264
5.83964
5.83608
5.83188
5.82693
5.82112
5.81433
5.80643
5.79729
5.78677
5.77475
5.76113
5.7459
5.72917
5.7112
5.69247
5.67361
5.65537
5.6385
5.62359
5.61102
5.60096
5.59347
5.58854
5.58608
5.53354
5.53494
5.53756
5.54115
5.54539
5.54994
5.55453
5.55896
5.56312
5.56692
5.57034
5.57337
5.57602
5.57833
5.58032
5.58201
5.58344
5.58463
5.58562
5.58642
5.58706
5.58755
5.58792
5.58819
5.58834
5.58841
5.58838
5.58826
5.58804
5.58772
5.58729
5.58673
5.58604
5.58519
5.58415
5.58289
5.58139
5.57958
5.57742
5.57485
5.57177
5.56812
5.56378
5.55866
5.55262
5.54555
5.53728
5.52767
5.51654
5.50372
5.48909
5.47259
5.45428
5.43445
5.41361
5.39253
5.37214
5.35335
5.33685
5.32306
5.31212
5.30405
5.29876
5.29613
5.2725
5.27414
5.27721
5.28139
5.28628
5.29145
5.29662
5.30155
5.30611
5.31025
5.31393
5.31716
5.31999
5.32243
5.32451
5.32629
5.32778
5.32901
5.33003
5.33085
5.33151
5.33201
5.33239
5.33266
5.33282
5.33288
5.33286
5.33273
5.33252
5.3322
5.33176
5.33121
5.33051
5.32965
5.3286
5.32734
5.32582
5.324
5.32182
5.31921
5.31609
5.31237
5.30794
5.30268
5.29646
5.28915
5.28058
5.27055
5.25888
5.24534
5.22976
5.212
5.1921
5.17033
5.14726
5.1238
5.10108
5.08024
5.0621
5.0471
5.03532
5.0267
5.0211
5.01833
5.02268
5.02461
5.02822
5.03306
5.03867
5.04453
5.0503
5.05574
5.06072
5.06518
5.06911
5.07254
5.07552
5.07808
5.08026
5.0821
5.08364
5.08492
5.08596
5.08679
5.08746
5.08797
5.08836
5.08862
5.08879
5.08885
5.08883
5.08871
5.08849
5.08817
5.08774
5.08718
5.08649
5.08563
5.08458
5.08332
5.0818
5.07998
5.0778
5.07518
5.07203
5.06827
5.06377
5.05842
5.05207
5.04457
5.03574
5.02537
5.01323
4.99905
4.98258
4.96361
4.94212
4.91834
4.89289
4.86685
4.84161
4.81858
4.79876
4.78257
4.77001
4.76091
4.75504
4.75215
4.78356
4.78583
4.79004
4.79564
4.80205
4.80865
4.81507
4.82104
4.82643
4.83119
4.83536
4.83898
4.8421
4.84476
4.84702
4.84893
4.85051
4.85181
4.85287
4.85372
4.85438
4.8549
4.85528
4.85555
4.85572
4.85578
4.85576
4.85564
4.85543
4.85511
4.85468
4.85413
4.85344
4.85259
4.85155
4.8503
4.84879
4.84698
4.84481
4.8422
4.83905
4.83528
4.83074
4.82533
4.81888
4.81124
4.80222
4.79158
4.77904
4.76431
4.74702
4.72691
4.70383
4.67797
4.65
4.62114
4.59315
4.5678
4.54626
4.52892
4.51566
4.50616
4.50008
4.49711
4.55461
4.55727
4.56217
4.56864
4.57593
4.58334
4.59043
4.59694
4.60273
4.6078
4.61218
4.61597
4.61921
4.62197
4.6243
4.62625
4.62787
4.62919
4.63026
4.63111
4.63178
4.63229
4.63267
4.63294
4.6331
4.63317
4.63315
4.63303
4.63282
4.63251
4.63209
4.63155
4.63087
4.63002
4.629
4.62776
4.62628
4.62449
4.62235
4.61976
4.61664
4.61287
4.60833
4.60289
4.59638
4.58865
4.57949
4.56864
4.55579
4.54059
4.5226
4.5014
4.47675
4.44877
4.41811
4.38618
4.35516
4.32734
4.30407
4.28565
4.27178
4.26198
4.25575
4.25273
4.33532
4.33844
4.34414
4.35159
4.35986
4.36813
4.37593
4.38297
4.38916
4.3945
4.39909
4.40302
4.40637
4.40921
4.4116
4.41359
4.41524
4.41657
4.41764
4.41849
4.41916
4.41966
4.42004
4.4203
4.42046
4.42053
4.42051
4.4204
4.42019
4.41989
4.41948
4.41894
4.41827
4.41745
4.41644
4.41523
4.41377
4.41202
4.40992
4.40737
4.40429
4.40056
4.39604
4.3906
4.38407
4.37628
4.36703
4.35604
4.34297
4.32741
4.3088
4.28662
4.26045
4.2303
4.19678
4.16147
4.12711
4.09665
4.07165
4.05226
4.03791
4.02791
4.02162
4.01858
4.12521
4.12888
4.13549
4.14405
4.15341
4.16259
4.17111
4.17869
4.18525
4.19085
4.19561
4.19967
4.20311
4.20602
4.20846
4.21049
4.21215
4.21349
4.21456
4.2154
4.21605
4.21655
4.21692
4.21718
4.21734
4.2174
4.21738
4.21727
4.21707
4.21678
4.21638
4.21586
4.2152
4.2144
4.21341
4.21223
4.21081
4.2091
4.20705
4.20456
4.20154
4.19786
4.19339
4.18797
4.18144
4.17364
4.16436
4.15329
4.14009
4.12426
4.10518
4.08212
4.05449
4.02215
3.98561
3.94657
3.90848
3.8752
3.84851
3.82828
3.81361
3.80354
3.79726
3.79425
3.92383
3.92813
3.93579
3.94559
3.95615
3.96629
3.97555
3.98367
3.99058
3.9964
4.0013
4.00547
4.009
4.01196
4.01444
4.01649
4.01816
4.0195
4.02056
4.02139
4.02203
4.02252
4.02288
4.02313
4.02328
4.02334
4.02332
4.02322
4.02303
4.02274
4.02235
4.02185
4.02121
4.02042
4.01947
4.01831
4.01693
4.01528
4.01329
4.01088
4.00793
4.00432
3.99992
3.99456
3.98806
3.98027
3.971
3.95992
3.94666
3.9307
3.91126
3.88746
3.85845
3.82392
3.78423
3.74103
3.69873
3.66247
3.63418
3.6133
3.59848
3.58846
3.58228
3.57934
3.73072
3.73579
3.74462
3.75583
3.7677
3.77884
3.78884
3.7975
3.80472
3.81073
3.81575
3.82
3.8236
3.8266
3.82911
3.83119
3.83285
3.83418
3.83523
3.83604
3.83666
3.83713
3.83748
3.83772
3.83787
3.83793
3.83791
3.83781
3.83763
3.83736
3.83698
3.83649
3.83588
3.83511
3.83418
3.83306
3.83173
3.83013
3.82822
3.82589
3.82304
3.81952
3.8152
3.80991
3.80347
3.79573
3.78652
3.77548
3.76223
3.74625
3.72662
3.70223
3.67195
3.63527
3.59229
3.54446
3.49735
3.45794
3.42819
3.4069
3.39212
3.38231
3.37631
3.37348
3.54546
3.55144
3.56158
3.57439
3.58771
3.59985
3.6106
3.61977
3.62727
3.63343
3.63853
3.64286
3.64651
3.64954
3.65208
3.65416
3.65582
3.65714
3.65816
3.65895
3.65955
3.66
3.66034
3.66057
3.66071
3.66077
3.66075
3.66066
3.66048
3.66022
3.65986
3.65939
3.6588
3.65805
3.65715
3.65607
3.65479
3.65325
3.65142
3.64919
3.64645
3.64303
3.63881
3.63363
3.62725
3.61957
3.61047
3.59952
3.58636
3.57049
3.55082
3.52603
3.49459
3.45584
3.40953
3.35648
3.30381
3.26111
3.23014
3.2087
3.19419
3.18472
3.179
3.17631
3.36763
3.37473
3.38629
3.40091
3.41582
3.42896
3.44045
3.45013
3.45786
3.46411
3.46926
3.47365
3.47734
3.48038
3.48294
3.48504
3.48668
3.48797
3.48898
3.48974
3.49031
3.49074
3.49106
3.49128
3.49142
3.49148
3.49146
3.49137
3.4912
3.49096
3.49061
3.49016
3.48959
3.48886
3.48799
3.48696
3.48572
3.48425
3.48251
3.48039
3.47777
3.47446
3.47037
3.46531
3.459
3.45141
3.44246
3.43164
3.41862
3.40299
3.38345
3.35846
3.326
3.28531
3.23568
3.17676
3.11755
3.07149
3.03961
3.01836
3.00436
2.99537
2.98999
2.98748
3.19683
3.2053
3.21839
3.23506
3.25173
3.26582
3.27803
3.28821
3.2961
3.30242
3.30756
3.31201
3.31574
3.31877
3.32135
3.32345
3.32507
3.32633
3.32731
3.32804
3.32858
3.32899
3.32929
3.3295
3.32963
3.32968
3.32967
3.32958
3.32943
3.32919
3.32886
3.32843
3.32788
3.32718
3.32634
3.32535
3.32417
3.32277
3.32113
3.31913
3.31663
3.31345
3.30949
3.30458
3.29835
3.29084
3.2821
3.27144
3.2586
3.24335
3.2241
3.19916
3.1658
3.12333
3.07059
3.005
2.93798
2.88858
2.85624
2.83557
2.82231
2.81394
2.80899
2.80669
3.03266
3.04286
3.05752
3.07653
3.09515
3.11006
3.12299
3.13368
3.14165
3.14799
3.15307
3.15759
3.16134
3.16434
3.16694
3.16906
3.17063
3.17186
3.17281
3.1735
3.17401
3.17439
3.17468
3.17488
3.175
3.17505
3.17503
3.17496
3.17481
3.17459
3.17428
3.17387
3.17335
3.17266
3.17184
3.17091
3.16978
3.16844
3.16691
3.16504
3.16269
3.15964
3.15583
3.15109
3.14492
3.13749
3.12902
3.11855
3.1059
3.09118
3.07239
3.04778
3.01364
2.96959
2.91413
2.84096
2.76446
2.71192
2.67971
2.66003
2.64775
2.64013
2.63566
2.6336
2.87473
2.88714
2.90331
2.92502
2.94582
2.96137
2.975
2.98623
2.99416
3.00048
3.00545
3.01005
3.01383
3.01676
3.01939
3.02153
3.02305
3.02424
3.02515
3.0258
3.02628
3.02663
3.0269
3.02709
3.0272
3.02725
3.02723
3.02716
3.02702
3.02682
3.02652
3.02613
3.02564
3.02498
3.02418
3.0233
3.02223
3.02095
3.01953
3.01779
3.01561
3.01268
3.00903
3.00451
2.99839
2.991
2.98288
2.97261
2.96013
2.94612
2.92793
2.90399
2.86914
2.82372
2.76628
2.68445
2.59625
2.54106
2.50973
2.49149
2.48042
2.47366
2.46972
2.46792
2.72264
2.73795
2.75539
2.78025
2.80353
2.81939
2.83373
2.84556
2.85332
2.8596
2.86437
2.86907
2.87289
2.87571
2.87839
2.88055
2.88199
2.88314
2.88402
2.88462
2.88506
2.88538
2.88564
2.88582
2.88592
2.88596
2.88594
2.88588
2.88575
2.88557
2.88528
2.88492
2.88446
2.88381
2.88303
2.88222
2.88119
2.87996
2.87868
2.87707
2.87508
2.87226
2.86877
2.86453
2.85842
2.85103
2.84337
2.83329
2.82091
2.8078
2.79034
2.7675
2.73194
2.68533
2.62708
2.5354
2.43252
2.37559
2.34605
2.32971
2.32005
2.31424
2.31089
2.30935
2.576
2.59513
2.61336
2.64198
2.66809
2.68377
2.69888
2.71141
2.71878
2.72503
2.72949
2.73437
2.73824
2.74087
2.74362
2.74583
2.74716
2.74827
2.74913
2.74966
2.75006
2.75035
2.7506
2.75077
2.75086
2.7509
2.75088
2.75082
2.7507
2.75054
2.75027
2.74992
2.74951
2.74886
2.74808
2.74735
2.74637
2.74518
2.74404
2.74256
2.74079
2.73807
2.73474
2.73086
2.72472
2.71724
2.71019
2.70029
2.68788
2.67593
2.65923
2.63804
2.60166
2.55396
2.49671
2.39379
2.27225
2.21518
2.18849
2.17449
2.16642
2.16162
2.15887
2.15761
2.43438
2.45865
2.47681
2.50996
2.53937
2.55415
2.57015
2.58352
2.59024
2.5965
2.60051
2.60566
2.60958
2.61195
2.61482
2.61709
2.61827
2.61934
2.62018
2.62064
2.62101
2.62125
2.6215
2.62166
2.62173
2.62177
2.62175
2.6217
2.62159
2.62145
2.62119
2.62086
2.6205
2.61985
2.61907
2.61843
2.61749
2.61632
2.61535
2.61399
2.61248
2.60983
2.60664
2.60323
2.59698
2.5893
2.58306
2.57331
2.56065
2.55019
2.53421
2.51538
2.47793
2.42906
2.37543
2.25977
2.11425
2.05955
2.03691
2.02563
2.01928
2.01554
2.01341
2.01244
2.29733
2.32857
2.34522
2.38398
2.41729
2.43013
2.44723
2.4617
2.46736
2.47376
2.47711
2.48268
2.48668
2.48865
2.49171
2.49407
2.49504
2.49609
2.49692
2.49728
2.49763
2.49782
2.49806
2.49822
2.49827
2.49831
2.49828
2.49825
2.49815
2.49804
2.49778
2.49746
2.49717
2.49651
2.49571
2.49519
2.49428
2.4931
2.49233
2.49108
2.48987
2.48724
2.48417
2.48139
2.47495
2.46687
2.46176
2.4521
2.43885
2.43035
2.41487
2.39936
2.36041
2.30996
2.26367
2.13365
1.95703
1.90858
1.89119
1.88296
1.87841
1.87576
1.87425
1.87356
2.16435
2.20509
2.21804
2.26386
2.30182
2.31128
2.32987
2.34576
2.34983
2.35659
2.35898
2.36518
2.36929
2.37069
2.37404
2.37653
2.37721
2.37825
2.37909
2.37934
2.37967
2.37979
2.38005
2.38019
2.38023
2.38027
2.38024
2.38021
2.38011
2.38004
2.37978
2.37947
2.37927
2.37859
2.37773
2.37738
2.37649
2.37525
2.37473
2.37354
2.37272
2.37006
2.36705
2.36512
2.35836
2.34962
2.34605
2.33643
2.3221
2.31618
2.30076
2.28988
2.24874
2.19583
2.16199
2.01593
1.79878
1.76229
1.75129
1.74632
1.7436
1.74202
1.74113
1.74072
2.03489
2.08859
2.09456
2.14944
2.19301
2.19711
2.21779
2.23556
2.23729
2.2448
2.2458
2.25295
2.2572
2.25778
2.26158
2.26424
2.26452
2.26559
2.26646
2.26656
2.26688
2.26693
2.26721
2.26734
2.26736
2.2674
2.26736
2.26734
2.26725
2.26722
2.26695
2.26664
2.26656
2.26584
2.26489
2.26475
2.26388
2.26252
2.26231
2.26114
2.26081
2.25803
2.255
2.25422
2.24699
2.23721
2.23575
2.22608
2.20999
2.20756
2.19139
2.1869
2.14263
2.08561
2.07109
1.90738
1.63724
1.62097
1.61718
1.61552
1.61462
1.6141
1.6138
1.61367
)
;

boundaryField
{
    left
    {
        type            zeroGradient;
    }
    right
    {
        type            zeroGradient;
    }
    interface
    {
        type            fixedValue;
        value           nonuniform List<scalar> 
64
(
2.00188
2.06648
2.06648
2.13028
2.18023
2.18023
2.20414
2.22495
2.22495
2.23405
2.23405
2.24293
2.24792
2.24792
2.25276
2.25607
2.25607
2.25739
2.25847
2.25847
2.25888
2.25888
2.25925
2.25941
2.25941
2.25948
2.25943
2.25943
2.25932
2.25932
2.25901
2.25866
2.25866
2.25784
2.25672
2.25672
2.25578
2.2542
2.2542
2.25287
2.25287
2.24974
2.24639
2.24639
2.2383
2.22705
2.22705
2.21672
2.19824
2.19824
2.18007
2.18007
2.1312
2.06771
2.06771
1.88662
1.57079
1.57079
1.57079
1.57079
1.57079
1.57079
1.57079
1.57079
)
;
    }
    bottom
    {
        type            fixedValue;
        value           uniform 10;
    }
    defaultFaces
    {
        type            empty;
    }
}


// ************************************************************************* //
