/*--------------------------------*- C++ -*----------------------------------*\
| =========                 |                                                 |
| \\      /  F ield         | OpenFOAM: The Open Source CFD Toolbox           |
|  \\    /   O peration     | Version:  5.x                                   |
|   \\  /    A nd           | Web:      www.OpenFOAM.org                      |
|    \\/     M anipulation  |                                                 |
\*---------------------------------------------------------------------------*/
FoamFile
{
    version     2.0;
    format      ascii;
    class       volScalarField;
    location    "12";
    object      gradTx;
}
// * * * * * * * * * * * * * * * * * * * * * * * * * * * * * * * * * * * * * //

dimensions      [0 -1 0 1 0 0 0];

internalField   nonuniform List<scalar> 
6300
(
-31.9104
-31.9812
-32.1221
-32.3317
-32.6078
-32.9472
-33.3456
-33.7976
-34.2965
-34.8341
-35.4012
-35.9874
-36.5814
-37.1721
-37.7489
-31.8395
-31.911
-32.0534
-32.2653
-32.5445
-32.8881
-33.292
-33.7507
-34.2577
-34.8047
-35.3822
-35.9794
-36.5847
-37.1861
-37.7722
-31.6972
-31.77
-31.9152
-32.1314
-32.4169
-32.7688
-33.1835
-33.6557
-34.1788
-34.7448
-35.3435
-35.9635
-36.5919
-37.2154
-37.8208
-31.482
-31.5568
-31.7058
-31.9283
-32.2227
-32.5868
-33.0174
-33.5096
-34.0573
-34.6521
-35.2836
-35.9391
-36.604
-37.2626
-37.8989
-31.1921
-31.2692
-31.423
-31.6532
-31.9589
-32.3385
-32.7895
-33.3081
-33.8886
-34.5227
-35.1996
-35.9052
-36.6226
-37.3321
-38.0135
-30.8252
-30.9047
-31.0638
-31.3026
-31.6211
-32.0187
-32.4942
-33.0449
-33.6661
-34.3505
-35.0869
-35.8598
-36.6489
-37.4298
-38.175
-30.3788
-30.4607
-30.625
-30.8724
-31.2041
-31.6211
-32.1236
-32.7111
-33.3806
-34.1264
-34.9377
-35.798
-36.6836
-37.5631
-38.3987
-29.8504
-29.9343
-30.1029
-30.358
-30.702
-31.1378
-31.6681
-32.2951
-33.019
-33.8366
-34.7394
-35.711
-36.7244
-37.7403
-38.7062
-29.2382
-29.3231
-29.4944
-29.7547
-30.1081
-30.5599
-31.116
-31.7823
-32.5637
-33.4618
-34.4725
-35.5821
-36.7628
-37.9675
-39.1253
-28.5411
-28.6257
-28.7967
-29.0582
-29.4159
-29.8779
-30.4537
-31.1546
-31.9917
-32.9744
-34.1067
-35.3822
-36.7771
-38.2418
-39.6879
-27.7594
-27.8417
-28.0087
-28.2654
-28.6196
-29.0819
-29.6665
-30.3906
-31.274
-32.3374
-33.5979
-35.063
-36.7219
-38.5346
-40.4146
-26.8954
-26.973
-27.131
-27.3753
-27.715
-28.1637
-28.7397
-29.4672
-30.3766
-31.5034
-32.8845
-34.5504
-36.5133
-38.7605
-41.2625
-25.9538
-26.0239
-26.1671
-26.3896
-26.7016
-27.1183
-27.6615
-28.3621
-29.2619
-30.4151
-31.8868
-33.7418
-36.022
-38.7342
-41.9655
-24.9421
-25.0018
-25.1239
-25.3145
-25.5835
-25.9462
-26.4261
-27.058
-27.8938
-29.0088
-30.5068
-32.5105
-35.1045
-38.1996
-41.6209
-23.8707
-23.9172
-24.0124
-24.1611
-24.3716
-24.6571
-25.0387
-25.5501
-26.2465
-27.22
-28.6233
-30.695
-33.7029
-37.3783
-38.0541
-38.2583
-38.6985
-39.1145
-39.5044
-39.8674
-40.2032
-40.5124
-40.7954
-41.0524
-41.2834
-41.4877
-41.6643
-41.8122
-41.9307
-42.0198
-42.0801
-42.1137
-42.1235
-42.1133
-42.0874
-42.0501
-42.0051
-41.9553
-41.9025
-41.8473
-41.789
-41.7262
-41.657
-41.5793
-41.4918
-41.3938
-41.2857
-41.1688
-41.0456
-40.9186
-40.791
-40.6652
-40.5431
-40.4256
-40.3124
-40.2024
-40.0935
-39.9835
-39.8701
-39.7515
-39.6269
-39.4964
-39.3609
-39.2224
-39.0835
-38.9466
-38.8141
-38.6874
-38.5674
-38.4536
-38.3448
-38.239
-38.1339
-38.0274
-37.9177
-37.8038
-37.6857
-37.5645
-37.442
-37.3204
-37.2022
-37.0896
-36.9841
-36.8864
-36.7963
-36.7128
-36.6343
-36.5589
-36.4849
-36.4115
-36.3384
-36.2667
-36.1987
-36.1373
-36.0866
-36.0504
-36.0325
-36.0358
-36.0622
-36.1116
-36.1824
-36.2714
-36.3735
-36.4825
-36.5915
-38.2886
-38.7333
-39.1521
-39.5433
-39.9064
-40.2417
-40.5501
-40.8327
-41.09
-41.3219
-41.5275
-41.7056
-41.8546
-41.9732
-42.061
-42.1186
-42.1479
-42.1523
-42.136
-42.1039
-42.0611
-42.0119
-41.9596
-41.9061
-41.8517
-41.7956
-41.7356
-41.6691
-41.5935
-41.507
-41.4084
-41.2982
-41.1781
-41.0508
-40.9197
-40.7884
-40.6599
-40.5366
-40.4194
-40.3079
-40.2007
-40.0951
-39.9883
-39.8774
-39.7603
-39.6356
-39.5034
-39.3651
-39.2232
-39.0805
-38.9404
-38.8055
-38.6779
-38.5584
-38.4464
-38.3404
-38.2379
-38.1361
-38.0321
-37.9237
-37.8097
-37.6902
-37.5664
-37.4406
-37.3155
-37.1942
-37.0793
-36.9728
-36.8754
-36.7868
-36.7057
-36.6298
-36.5567
-36.4843
-36.4109
-36.3364
-36.2616
-36.189
-36.1222
-36.0656
-36.024
-36.0019
-36.0028
-36.0289
-36.0807
-36.1564
-36.2525
-36.3635
-36.4823
-36.6014
-38.3515
-38.8052
-39.2295
-39.6227
-39.9853
-40.3187
-40.6251
-40.9065
-41.1641
-41.3981
-41.607
-41.7888
-41.9407
-42.0602
-42.1459
-42.1978
-42.2182
-42.2108
-42.1813
-42.136
-42.0814
-42.0232
-41.9656
-41.9108
-41.8587
-41.8077
-41.7542
-41.6942
-41.6236
-41.5393
-41.4397
-41.3251
-41.1977
-41.0615
-40.9211
-40.7815
-40.6472
-40.5212
-40.4048
-40.2974
-40.1965
-40.0985
-39.9991
-39.8939
-39.7798
-39.6549
-39.5192
-39.3748
-39.2249
-39.0739
-38.9265
-38.7866
-38.6569
-38.5385
-38.4306
-38.331
-38.236
-38.1413
-38.0429
-37.9377
-37.8237
-37.701
-37.5714
-37.438
-37.3051
-37.1769
-37.0571
-36.9484
-36.8518
-36.7667
-36.6909
-36.6212
-36.5536
-36.4848
-36.4122
-36.3347
-36.2533
-36.1709
-36.0922
-36.023
-35.9696
-35.9381
-35.9334
-35.9588
-36.0152
-36.1011
-36.2122
-36.3421
-36.482
-36.6223
-38.4521
-38.9198
-39.3515
-39.7464
-40.1062
-40.4347
-40.7361
-41.0145
-41.2725
-41.5102
-41.7257
-41.9151
-42.0734
-42.1959
-42.2793
-42.3227
-42.3283
-42.3012
-42.2493
-42.1814
-42.1069
-42.0338
-41.9677
-41.9114
-41.8644
-41.8232
-41.7822
-41.7345
-41.6735
-41.5938
-41.4926
-41.3703
-41.2302
-41.078
-40.9212
-40.7672
-40.6226
-40.4921
-40.3774
-40.2773
-40.1882
-40.104
-40.018
-39.9234
-39.8149
-39.6897
-39.5478
-39.3921
-39.2281
-39.0623
-38.9019
-38.7529
-38.6195
-38.5033
-38.403
-38.315
-38.2335
-38.1519
-38.0638
-37.9642
-37.8501
-37.7217
-37.5816
-37.4349
-37.288
-37.1474
-37.0189
-36.9065
-36.8116
-36.7331
-36.6675
-36.6093
-36.5525
-36.491
-36.4204
-36.3386
-36.2464
-36.1475
-36.0485
-35.9576
-35.8838
-35.8357
-35.8208
-35.8439
-35.9073
-36.0093
-36.1451
-36.3061
-36.4809
-36.6567
-38.5992
-39.086
-39.5265
-39.9205
-40.2724
-40.5895
-40.8802
-41.1521
-41.4099
-41.6543
-41.882
-42.086
-42.2576
-42.3879
-42.4703
-42.502
-42.4853
-42.4276
-42.3401
-42.2365
-42.1305
-42.0342
-41.9556
-41.8986
-41.8616
-41.8386
-41.8199
-41.7942
-41.7502
-41.6791
-41.576
-41.4413
-41.28
-41.1014
-40.9172
-40.7392
-40.5779
-40.4401
-40.3287
-40.2417
-40.1727
-40.1123
-40.0492
-39.9727
-39.8741
-39.7485
-39.5961
-39.4216
-39.2336
-39.043
-38.8608
-38.6968
-38.5574
-38.4451
-38.3578
-38.2895
-38.2311
-38.1718
-38.1013
-38.0114
-37.8974
-37.7592
-37.6015
-37.4322
-37.2617
-37.1004
-36.9576
-36.8393
-36.7478
-36.6811
-36.6333
-36.5956
-36.5579
-36.5102
-36.4448
-36.3575
-36.249
-36.1244
-35.9933
-35.8676
-35.7608
-35.6857
-35.6532
-35.6712
-35.7435
-35.8691
-36.0417
-36.2501
-36.4786
-36.7088
-38.8067
-39.319
-39.7682
-40.1553
-40.4887
-40.7822
-41.0513
-41.3099
-41.5665
-41.8226
-42.0724
-42.3038
-42.5013
-42.6489
-42.7342
-42.751
-42.7015
-42.5968
-42.4542
-42.2949
-42.1404
-42.0088
-41.9127
-41.857
-41.8388
-41.8477
-41.8678
-41.88
-41.8659
-41.8103
-41.7052
-41.5504
-41.3546
-41.1329
-40.9041
-40.6874
-40.4991
-40.3502
-40.245
-40.18
-40.1449
-40.1243
-40.0999
-40.0539
-39.972
-39.8461
-39.6763
-39.4706
-39.243
-39.0114
-38.7937
-38.6052
-38.4563
-38.3508
-38.2853
-38.2499
-38.2299
-38.2079
-38.1669
-38.0932
-37.9793
-37.825
-37.6378
-37.4312
-37.222
-37.027
-36.861
-36.7336
-36.6483
-36.6018
-36.5845
-36.5821
-36.5777
-36.555
-36.5006
-36.407
-36.2746
-36.1109
-35.9301
-35.7506
-35.5922
-35.4742
-35.4129
-35.4203
-35.5031
-35.6611
-35.8869
-36.1652
-36.4737
-36.7855
-39.096
-39.6429
-40.0993
-40.4674
-40.7626
-41.0099
-41.2377
-41.4706
-41.7238
-42
-42.2891
-42.5704
-42.8167
-42.9998
-43.0968
-43.0952
-42.9975
-42.8204
-42.5922
-42.3466
-42.1172
-41.9324
-41.8114
-41.7614
-41.7769
-41.8408
-41.9268
-42.004
-42.0412
-42.0131
-41.9056
-41.7187
-41.4666
-41.1747
-40.8737
-40.5946
-40.3634
-40.1976
-40.1034
-40.0752
-40.0963
-40.1417
-40.1817
-40.1868
-40.1331
-40.0069
-39.8083
-39.5509
-39.2583
-38.9598
-38.6844
-38.4566
-38.2929
-38.1989
-38.1693
-38.1881
-38.2315
-38.2713
-38.2794
-38.2331
-38.1193
-37.9381
-37.7022
-37.4342
-37.1615
-36.912
-36.7087
-36.5672
-36.4929
-36.4804
-36.5142
-36.5712
-36.6241
-36.6454
-36.6126
-36.5127
-36.3451
-36.1218
-35.8651
-35.603
-35.3656
-35.181
-35.0735
-35.061
-35.1543
-35.3555
-35.6564
-36.0366
-36.4641
-36.8979
-39.5002
-40.0969
-40.5577
-40.8846
-41.1053
-41.2656
-41.4167
-41.602
-41.8481
-42.1589
-42.5171
-42.8873
-43.223
-43.4749
-43.6012
-43.5781
-43.4076
-43.1178
-42.7553
-42.3749
-42.0298
-41.7643
-41.608
-41.5715
-41.6454
-41.8019
-41.9988
-42.1854
-42.3104
-42.3304
-42.2205
-41.9807
-41.636
-41.2294
-40.8118
-40.4328
-40.1337
-39.9418
-39.8667
-39.8993
-40.0127
-40.1668
-40.3137
-40.4046
-40.3985
-40.272
-40.0251
-39.6817
-39.2823
-38.8749
-38.5065
-38.2159
-38.0288
-37.9544
-37.9835
-38.0909
-38.2383
-38.3803
-38.4705
-38.47
-38.3565
-38.13
-37.8129
-37.4437
-37.0679
-36.7303
-36.4675
-36.3042
-36.2486
-36.2922
-36.4104
-36.5664
-36.7159
-36.8137
-36.8213
-36.7159
-36.4957
-36.1811
-35.8078
-35.42
-35.0627
-34.7769
-34.5972
-34.5494
-34.6502
-34.9065
-35.3115
-35.84
-36.4455
-37.0638
-40.0701
-40.7469
-41.2089
-41.4546
-41.5349
-41.5347
-41.5462
-41.6461
-41.8788
-42.2497
-42.7277
-43.2538
-43.7499
-44.1309
-44.3208
-44.273
-43.9895
-43.52
-42.9444
-42.3523
-41.8276
-41.439
-41.2319
-41.2225
-41.3951
-41.7049
-42.0854
-42.4558
-42.7307
-42.8348
-42.7224
-42.3936
-41.8946
-41.3001
-40.6943
-40.156
-39.7495
-39.5176
-39.4752
-39.607
-39.8705
-40.2025
-40.5265
-40.7618
-40.8374
-40.7103
-40.381
-39.8931
-39.3176
-38.7339
-38.2164
-37.826
-37.6027
-37.5607
-37.6852
-37.936
-38.2531
-38.5639
-38.792
-38.8698
-38.7564
-38.4522
-37.9985
-37.4625
-36.9196
-36.4406
-36.0833
-35.8858
-35.8616
-35.9966
-36.2523
-36.5709
-36.8822
-37.1118
-37.193
-37.0841
-36.7825
-36.3246
-35.7716
-35.1932
-34.6566
-34.2203
-33.931
-33.8236
-33.9223
-34.2433
-34.7889
-35.5326
-36.4084
-37.3126
-40.8823
-41.706
-42.1717
-42.2628
-42.0804
-41.7867
-41.5486
-41.4987
-41.7107
-42.1861
-42.8693
-43.6633
-44.4425
-45.0623
-45.3824
-45.3076
-44.8392
-44.0749
-43.1572
-42.2324
-41.4297
-40.8524
-40.571
-40.6117
-40.947
-41.506
-42.1867
-42.8637
-43.3967
-43.6511
-43.5358
-43.0517
-42.2907
-41.3872
-40.4795
-39.6892
-39.1141
-38.8205
-38.8329
-39.125
-39.6295
-40.2497
-40.867
-41.3488
-41.5683
-41.4399
-40.965
-40.2309
-39.3648
-38.4974
-37.7436
-37.1955
-36.9156
-36.9271
-37.205
-37.6855
-38.2768
-38.8668
-39.3297
-39.5449
-39.4312
-38.9896
-38.3027
-37.4912
-36.6792
-35.9758
-35.4688
-35.2179
-35.2453
-35.5273
-36.0035
-36.5858
-37.1664
-37.6233
-37.8384
-37.73
-37.2943
-36.6051
-35.7718
-34.9062
-34.1063
-33.4518
-33.0028
-32.8009
-32.8743
-33.2569
-33.9808
-35.035
-36.3305
-37.6938
-42.0464
-43.1803
-43.6743
-43.4651
-42.7863
-41.9583
-41.2798
-40.9742
-41.1632
-41.8235
-42.851
-44.0941
-45.3646
-46.4254
-47.0127
-46.9089
-46.1151
-44.8509
-43.3799
-41.9371
-40.707
-39.8399
-39.4462
-39.5768
-40.1766
-41.1321
-42.2931
-43.4789
-44.4642
-44.9996
-44.8805
-44.1086
-42.8919
-41.4802
-40.0956
-38.9127
-38.0735
-37.6826
-37.7879
-38.337
-39.2221
-40.301
-41.4024
-42.3138
-42.8
-42.6686
-41.9224
-40.7586
-39.4138
-38.0974
-36.9744
-36.1786
-35.8088
-35.9101
-36.4329
-37.2753
-38.3026
-39.3527
-40.2241
-40.6936
-40.5783
-39.8803
-38.7864
-37.5208
-36.2824
-35.2281
-34.4856
-34.1491
-34.2622
-34.7786
-35.6017
-36.6034
-37.6287
-38.4832
-38.9495
-38.847
-38.1712
-37.0932
-35.8183
-34.5248
-33.3467
-32.3872
-31.7189
-31.382
-31.3808
-31.7788
-32.6973
-34.1898
-36.155
-38.2952
-43.6873
-45.5738
-46.1888
-45.3452
-43.7084
-41.9144
-40.4735
-39.7375
-39.9368
-40.9319
-42.5224
-44.4857
-46.5883
-48.4705
-49.638
-49.5036
-48.0686
-45.9244
-43.5623
-41.3352
-39.4618
-38.1455
-37.5665
-37.8662
-38.8942
-40.4623
-42.364
-44.3825
-46.1795
-47.2909
-47.165
-45.8059
-43.7739
-41.5344
-39.4212
-37.6413
-36.3874
-35.8302
-36.1037
-37.0651
-38.5358
-40.3198
-42.2115
-43.8912
-44.9211
-44.7824
-43.4809
-41.5473
-39.4217
-37.4189
-35.734
-34.5485
-34.0236
-34.2861
-35.2008
-36.5989
-38.2954
-40.0958
-41.6974
-42.6846
-42.5642
-41.3409
-39.5174
-37.511
-35.6205
-34.0316
-32.9177
-32.4328
-32.6986
-33.5882
-34.9426
-36.5869
-38.3369
-39.9019
-40.8799
-40.7897
-39.6271
-37.8649
-35.8917
-33.9769
-32.2725
-30.9031
-29.9579
-29.4798
-29.3125
-29.5513
-30.5872
-32.6641
-35.7272
-39.2812
-45.7907
-49.7892
-50.7947
-48.3697
-44.8632
-41.3631
-38.6515
-37.1537
-37.5642
-39.1828
-41.6571
-44.6763
-48.1295
-51.5447
-54.138
-53.971
-51.0436
-47.3116
-43.5503
-40.2241
-37.4142
-35.3895
-34.4214
-35.1069
-36.8338
-39.3122
-42.2667
-45.6052
-48.8823
-51.3637
-51.2252
-48.4723
-44.9547
-41.4067
-38.2667
-35.6124
-33.6979
-32.7814
-33.4291
-35.0598
-37.3985
-40.1833
-43.326
-46.4041
-48.7249
-48.5708
-45.9496
-42.6124
-39.2527
-36.2827
-33.7745
-31.9671
-31.1046
-31.723
-33.2723
-35.4931
-38.1383
-41.1255
-44.0552
-46.2704
-46.1385
-43.6659
-40.5119
-37.3341
-34.5242
-32.1513
-30.4439
-29.6354
-30.2369
-31.7284
-33.8661
-36.4185
-39.3113
-42.1658
-44.3487
-44.2763
-41.9466
-38.9404
-35.8809
-33.1263
-30.7159
-28.8081
-27.5243
-27.1299
-26.6594
-26.1758
-26.9781
-29.7183
-34.5928
-40.9833
-47.3132
-58.2938
-60.2882
-52.9301
-46.0248
-39.685
-35.0836
-31.8223
-33.4518
-36.2016
-40.0071
-44.2419
-49.7255
-55.8024
-62.613
-62.4134
-55.1771
-48.7412
-42.9116
-38.3693
-34.2363
-31.1119
-28.895
-30.8482
-33.6912
-37.4766
-41.6164
-46.9164
-52.7307
-59.2091
-59.0503
-52.2398
-46.1795
-40.6914
-36.4129
-32.5184
-29.5713
-27.4802
-29.3391
-32.035
-35.6188
-39.5313
-44.5337
-50.0074
-56.0926
-55.9117
-49.4496
-43.7099
-38.5225
-34.4815
-30.8059
-28.0248
-26.0534
-27.8192
-30.3768
-33.7761
-37.4887
-42.2379
-47.4421
-53.2358
-53.0834
-46.9723
-41.5404
-36.6277
-32.7985
-29.3127
-26.6756
-24.8075
-26.4936
-28.9383
-32.1921
-35.76
-40.3408
-45.3968
-51.0652
-51.0135
-45.2404
-40.0925
-35.431
-31.7799
-28.4355
-25.8148
-23.8098
-24.8896
-24.0253
-20.9485
-20.5786
-23.6989
-31.2754
-44.1164
-41.2645
-79.7933
-83.0619
-56.6477
-46.3448
-35.5066
-29.5869
-19.4479
-27.7264
-31.7002
-37.7388
-42.0092
-50.4671
-59.0036
-81.1825
-80.9889
-58.1578
-49.2977
-40.4194
-35.9251
-29.6058
-25.5276
-17.3637
-25.3081
-29.1916
-35.1307
-39.2954
-47.4872
-55.6225
-76.6123
-76.4538
-54.9268
-46.5803
-38.2341
-34.0063
-28.06
-24.2118
-16.4912
-24.0437
-27.7316
-33.3658
-37.3097
-45.0628
-52.7301
-72.4837
-72.2975
-51.909
-44.0123
-36.1416
-32.1541
-26.5491
-22.9166
-15.6206
-22.775
-26.2695
-31.6079
-35.3464
-42.6953
-49.9801
-68.7634
-68.6089
-49.3005
-41.8212
-34.3611
-30.5784
-25.252
-21.7999
-14.8617
-21.6578
-24.9829
-30.0661
-33.6427
-40.6861
-47.7459
-66.0187
-65.9896
-47.6338
-40.5443
-33.526
-29.9917
-25.1133
-21.9346
-15.6534
-25.4487
-24.5771
-11.8232
-9.15339
-11.2624
-20.3773
-50.2256
-36.7028
-36.8055
-36.8796
-36.9196
-36.9238
-36.8941
-36.8351
-36.7537
-36.658
-36.5567
-36.458
-36.3694
-36.2972
-36.2463
-36.22
-36.7227
-36.8342
-36.9137
-36.9554
-36.9578
-36.9233
-36.8574
-36.7679
-36.6637
-36.5541
-36.4479
-36.353
-36.2759
-36.2217
-36.1937
-36.7649
-36.8947
-36.9854
-37.0305
-37.0288
-36.984
-36.9034
-36.7968
-36.6748
-36.5481
-36.4266
-36.3188
-36.2318
-36.1708
-36.1394
-36.8345
-36.9944
-37.1029
-37.1524
-37.1429
-37.0803
-36.9755
-36.841
-36.6906
-36.5369
-36.3915
-36.2638
-36.1616
-36.0903
-36.0538
-36.9404
-37.1454
-37.2794
-37.3335
-37.3098
-37.2191
-37.077
-36.9013
-36.7096
-36.5175
-36.3386
-36.1834
-36.0603
-35.9752
-35.9316
-37.097
-37.3674
-37.5357
-37.5922
-37.5439
-37.4092
-37.2122
-36.9777
-36.7289
-36.4851
-36.2618
-36.071
-35.9212
-35.8183
-35.766
-37.3277
-37.6916
-37.9038
-37.9557
-37.8644
-37.6617
-37.3847
-37.0685
-36.7431
-36.432
-36.1527
-35.9176
-35.7352
-35.6109
-35.548
-37.6705
-38.1675
-38.4321
-38.4626
-38.2962
-37.9886
-37.5964
-37.1686
-36.7431
-36.3472
-35.9994
-35.7115
-35.491
-35.342
-35.2671
-38.1892
-38.8756
-39.1946
-39.1662
-38.8694
-38.3999
-37.8436
-37.2663
-36.7135
-36.2143
-35.7861
-35.4381
-35.1751
-34.9992
-34.9112
-38.9959
-39.9514
-40.3046
-40.1381
-39.6153
-38.8982
-38.1118
-37.3394
-36.6303
-36.0106
-35.4924
-35.0796
-34.7722
-34.5686
-34.4673
-40.2997
-41.6293
-41.9343
-41.4663
-40.5554
-39.4656
-38.3662
-37.3492
-36.4575
-35.7055
-35.0934
-34.6158
-34.2654
-34.0357
-33.9221
-42.5218
-44.3318
-44.337
-43.2375
-41.6743
-40.0429
-38.538
-37.2339
-36.1451
-35.2603
-34.56
-34.0248
-33.6379
-33.3868
-33.2633
-46.6016
-48.8393
-47.8442
-45.4726
-42.8612
-40.4937
-38.5089
-36.9034
-35.6287
-34.6305
-33.8616
-33.2853
-32.8745
-32.6103
-32.4811
-54.9199
-56.5794
-52.7279
-47.9475
-43.8044
-40.5618
-38.1004
-36.2419
-34.8358
-33.7713
-32.9707
-32.3805
-31.9644
-31.6989
-31.5695
-74.5078
-69.8305
-58.5406
-49.7852
-43.8469
-39.8486
-37.0891
-35.1282
-33.7014
-32.6483
-31.8694
-31.3014
-30.9039
-30.6514
-30.5286
-22.846
-22.8783
-22.9444
-23.0472
-23.192
-23.3874
-23.648
-23.9983
-24.4829
-25.1868
-26.2871
-28.1846
-31.8453
-39.4855
-53.6179
-21.892
-21.9105
-21.948
-22.0054
-22.0844
-22.188
-22.3213
-22.4945
-22.7273
-23.0639
-23.6134
-24.6961
-27.4665
-37.0534
-79.567
-20.9251
-20.9296
-20.9378
-20.9487
-20.9598
-20.9678
-20.9671
-20.9491
-20.8996
-20.7929
-20.5715
-20.0555
-18.476
-11.7701
25.4881
-19.9552
-19.9459
-19.9259
-19.8917
-19.8375
-19.7538
-19.625
-19.4257
-19.1115
-18.601
-17.7326
-16.1613
-13.1557
-7.71678
-3.82302
-18.9917
-18.9698
-18.9238
-18.8487
-18.7357
-18.571
-18.332
-17.9821
-17.4596
-16.6571
-15.3786
-13.2531
-9.54392
-2.60291
13.4612
-18.0433
-18.0105
-17.942
-17.8319
-17.6699
-17.4398
-17.1159
-16.6583
-16.0025
-15.044
-13.6122
-11.4392
-8.17514
-3.82913
-1.97497
-17.1178
-17.0759
-16.9891
-16.8512
-16.6515
-16.3736
-15.9929
-15.4722
-14.7557
-13.7598
-12.361
-10.3815
-7.55688
-3.32593
4.93524
-16.2213
-16.1724
-16.0718
-15.9134
-15.6873
-15.3789
-14.9671
-14.4221
-13.7029
-12.7555
-11.5135
-9.91028
-7.91501
-5.62169
-3.47658
-15.3588
-15.305
-15.1946
-15.0225
-14.7803
-14.4561
-14.0338
-13.4929
-12.8087
-11.9557
-10.9168
-9.71135
-8.48003
-7.81452
-10.3986
-14.5338
-14.4767
-14.3603
-14.1804
-13.9303
-13.6014
-13.1829
-12.6631
-12.0317
-11.285
-10.4359
-9.53041
-8.65209
-7.75066
-5.03792
-13.7484
-13.6895
-13.5701
-13.3869
-13.1351
-12.809
-12.4024
-11.911
-11.3349
-10.6853
-9.99416
-9.33063
-8.84023
-8.94461
-11.8703
-13.0039
-12.9444
-12.8243
-12.6411
-12.3916
-12.0724
-11.6809
-11.2175
-10.6891
-10.1146
-9.53326
-9.01063
-8.61532
-8.17928
-5.5428
-12.3006
-12.2414
-12.1222
-11.9412
-11.6965
-11.386
-11.0093
-10.5693
-10.0753
-9.54875
-9.03156
-8.60224
-8.41872
-8.94199
-12.5759
-11.6384
-11.5802
-11.463
-11.2857
-11.0469
-10.7455
-10.3818
-9.95855
-9.4842
-8.97634
-8.46886
-8.02318
-7.73131
-7.54455
-5.41085
-11.0167
-10.9599
-10.8456
-10.673
-10.4409
-10.1485
-9.79545
-9.38332
-8.91637
-8.40366
-7.86326
-7.3373
-6.97092
-7.49912
-13.4856
-10.4345
-10.3794
-10.2686
-10.1015
-9.8768
-9.59342
-9.2502
-8.84617
-8.3803
-7.85023
-7.24765
-6.54061
-5.58931
-3.66321
3.67734
-9.89063
-9.83751
-9.73087
-9.56992
-9.35347
-9.07994
-8.74718
-8.35197
-7.88884
-7.34715
-6.7046
-5.91356
-4.88466
-3.58732
-3.45697
-9.38361
-9.33281
-9.23083
-9.0769
-8.86977
-8.6076
-8.28752
-7.90495
-7.45194
-6.91413
-6.26466
-5.45171
-4.36642
-2.70102
1.04711
-8.91187
-8.86365
-8.76687
-8.62082
-8.42432
-8.17547
-7.87128
-7.50684
-7.07393
-6.55867
-5.93826
-5.17899
-4.25106
-3.26105
-3.39369
-8.47362
-8.42821
-8.33713
-8.19979
-8.01521
-7.78177
-7.49688
-7.1563
-6.75312
-6.27622
-5.7083
-5.02342
-4.17881
-3.04145
-0.73797
-8.0669
-8.0245
-7.93951
-7.81157
-7.64004
-7.42382
-7.16117
-6.84924
-6.4835
-6.05699
-5.55958
-4.97878
-4.30986
-3.63165
-3.6711
-7.68964
-7.65035
-7.57172
-7.45364
-7.29589
-7.09811
-6.85967
-6.57954
-6.25611
-5.887
-5.46877
-4.99535
-4.44738
-3.72347
-2.20021
-7.33967
-7.30353
-7.23134
-7.12326
-6.97956
-6.80065
-6.58714
-6.33993
-6.06044
-5.75113
-5.4163
-5.06371
-4.70708
-4.37038
-4.10276
-7.0148
-6.98176
-6.91588
-6.81761
-6.68768
-6.52723
-6.33802
-6.12272
-5.8855
-5.63299
-5.37618
-5.13488
-4.95294
-4.96931
-5.81936
-6.71288
-6.6828
-6.62293
-6.53396
-6.417
-6.2738
-6.10703
-5.92075
-5.72119
-5.51785
-5.32529
-5.16483
-5.06111
-4.98927
-4.43971
-6.43186
-6.40452
-6.3502
-6.26975
-6.16455
-6.03673
-5.88958
-5.72802
-5.5595
-5.39524
-5.25211
-5.15541
-5.14714
-5.34098
-6.36479
-6.16985
-6.14497
-6.09564
-6.02275
-5.9278
-5.81311
-5.68215
-5.54014
-5.39485
-5.25798
-5.14671
-5.08457
-5.09283
-5.11629
-4.48662
-5.92511
-5.90241
-5.85743
-5.79107
-5.70478
-5.60079
-5.48242
-5.35453
-5.22438
-5.10294
-5.0072
-4.96485
-5.02799
-5.34516
-6.68521
-5.69615
-5.67534
-5.6341
-5.57323
-5.49405
-5.39847
-5.28929
-5.1705
-5.04787
-4.93005
-4.83063
-4.77189
-4.78674
-4.86366
-4.32205
-5.48164
-5.46245
-5.42439
-5.36813
-5.29471
-5.20561
-5.10286
-4.98914
-4.86802
-4.74441
-4.62583
-4.52782
-4.5024
-4.81167
-7.0749
-5.28048
-5.26268
-5.22734
-5.17496
-5.10627
-5.02225
-4.92406
-4.81293
-4.68992
-4.55528
-4.40676
-4.23336
-3.98564
-3.40276
-0.887062
-5.09168
-5.07511
-5.04214
-4.99311
-4.92848
-4.84873
-4.75425
-4.64498
-4.51989
-4.3758
-4.20498
-3.99053
-3.70164
-3.33605
-3.46437
-4.9144
-4.89893
-4.8681
-4.82211
-4.7612
-4.68546
-4.59471
-4.48803
-4.36308
-4.21489
-4.03352
-3.7994
-3.47092
-2.92633
-1.55394
-4.74787
-4.73342
-4.70459
-4.6615
-4.60421
-4.53263
-4.44625
-4.34376
-4.22242
-4.07704
-3.89869
-3.67382
-3.39028
-3.09143
-3.2671
-4.59138
-4.57791
-4.551
-4.51075
-4.45716
-4.39009
-4.30899
-4.21261
-4.09845
-3.9621
-3.79617
-3.58901
-3.32027
-2.927
-2.01693
-4.44427
-4.43172
-4.40669
-4.36926
-4.31948
-4.2573
-4.18235
-4.0938
-3.98992
-3.8677
-3.7223
-3.54696
-3.33675
-3.12145
-3.21986
-4.30587
-4.29423
-4.27101
-4.23636
-4.19044
-4.13337
-4.06518
-3.98564
-3.89413
-3.78941
-3.66922
-3.52916
-3.35676
-3.09801
-2.45
-4.17557
-4.16477
-4.14327
-4.11129
-4.06913
-4.01719
-3.9559
-3.88581
-3.80753
-3.72186
-3.62997
-3.53381
-3.43677
-3.34486
-3.27105
-4.05279
-4.04275
-4.02283
-3.9933
-3.95464
-3.90749
-3.85275
-3.79168
-3.72608
-3.65864
-3.59369
-3.53909
-3.51322
-3.57911
-4.04074
-3.93698
-3.92761
-3.90905
-3.88167
-3.84605
-3.80307
-3.75401
-3.70071
-3.6459
-3.59369
-3.55024
-3.52444
-3.52595
-3.53853
-3.30242
-3.82768
-3.81886
-3.80142
-3.77576
-3.74258
-3.70289
-3.65822
-3.61079
-3.56394
-3.52268
-3.49453
-3.49084
-3.531
-3.67063
-4.2285
-3.72452
-3.71611
-3.69949
-3.6751
-3.64364
-3.60619
-3.56434
-3.52047
-3.47811
-3.44259
-3.42184
-3.42679
-3.46699
-3.51228
-3.21441
-3.62721
-3.61907
-3.60297
-3.57935
-3.54887
-3.51255
-3.47189
-3.42911
-3.38753
-3.35224
-3.33131
-3.33827
-3.39946
-3.5922
-4.32083
-3.53557
-3.52755
-3.5117
-3.48837
-3.45816
-3.42192
-3.38092
-3.33693
-3.2926
-3.25193
-3.22143
-3.21211
-3.24059
-3.29994
-3.02828
-3.44949
-3.44149
-3.42562
-3.40218
-3.37163
-3.33462
-3.29203
-3.24501
-3.19512
-3.14456
-3.09685
-3.05971
-3.0603
-3.23753
-4.45184
-3.36899
-3.36089
-3.3448
-3.32094
-3.28961
-3.25121
-3.20622
-3.15508
-3.09813
-3.03524
-2.96493
-2.88111
-2.75735
-2.45492
-1.12332
-3.29412
-3.28586
-3.2694
-3.24489
-3.21249
-3.1724
-3.12468
-3.0692
-3.00527
-2.93107
-2.8424
-2.73026
-2.57848
-2.38697
-2.46525
-3.225
-3.21652
-3.1996
-3.17432
-3.14074
-3.09888
-3.04854
-2.9892
-2.91955
-2.83695
-2.73617
-2.60695
-2.42722
-2.13166
-1.38966
-3.16178
-3.15305
-3.13561
-3.10951
-3.07475
-3.03124
-2.97868
-2.91635
-2.84283
-2.75547
-2.64972
-2.51871
-2.35641
-2.18636
-2.27048
-3.10462
-3.09563
-3.07766
-3.05073
-3.01485
-2.9699
-2.9156
-2.85129
-2.77574
-2.68676
-2.58081
-2.45222
-2.29097
-2.06454
-1.56565
-3.05372
-3.04445
-3.02592
-2.99818
-2.96125
-2.91507
-2.85948
-2.79405
-2.71797
-2.62987
-2.52762
-2.40841
-2.27082
-2.13192
-2.15826
-3.00927
-2.9997
-2.9806
-2.95203
-2.91407
-2.86679
-2.8102
-2.7442
-2.66855
-2.5828
-2.48621
-2.37737
-2.25157
-2.08452
-1.72891
-2.97148
-2.96158
-2.94185
-2.91239
-2.87337
-2.82498
-2.76746
-2.70107
-2.62616
-2.54326
-2.45333
-2.35812
-2.26099
-2.16805
-2.09271
-2.94056
-2.9303
-2.90986
-2.87941
-2.83919
-2.78953
-2.73088
-2.66385
-2.58932
-2.50862
-2.4241
-2.34023
-2.26749
-2.23933
-2.40411
-2.91677
-2.90609
-2.88484
-2.85322
-2.81156
-2.76032
-2.70013
-2.63186
-2.55675
-2.47665
-2.39443
-2.3146
-2.24305
-2.17662
-2.01008
-2.90041
-2.88924
-2.86702
-2.83401
-2.79059
-2.73734
-2.675
-2.60463
-2.52767
-2.44616
-2.36312
-2.28323
-2.21506
-2.18341
-2.32011
-2.89181
-2.88006
-2.85671
-2.82203
-2.77647
-2.72066
-2.65546
-2.58198
-2.50174
-2.41674
-2.32962
-2.24374
-2.16172
-2.07326
-1.86307
-2.89138
-2.87895
-2.85426
-2.81761
-2.76947
-2.71052
-2.64166
-2.56404
-2.47914
-2.38878
-2.29527
-2.20157
-2.11285
-2.04765
-2.12193
-2.89957
-2.88637
-2.86013
-2.82117
-2.76998
-2.70727
-2.63395
-2.55117
-2.46032
-2.36303
-2.26105
-2.15593
-2.04768
-1.92515
-1.69433
-2.91694
-2.90286
-2.87484
-2.83322
-2.7785
-2.7114
-2.63282
-2.5439
-2.44599
-2.34055
-2.22901
-2.11249
-1.99242
-1.87784
-1.84433
-2.94411
-2.92902
-2.899
-2.85437
-2.79564
-2.7235
-2.63887
-2.54288
-2.43689
-2.32232
-2.20042
-2.07153
-1.93335
-1.7742
-1.53924
-2.98175
-2.96555
-2.93331
-2.88533
-2.82209
-2.74428
-2.6528
-2.54882
-2.43376
-2.30919
-2.17667
-2.03704
-1.88883
-1.72321
-1.5027
-3.03065
-3.01324
-2.97855
-2.92688
-2.85866
-2.77455
-2.67542
-2.56247
-2.43722
-2.3016
-2.15787
-2.00852
-1.85642
-1.71032
-1.63192
-3.09164
-3.07292
-3.0356
-2.97993
-2.90629
-2.81525
-2.70766
-2.58466
-2.44789
-2.29963
-2.14299
-1.98189
-1.81985
-1.65039
-1.38769
-3.16564
-3.14553
-3.10541
-3.04546
-2.96599
-2.86747
-2.75059
-2.61641
-2.46654
-2.3035
-2.13121
-1.95593
-1.78845
-1.65519
-1.67958
-3.2536
-3.23204
-3.18898
-3.12455
-3.03893
-2.93243
-2.80554
-2.65906
-2.49436
-2.31379
-2.12151
-1.92456
-1.73328
-1.5505
-1.26977
-3.35654
-3.33349
-3.28741
-3.21835
-3.12637
-3.01156
-2.8741
-2.71438
-2.53318
-2.33222
-2.11505
-1.88925
-1.6722
-1.51384
-1.61155
-3.47548
-3.45093
-3.40181
-3.32808
-3.22966
-3.10641
-2.95814
-2.78461
-2.58575
-2.3619
-2.1146
-1.84787
-1.57037
-1.29933
-1.07454
-3.61149
-3.58544
-3.5333
-3.45496
-3.3502
-3.21865
-3.0597
-2.87245
-2.65566
-2.40787
-2.12765
-1.81396
-1.46407
-1.0527
-0.381374
-3.76558
-3.73807
-3.683
-3.60019
-3.48935
-3.34992
-3.18093
-2.9808
-2.74712
-2.47636
-2.16395
-1.80519
-1.40048
-0.986569
-0.856327
-3.93878
-3.90986
-3.85195
-3.76489
-3.64837
-3.50172
-3.32378
-3.11247
-2.86432
-2.57377
-2.23244
-1.82834
-1.34328
-0.72344
0.39356
-4.13207
-4.10177
-4.04114
-3.95007
-3.8283
-3.67527
-3.48981
-3.26972
-3.01096
-2.70646
-2.34452
-1.90771
-1.37967
-0.805555
-0.719705
-4.34641
-4.31476
-4.25147
-4.15656
-4.02995
-3.87133
-3.67989
-3.45383
-3.18936
-2.87905
-2.5086
-2.05045
-1.44806
-0.54859
1.36557
-4.58273
-4.54972
-4.48377
-4.38507
-4.25382
-4.09018
-3.89403
-3.66461
-3.3996
-3.09342
-2.73357
-2.29336
-1.72276
-0.996268
-0.805878
-4.84199
-4.80754
-4.73882
-4.63619
-4.5002
-4.3316
-4.13128
-3.90011
-3.63843
-3.34506
-3.01436
-2.62681
-2.10571
-1.07165
2.74097
-5.12516
-5.08917
-5.01743
-4.91048
-4.76922
-4.59505
-4.38997
-4.15679
-3.89928
-3.62261
-3.33465
-3.05301
-2.84489
-3.07657
-6.07653
-5.43334
-5.39562
-5.32049
-5.2086
-5.06111
-4.87996
-4.66817
-4.43036
-4.17346
-3.908
-3.65054
-3.42815
-3.27867
-3.15906
-1.96528
-5.7677
-5.72807
-5.64909
-5.53143
-5.37638
-5.18615
-4.96445
-4.71718
-4.45357
-4.18783
-3.94208
-3.75268
-3.6917
-3.98749
-5.90729
-6.12959
-6.08784
-6.00454
-5.88024
-5.71608
-5.51421
-5.27848
-5.01536
-4.73518
-4.45379
-4.19448
-3.98801
-3.85699
-3.68814
-2.30017
-6.52048
-6.47647
-6.38848
-6.25674
-6.08195
-5.86577
-5.61155
-5.3254
-5.01761
-4.70442
-4.4102
-4.17096
-4.04854
-4.23539
-5.8866
-6.94194
-6.89563
-6.8028
-6.66314
-6.47658
-6.24375
-5.96678
-5.65047
-5.3038
-4.94187
-4.58773
-4.27277
-4.02533
-3.76572
-2.46223
-7.39555
-7.3471
-7.24963
-7.10212
-6.90335
-6.65238
-6.34934
-5.99662
-5.6006
-5.17391
-4.73806
-4.32771
-4.01057
-4.02096
-5.6193
-7.88282
-7.83262
-7.73123
-7.5767
-7.36636
-7.09718
-6.76641
-6.37284
-5.9187
-5.41232
-4.87067
-4.31792
-3.76835
-3.17345
-2.39965
-8.40494
-8.3537
-8.24972
-8.09003
-7.87025
-7.58474
-7.22708
-6.79113
-6.27309
-5.67522
-5.01099
-4.30593
-3.55762
-2.45017
1.35738
-8.96265
-8.9114
-8.8069
-8.64511
-8.41979
-8.1224
-7.74212
-7.26642
-6.68291
-5.98419
-5.17968
-4.32398
-3.59628
-3.60196
-6.95605
-9.55596
-9.50607
-9.40386
-9.24429
-9.01938
-8.71763
-8.32343
-7.81659
-7.17273
-6.36665
-5.3839
-4.25315
-3.12565
-2.42846
-2.88407
-10.1839
-10.1371
-10.0407
-9.88887
-9.67233
-9.37705
-8.98297
-8.46192
-7.77521
-6.8718
-5.6909
-4.18005
-2.35619
-0.45441
0.871519
-10.8444
-10.8025
-10.7159
-10.5784
-10.38
-10.1051
-9.73067
-9.22229
-8.52817
-7.56965
-6.22704
-4.32433
-1.64083
1.91954
5.54791
-11.534
-11.4991
-11.4265
-11.3103
-11.1407
-10.9023
-10.5714
-10.1116
-9.46474
-8.53424
-7.15213
-5.01083
-1.53442
4.24628
12.744
-12.2478
-12.2218
-12.1673
-12.0793
-11.9492
-11.7636
-11.5017
-11.131
-10.5982
-9.81244
-8.60445
-6.62449
-3.0282
4.68616
25.8414
-146.516
-88.0387
-61.5458
-48.8872
-42.1077
-38.0594
-35.4299
-33.6176
-32.3189
-31.3676
-30.6664
-30.1559
-29.7989
-29.5721
-29.4619
-182.257
-82.3804
-54.6706
-43.9881
-38.6299
-35.4476
-33.3541
-31.8877
-30.821
-30.0296
-29.4403
-29.008
-28.704
-28.5101
-28.4156
46.9765
-26.6062
-35.9708
-35.3915
-33.6411
-32.0798
-30.8428
-29.8802
-29.1318
-28.5512
-28.1053
-27.7711
-27.5325
-27.3789
-27.3037
-7.02433
-15.428
-24.1766
-27.6083
-28.5208
-28.4867
-28.1408
-27.724
-27.3261
-26.9792
-26.6928
-26.4677
-26.3021
-26.1934
-26.1396
25.9522
-4.01016
-16.0746
-21.5746
-24.058
-25.1102
-25.4881
-25.5546
-25.485
-25.3652
-25.2376
-25.1231
-25.0321
-24.9697
-24.938
-1.40559
-5.02147
-12.5312
-17.6357
-20.5889
-22.2021
-23.0517
-23.4797
-23.6789
-23.7567
-23.7733
-23.7621
-23.7424
-23.7246
-23.7145
11.4942
-3.3287
-10.6581
-15.1908
-18.0504
-19.8242
-20.908
-21.5636
-21.957
-22.1908
-22.3281
-22.4072
-22.4512
-22.4743
-22.484
-3.05887
-6.83971
-10.7273
-13.9077
-16.266
-17.9256
-19.0618
-19.8296
-20.3458
-20.692
-20.9234
-21.0765
-21.1747
-21.2331
-21.2603
-14.9863
-10.2766
-11.2875
-13.1956
-14.9667
-16.3903
-17.4714
-18.2704