/*--------------------------------*- C++ -*----------------------------------*\
| =========                 |                                                 |
| \\      /  F ield         | OpenFOAM: The Open Source CFD Toolbox           |
|  \\    /   O peration     | Version:  5.x                                   |
|   \\  /    A nd           | Web:      www.OpenFOAM.org                      |
|    \\/     M anipulation  |                                                 |
\*---------------------------------------------------------------------------*/
FoamFile
{
    version     2.0;
    format      ascii;
    class       volScalarField;
    location    "12";
    object      gradTy;
}
// * * * * * * * * * * * * * * * * * * * * * * * * * * * * * * * * * * * * * //

dimensions      [0 -1 0 1 0 0 0];

internalField   nonuniform List<scalar> 
6300
(
32284.1
32252.2
32220.2
32188
32155.6
32122.9
32089.7
32056.2
32022.2
31987.7
31952.6
31916.9
31880.6
31843.7
31806.2
0.0534092
0.159731
0.264526
0.366664
0.464854
0.557604
0.643201
0.71973
0.785137
0.837356
0.874496
0.895088
0.898376
0.884592
0.855147
0.089571
0.267922
0.443841
0.615507
0.780816
0.937301
1.08209
1.21191
1.32321
1.41233
1.47585
1.511
1.51621
1.49167
1.43971
0.126523
0.378545
0.627406
0.870702
1.1056
1.32869
1.53593
1.7226
1.88344
2.0129
2.10555
2.15682
2.16379
2.12614
2.04704
0.164497
0.492327
0.816535
1.13429
1.44217
1.73592
2.01032
2.2591
2.47505
2.65023
2.77661
2.84692
2.85593
2.80203
2.68877
0.203637
0.609727
1.01211
1.40776
1.79287
2.16249
2.5103
2.82843
3.10739
3.33635
3.50371
3.59827
3.61096
3.53724
3.37996
0.243958
0.730836
1.2144
1.69177
2.15904
2.61085
3.03996
3.43689
3.7897
4.08401
4.30356
4.43144
4.45233
4.35595
4.14181
0.285316
0.855255
1.42288
1.98587
2.54066
3.08188
3.60176
4.08946
4.53048
4.9064
5.19504
5.37155
5.41092
5.29237
5.0065
0.327365
0.98198
1.636
2.28816
2.93582
3.57424
4.19574
4.78865
5.33631
5.81602
6.19858
6.44874
6.52733
6.396
6.02587
0.369528
1.1093
1.85097
2.59494
3.34021
4.08351
4.81826
5.53308
6.21004
6.82274
7.33445
7.69737
7.85353
7.73825
7.28647
0.410974
1.23471
2.06362
2.90041
3.74654
4.60132
5.46069
6.31531
7.148
7.93036
8.61902
9.15256
9.45081
9.41642
8.93205
0.450628
1.35496
2.26839
3.19654
4.1442
5.11452
6.10783
7.11944
8.13625
9.13161
10.0585
10.8426
11.3797
11.5425
11.1801
0.487207
1.4661
2.45843
3.47317
4.51917
5.60472
6.73666
7.91835
9.14589
10.4012
11.6405
12.7789
13.6804
14.1877
14.2413
0.519309
1.56379
2.62605
3.71853
4.85457
6.04853
7.31571
8.67137
10.1278
11.6867
13.3229
14.9502
16.3697
17.2693
17.7256
0.545546
1.64371
2.76343
3.92034
5.13204
6.4191
7.80628
9.32367
11.007
12.8949
15.0138
17.327
19.5679
20.755
18.0905
31771.4
31739.3
31706.8
31674.1
31641
31607.6
31573.9
31540
31505.9
31471.6
31437.1
31402.4
31367.6
31332.7
31297.7
31262.6
31227.5
31192.4
31157.3
31122.2
31087.1
31052.1
31017.1
30982.2
30947.3
30912.4
30877.6
30842.9
30808.2
30773.5
30739
30704.5
30670.2
30635.9
30601.8
30567.7
30533.8
30499.9
30466.2
30432.6
30399
30365.6
30332.2
30298.9
30265.8
30232.7
30199.7
30166.8
30134.1
30101.5
30069
30036.6
30004.3
29972.1
29940
29908
29876.1
29844.3
29812.5
29780.9
29749.3
29717.9
29686.5
29655.3
29624.1
29593.1
29562.1
29531.3
29500.5
29469.8
29439.2
29408.6
29378.1
29347.7
29317.3
29287
29256.8
29226.6
29196.4
29166.3
29136.3
29106.3
29076.3
29046.3
29016.2
28986.1
28955.9
28925.7
28895.3
28864.9
0.816191
0.773971
0.727225
0.678164
0.628638
0.579887
0.532404
0.485964
0.439794
0.392868
0.344248
0.293412
0.240491
0.18637
0.132615
0.0812642
0.0344846
-0.00580114
-0.0382655
-0.0624234
-0.0787348
-0.0885472
-0.0938907
-0.0971628
-0.100756
-0.106685
-0.116277
-0.129975
-0.147283
-0.16688
-0.186867
-0.205128
-0.219716
-0.229209
-0.232961
-0.231217
-0.225058
-0.21622
-0.206796
-0.198888
-0.194251
-0.194006
-0.198451
-0.20701
-0.218343
-0.230576
-0.241641
-0.249645
-0.253201
-0.251665
-0.245238
-0.234922
-0.222338
-0.209449
-0.198224
-0.190307
-0.186741
-0.187786
-0.192879
-0.200726
-0.209533
-0.217318
-0.222266
-0.223038
-0.218999
-0.210314
-0.197898
-0.183244
-0.168155
-0.154417
-0.143477
-0.136174
-0.132557
-0.131838
-0.13248
-0.132418
-0.129368
-0.121188
-0.106219
-0.08356
-0.0532399
-0.016272
0.0254051
0.0690895
0.111564
0.149412
0.179371
0.198705
0.205539
0.199106
1.37118
1.29719
1.21576
1.13105
1.04654
0.964493
0.885706
0.809522
0.734193
0.65746
0.577244
0.4923
0.402692
0.309993
0.217168
0.128138
0.0471195
-0.0221315
-0.0770089
-0.116541
-0.141587
-0.154717
-0.159814
-0.161467
-0.164255
-0.172027
-0.18731
-0.210924
-0.24187
-0.277542
-0.314215
-0.34774
-0.37431
-0.391155
-0.397025
-0.392398
-0.379376
-0.361322
-0.342281
-0.326309
-0.316801
-0.315921
-0.324239
-0.340637
-0.362496
-0.386165
-0.407614
-0.423157
-0.430105
-0.427225
-0.414923
-0.395154
-0.371065
-0.346455
-0.325135
-0.310287
-0.303926
-0.306563
-0.317103
-0.333031
-0.350853
-0.366713
-0.377082
-0.379377
-0.372388
-0.356459
-0.333394
-0.306111
-0.278127
-0.252932
-0.233371
-0.221122
-0.216347
-0.217591
-0.221947
-0.22547
-0.223789
-0.212789
-0.18927
-0.151455
-0.0993037
-0.0346003
0.0391661
0.117098
0.193332
0.261602
0.315888
0.351095
0.363705
0.352266
1.94297
1.8311
1.70899
1.58363
1.46086
1.34438
1.23524
1.13183
1.0306
0.927054
0.81704
0.6979
0.569338
0.433796
0.296255
0.163476
0.0428113
-0.0591569
-0.137846
-0.191517
-0.221595
-0.232449
-0.230691
-0.224135
-0.220571
-0.226547
-0.246346
-0.28131
-0.329646
-0.386759
-0.446094
-0.500363
-0.542905
-0.5689
-0.576201
-0.565662
-0.54094
-0.507841
-0.47334
-0.44442
-0.426925
-0.424585
-0.43839
-0.466395
-0.504039
-0.544949
-0.582087
-0.60904
-0.62116
-0.616348
-0.595358
-0.561603
-0.520538
-0.478722
-0.442725
-0.418039
-0.408153
-0.413958
-0.433565
-0.462608
-0.494995
-0.52401
-0.543524
-0.549083
-0.538647
-0.51288
-0.47496
-0.429986
-0.38408
-0.34333
-0.312735
-0.295306
-0.291468
-0.298863
-0.31261
-0.326017
-0.331628
-0.322417
-0.292905
-0.239993
-0.163442
-0.0659785
0.04693
0.16755
0.286567
0.393932
0.479877
0.536024
0.556503
0.538846
2.53956
2.37971
2.20686
2.03244
1.86608
1.71369
1.57648
1.45099
1.33032
1.20595
1.06997
0.91706
0.746032
0.560475
0.368484
0.18137
0.011581
-0.129703
-0.234707
-0.300463
-0.329284
-0.32834
-0.308476
-0.282494
-0.26315
-0.261164
-0.283542
-0.33244
-0.404786
-0.492776
-0.585267
-0.669873
-0.73533
-0.773565
-0.781067
-0.759351
-0.714565
-0.65638
-0.596363
-0.546081
-0.515223
-0.510003
-0.532094
-0.578271
-0.640881
-0.709164
-0.771227
-0.816283
-0.836596
-0.828769
-0.794174
-0.73858
-0.671091
-0.602607
-0.544029
-0.504478
-0.489784
-0.501476
-0.536441
-0.587367
-0.643994
-0.694989
-0.730062
-0.741819
-0.726982
-0.686799
-0.626683
-0.555202
-0.482608
-0.419106
-0.37314
-0.349919
-0.350414
-0.370986
-0.403761
-0.437789
-0.460808
-0.461281
-0.430235
-0.362569
-0.257695
-0.119597
0.0435894
0.220314
0.396579
0.557109
0.686775
0.772317
0.804216
0.778348
3.17096
2.94701
2.70692
2.4696
2.25114
2.06112
1.90078
1.76319
1.63534
1.50156
1.34724
1.1623
0.943642
0.696415
0.433687
0.174314
-0.060695
-0.252491
-0.388085
-0.462594
-0.479834
-0.451476
-0.395071
-0.331294
-0.280731
-0.260697
-0.28255
-0.349806
-0.4574
-0.592311
-0.735794
-0.866961
-0.966953
-1.02249
-1.02801
-0.986262
-0.907487
-0.807558
-0.705366
-0.619774
-0.566605
-0.556093
-0.591116
-0.666485
-0.769556
-0.882333
-0.98486
-1.05916
-1.09256
-1.07973
-1.02323
-0.932687
-0.823078
-0.712227
-0.617935
-0.555123
-0.533419
-0.555483
-0.616333
-0.703915
-0.801101
-0.888895
-0.950172
-0.972851
-0.951816
-0.889422
-0.794769
-0.682022
-0.568041
-0.46963
-0.40079
-0.370379
-0.380449
-0.425534
-0.49311
-0.565414
-0.622452
-0.645529
-0.6203
-0.538722
-0.39979
-0.209342
0.0207543
0.27374
0.52925
0.764729
0.957214
1.08586
1.13511
1.09791
3.85118
3.5375
3.2029
2.87957
2.59518
2.36577
2.19231
2.06132
1.94888
1.8267
1.66861
1.45609
1.18238
0.854672
0.494058
0.132172
-0.195197
-0.456211
-0.629423
-0.707191
-0.696046
-0.614996
-0.492281
-0.361066
-0.254348
-0.199916
-0.216175
-0.309088
-0.470676
-0.679504
-0.904059
-1.10894
-1.2626
-1.34343
-1.34302
-1.26649
-1.13087
-0.961998
-0.790468
-0.64678
-0.556561
-0.536615
-0.592039
-0.714808
-0.884253
-1.07026
-1.23915
-1.36092
-1.41507
-1.3936
-1.3013
-1.15425
-0.976851
-0.798003
-0.646511
-0.54657
-0.514026
-0.553637
-0.657728
-0.806635
-0.971733
-1.12098
-1.22586
-1.26683
-1.23621
-1.1385
-0.988911
-0.810618
-0.631053
-0.477571
-0.373103
-0.332545
-0.360062
-0.447696
-0.575646
-0.715022
-0.833
-0.899337
-0.891508
-0.797463
-0.616065
-0.356182
-0.0350407
0.323533
0.690766
1.03426
1.31959
1.51371
1.59052
1.53721
4.60258
4.15805
3.68259
3.23341
2.85997
2.58981
2.42263
2.33269
2.2764
2.20352
2.06835
1.838
1.49884
1.06031
0.556257
0.0403222
-0.425248
-0.786364
-1.0082
-1.07982
-1.01292
-0.838514
-0.601733
-0.35556
-0.152673
-0.0373412
-0.0394183
-0.16948
-0.415928
-0.744052
-1.10065
-1.42469
-1.66311
-1.78135
-1.76765
-1.63183
-1.40213
-1.12027
-0.83548
-0.596792
-0.445323
-0.408606
-0.495988
-0.69592
-0.975097
-1.28286
-1.56127
-1.76006
-1.84649
-1.80945
-1.65823
-1.41951
-1.13271
-0.844387
-0.600852
-0.440966
-0.390731
-0.45894
-0.634588
-0.886039
-1.16518
-1.41697
-1.59359
-1.66389
-1.61721
-1.46227
-1.22439
-0.941042
-0.656506
-0.414929
-0.253384
-0.19668
-0.253107
-0.411799
-0.641731
-0.895439
-1.11791
-1.25994
-1.28687
-1.18199
-0.945359
-0.591231
-0.144737
0.360856
0.886466
1.38755
1.81331
2.11047
2.23332
2.1569
5.46528
4.82311
4.1244
3.47811
2.97591
2.66551
2.54169
2.55558
2.62778
2.67004
2.60511
2.37656
1.95841
1.36029
0.635559
-0.124054
-0.805716
-1.31708
-1.60329
-1.65192
-1.48459
-1.15185
-0.724706
-0.287725
0.0750822
0.294302
0.321635
0.137723
-0.243568
-0.76759
-1.34415
-1.86372
-2.23669
-2.40927
-2.36814
-2.13234
-1.74851
-1.28275
-0.814114
-0.421208
-0.168847
-0.101895
-0.237866
-0.562919
-1.02477
-1.53774
-1.99806
-2.32098
-2.45572
-2.38974
-2.14114
-1.75399
-1.29079
-0.826271
-0.434737
-0.177464
-0.096877
-0.209532
-0.50229
-0.925565
-1.39803
-1.82118
-2.11443
-2.22942
-2.15408
-1.90546
-1.52536
-1.07317
-0.620096
-0.237039
0.0173076
0.102094
0.0011129
-0.273317
-0.673576
-1.12084
-1.51865
-1.78631
-1.87202
-1.75624
-1.44385
-0.959286
-0.339536
0.369355
1.11748
1.84933
2.4922
2.95825
3.16306
3.05409
6.51869
5.56974
4.49085
3.51528
2.81545
2.47244
2.4624
2.69446
3.02227
3.29086
3.37747
3.1881
2.67715
1.84255
0.765093
-0.400683
-1.43141
-2.17204
-2.54047
-2.535
-2.19447
-1.60114
-0.861838
-0.11308
0.509602
0.90226
0.986881
0.729149
0.134325
-0.71548
-1.6697
-2.51387
-3.09883
-3.34495
-3.24893
-2.84605
-2.21288
-1.44936
-0.683703
-0.0432436
0.374615
0.497023
0.292532
-0.232927
-1.00085
-1.86841
-2.63271
-3.15289
-3.35396
-3.23302
-2.82355
-2.19798
-1.45075
-0.703064
-0.0752868
0.340466
0.475246
0.299227
-0.182049
-0.894252
-1.70191
-2.41243
-2.89196
-3.069
-2.9405
-2.53799
-1.93011
-1.20659
-0.482854
0.126195
0.532167
0.668375
0.505101
0.0463585
-0.637737
-1.41743
-2.10681
-2.57467
-2.74732
-2.61361
-2.19027
-1.52201
-0.662694
0.321358
1.37192
2.43927
3.42568
4.18223
4.54466
4.39344
7.93266
6.50369
4.70947
3.15613
2.14078
1.79951
2.03438
2.69543
3.50204
4.1737
4.54723
4.46271
3.86193
2.67453
1.0218
-0.87179
-2.47485
-3.56296
-4.01607
-3.90058
-3.26836
-2.26065
-1.01258
0.243113
1.27536
1.95379
2.14511
1.80599
0.879389
-0.513007
-2.15374
-3.53728
-4.44891
-4.7733
-4.57159
-3.89137
-2.86495
-1.61904
-0.373018
0.655264
1.34352
1.56668
1.28512
0.446218
-0.833473
-2.34777
-3.61888
-4.44434
-4.71589
-4.49177
-3.81717
-2.81715
-1.61138
-0.407186
0.589479
1.263
1.49492
1.24756
0.470728
-0.725488
-2.14564
-3.33632
-4.10507
-4.34855
-4.1215
-3.46627
-2.50136
-1.34033
-0.180459
0.781862
1.43549
1.66591
1.43457
0.690544
-0.464227
-1.84409
-3.01397
-3.78811
-4.06379
-3.88803
-3.28937
-2.35985
-1.16547
0.177595
1.60218
3.14574
4.69018
5.97376
6.6659
6.47647
10.0907
7.9608
4.58333
2.02708
0.496178
0.296374
0.992241
2.48664
4.17603
5.48579
6.37656
6.48073
5.89142
4.17657
1.62533
-1.76126
-4.25981
-5.86831
-6.31045
-6.01026
-4.88295
-3.26629
-1.1743
0.92107
2.5506
3.70677
4.06718
3.72878
2.2952
0.0470712
-3.00816
-5.24023
-6.6446
-6.95926
-6.58332
-5.43522
-3.8331
-1.78888
0.251208
1.8434
2.98219
3.3631
3.08028
1.7601
-0.328259
-3.17733
-5.24679
-6.53341
-6.79161
-6.3992
-5.27938
-3.73262
-1.76972
0.18753
1.71958
2.82142
3.20477
2.95832
1.72742
-0.23425
-2.91983
-4.86779
-6.07456
-6.30567
-5.91905
-4.8405
-3.35501
-1.4724
0.406413
1.88205
2.94823
3.3284
3.10228
1.92621
0.0334164
-2.57312
-4.49101
-5.71933
-6.03031
-5.77146
-4.86489
-3.5791
-1.88236
-0.0835476
1.6611
3.85096
6.3303
8.61695
10.0566
9.91874
13.8636
11.1854
3.26359
-0.564098
-3.05719
-2.49444
-1.19937
1.9971
5.39668
7.40122
9.33856
9.49733
9.54168
6.88299
3.43176
-3.92952
-7.32646
-9.85319
-9.6738
-9.31098
-7.20221
-4.9564
-1.34089
2.26984
4.50746
6.60563
6.99554
7.22863
4.88396
1.76937
-5.04793
-8.13506
-10.4095
-10.1397
-9.70695
-7.63285
-5.43788
-1.95277
1.5204
3.68443
5.71218
6.11531
6.36926
4.18013
1.27238
-5.12951
-8.00201
-10.1034
-9.80422
-9.3541
-7.35637
-5.24731
-1.91996
1.39455
3.46916
5.41449
5.82152
6.08669
4.03644
1.29942
-4.75621
-7.46655
-9.44899
-9.15235
-8.71296
-6.80073
-4.78052
-1.59901
1.57386
3.57188
5.44881
5.86393
6.13795
4.19396
1.55884
-4.29377
-6.96104
-8.97151
-8.8174
-8.58758
-6.98649
-5.39011
-2.74622
-0.266702
1.07895
4.13931
8.24793
12.4798
15.719
16.1896
20.8928
21.7854
-4.11068
-5.10393
-11.009
-6.33861
-6.12864
1.21521
8.62622
9.41338
14.8617
12.6786
17.0843
10.7306
10.8686
-11.8064
-11.6462
-17.7349
-13.3013
-15.1259
-9.71883
-8.61888
-1.50058
5.59588
6.66514
11.9644
10.1497
14.4405
8.58141
8.82356
-12.4591
-12.2002
-17.8379
-13.5549
-15.1941
-10.0045
-8.90045
-2.09948
4.67474
5.72173
10.7816
9.08233
13.1762
7.63498
7.90457
-12.164
-11.8676
-17.1302
-13.0342
-14.5375
-9.59371
-8.51633
-2.05169
4.38701
5.40493
10.2227
8.64256
12.5492
7.33443
7.61188
-11.4098
-11.1135
-16.1053
-12.2046
-13.6277
-8.91645
-7.87831
-1.71315
4.43309
5.43606
10.0544
8.60266
12.3675
7.45694
7.71747
-10.6013
-10.3769
-15.3407
-11.7135
-13.3783
-9.10133
-8.7095
-3.37341
1.18292
-1.9724
2.91816
9.98808
17.7721
25.368
29.6184
30.5509
70.9404
-47.3639
-2.58863
-34.1963
-3.76123
-21.331
0.336596
21.3941
4.71351
31.3741
6.37221
40.1205
5.23031
51.1563
-52.566
-6.96768
-40.7687
-7.91695
-31.3543
-6.03321
-20.9478
-1.62882
17.6011
2.73169
27.5671
4.51219
36.268
3.49314
46.8736
-50.8902
-7.7743
-39.5522
-8.44197
-30.5148
-6.49305
-20.5665
-2.20761
16.0763
1.9805
25.5842
3.7072
33.8579
2.72224
43.8237
-48.524
-7.72849
-37.6331
-8.20121
-29.0048
-6.26335
-19.543
-2.14605
15.1854
1.86897
24.2438
3.56263
32.1468
2.72355
41.7151
-45.8814
-7.14548
-35.5669
-7.59036
-27.3762
-5.74282
-18.359
-1.80003
14.6986
2.09414
23.4009
3.82944
31.0899
3.27348
40.6303
-43.6112
-6.32164
-34.0808
-6.98912
-26.7253
-5.62153
-19.1486
-2.87775
13.7373
-16.6098
-1.44126
10.6999
23.3354
39.8343
66.3793
28831.3
28794.5
28757.6
28720.7
28683.7
28646.8
28609.9
28573.1
28536.4
28499.8
28463.3
28426.9
28390.6
28354.3
28318.1
0.177931
0.138929
0.0887272
0.0330743
-0.0221789
-0.0718774
-0.112073
-0.140233
-0.155199
-0.156998
-0.146579
-0.125549
-0.0959548
-0.0601064
-0.0204597
0.314154
0.243956
0.15393
0.0547026
-0.0430953
-0.130305
-0.200113
-0.248338
-0.273262
-0.275216
-0.256069
-0.218754
-0.166868
-0.104395
-0.0355129
0.478998
0.368812
0.228333
0.0749018
-0.0746003
-0.206133
-0.309736
-0.379742
-0.414295
-0.414533
-0.38373
-0.326528
-0.248368
-0.155092
-0.0527101
0.68874
0.523959
0.31569
0.0911721
-0.124075
-0.309889
-0.452955
-0.546601
-0.589641
-0.584893
-0.537787
-0.455261
-0.344986
-0.214894
-0.0729458
0.965509
0.722595
0.419296
0.0981717
-0.202982
-0.456394
-0.645594
-0.764066
-0.812776
-0.79761
-0.727265
-0.611743
-0.461419
-0.286552
-0.0971251
1.34076
0.981616
0.540728
0.0852013
-0.329631
-0.667111
-0.908959
-1.05129
-1.09979
-1.06551
-0.96192
-0.803027
-0.602393
-0.372772
-0.126127
1.86085
1.32238
0.6768
0.0315364
-0.533631
-0.973458
-1.27184
-1.43236
-1.46957
-1.40271
-1.25188
-1.03605
-0.772355
-0.476015
-0.160739
2.59646
1.77026
0.812553
-0.102224
-0.862971
-1.42125
-1.77258
-1.93673
-1.94342
-1.82389
-1.60683
-1.31695
-0.974958
-0.598194
-0.201552
3.65902
2.34965
0.905377
-0.390013
-1.39478
-2.07599
-2.4605
-2.59857
-2.54349
-2.34259
-2.0346
-1.64997
-1.21233
-0.740252
-0.248828
5.22978
3.06395
0.849317
-0.968425
-2.25014
-3.02743
-3.39486
-3.45355
-3.28938
-2.96839
-2.53902
-2.03598
-1.48415
-0.901653
-0.302336
7.60633
3.82704
0.39637
-2.08286
-3.60993
-4.38872
-4.63797
-4.5314
-4.19207
-3.70258
-3.11709
-2.47079
-1.78663
-1.07988
-0.3612
11.2396
4.24151
-1.00801
-4.14946
-5.71799
-6.27957
-6.23688
-5.84203
-5.24491
-4.53277
-3.75598
-2.94345
-2.11169
-1.27003
-0.423784
16.4707
2.90745
-4.52046
-7.78899
-8.83299
-8.77469
-8.18794
-7.35492
-6.41277
-5.42763
-4.4306
-3.43535
-2.44665
-1.46477
-0.48769
20.9223
-4.562
-12.1923
-13.653
-13.0503
-11.7983
-10.3853
-8.97693
-7.62363
-6.33435
-5.10346
-3.92069
-2.77479
-1.65472
-0.549893
0.563699
1.69897
2.85836
4.05969
5.32366
6.67563
8.14814
9.78475
11.6456
13.8154
16.4111
19.5724
23.336
26.8535
23.9557
0.574204
1.73084
2.91274
4.13871
5.43096
6.81726
8.33446
10.0343
11.9935
14.3342
17.2662
21.193
27.0211
37.2362
60.2795
0.578995
1.74518
2.9365
4.17171
5.47295
6.868
8.39399
10.1036
12.0765
14.4426
17.432
21.4996
27.6737
38.6725
62.8777
0.578098
1.74206
2.92979
4.15887
5.44979
6.82782
8.32603
9.99004
11.8865
14.118
16.8495
20.3495
25.0124
31.0679
36.013
0.571812
1.72243
2.89437
4.1031
5.36614
6.70421
8.14293
9.71509
11.4638
13.4458
15.7322
18.3903
21.3987
24.367
26.0639
0.560673
1.68799
2.8334
4.00963
5.23038
6.51072
7.86719
9.31758
10.879
12.5623
14.3558
16.1834
17.8018
18.5679
16.9342
0.545392
1.64098
2.75103
3.88524
5.05327
6.26436
7.52626
8.84298
10.2098
11.6025
12.956
14.1211
14.7907
14.4332
12.6397
0.526773
1.58394
2.65189
3.73737
4.84628
5.98273
7.14727
8.33363
9.52247
10.67
11.6874
12.4031
12.4916
11.2953
7.10526
0.505636
1.51943
2.54058
3.57323
4.62017
5.68159
6.75316
7.82258
8.86386
9.82799
10.6284
11.1211
11.0843
10.2366
8.52951
0.482751
1.44981
2.42127
3.39919
4.38401
5.37343
6.36057
7.33108
8.25884
9.09963
9.78324
10.2068
10.2401
9.77455
8.88399
0.458787
1.37712
2.29749
3.22036
4.14466
5.06687
5.97953
6.86931
7.71425
8.48044
9.11865
9.5636
9.74238
9.60772
9.22804
0.434294
1.30303
2.17198
3.04052
3.90678
4.76694
5.61439
6.43867
7.22438
7.95015
8.5883
9.10527
9.46236
9.61108
9.4655
0.4097
1.22879
2.04676
2.86228
3.67314
4.47585
5.26535
6.03484
6.77614
7.48074
8.1421
8.75801
9.32705
9.81883
10.0887
0.385324
1.15532
1.92323
2.68728
3.44516
4.19394
4.9302
5.6506
6.35339
7.04136
7.72749
8.44332
9.24542
10.1807
10.9769
0.361402
1.08329
1.80238
2.51656
3.2235
3.92073
4.60606
5.2786
5.94092
6.60329
7.29225
8.06874
9.07132
10.6391
13.7289
0.338114
1.01322
1.68493
2.35086
3.00859
3.65579
4.2908
4.91371
5.52842
6.14674
6.79623
7.53714
8.50472
10.0407
13.1989
0.315603
0.945508
1.57149
2.19087
2.80097
3.3993
3.98396
4.5545
5.11342
5.66854
6.23674
6.84813
7.54342
8.3156
8.69805
0.293993
0.880517
1.46263
2.03732
2.60154
3.1523
3.6869
4.20337
4.70105
5.18126
5.64724
6.10087
6.52872
6.86119
6.92025
0.2734
0.81859
1.35892
1.89103
2.41145
2.91651
3.40243
3.86528
4.30081
4.70386
5.06631
5.37149
5.58026
5.59663
5.17174
0.253923
0.760037
1.26091
1.75287
2.23201
2.69401
3.13399
3.54615
3.92312
4.25466
4.52513
4.70908
4.76538
4.63851
4.32066
0.235648
0.705124
1.16908
1.62361
2.06446
2.48679
2.88485
3.25144
3.57696
3.84785
4.04403
4.13529
4.07771
3.81301
3.25929
0.218636
0.654044
1.08379
1.50385
1.90977
2.29642
2.65757
2.98525
3.26874
3.49292
3.63577
3.66486
3.53386
3.1882
2.64739
0.202917
0.606894
1.00523
1.3939
1.76846
2.12376
2.45352
2.74974
3.0017
3.19447
3.30651
3.30558
3.13908
2.6989
1.64407
0.188486
0.563661
0.933373
1.29375
1.64053
1.96882
2.27276
2.54496
2.77576
2.95207
3.0557
3.06128
2.93435
2.63644
2.19167
0.175305
0.52422
0.867998
1.20304
1.52543
1.8308
2.11403
2.36892
2.58767
2.76013
2.87297
2.909
2.84833
2.67597
2.40233
0.1633
0.488344
0.808692
1.1211
1.42215
1.70814
1.97497
2.21798
2.43171
2.60958
2.74356
2.82388
2.83988
2.78581
2.68746
0.152374
0.45573
0.754899
1.04705
1.32932
1.59878
1.85245
2.08738
2.30065
2.48952
2.65142
2.78341
2.88008
2.9264
2.87507
0.142415
0.426023
0.705974
0.979871
1.24539
1.50037
1.74296
1.97181
2.18652
2.38819
2.58003
2.76748
2.95525
3.13479
3.25841
0.133304
0.398854
0.661254
0.918503
1.16878
1.41058
1.64299
1.86605
2.08145
2.29368
2.51169
2.75132
3.03612
3.38202
3.6763
0.124929
0.373873
0.620111
0.861977
1.09804
1.32731
1.54951
1.7656
1.9786
2.19514
2.42833
2.70379
3.07455
3.66511
4.82764
0.117189
0.35077
0.582005
0.809476
1.03203
1.24895
1.46029
1.66729
1.87328
2.08505
2.31561
2.59007
2.96036
3.55098
4.73111
0.110001
0.329297
0.54651
0.760391
0.969921
1.17448
1.37406
1.56969
1.76395
1.96189
2.17241
2.40979
2.69317
3.02746
3.26488
0.103304
0.309269
0.513331
0.714327
0.911269
1.10345
1.29059
1.47304
1.65205
1.83001
2.01056
2.19757
2.39061
2.57121
2.68415
0.0970548
0.290562
0.48228
0.671078
0.855922
1.03592
1.21037
1.37879
1.54087
1.69634
1.84423
1.98116
2.0967
2.16193
2.09589
0.0912235
0.273097
0.453257
0.630574
0.80394
0.972246
1.13434
1.28892
1.4343
1.56792
1.68551
1.77959
1.83774
1.84382
1.80172
0.0857905
0.256823
0.426207
0.592815
0.755472
0.912885
1.06353
1.20545
1.33589
1.45064
1.54311
1.60297
1.61493
1.55918
1.40973
0.0807379
0.241695
0.401083
0.557801
0.710646
0.858221
0.99878
1.12996
1.24836
1.34883
1.42337
1.45962
1.43915
1.33959
1.17106
0.0760454
0.227657
0.377814
0.525477
0.66948
0.808431
0.94054
1.06335
1.1733
1.26502
1.33022
1.35566
1.31829
1.16791
0.740969
0.0716854
0.21463
0.356277
0.495694
0.631824
0.763393
0.888759
1.00567
1.11089
1.19962
1.26468
1.2953
1.27593
1.18828
1.04352
0.0676214
0.202504
0.336289
0.468193
0.597335
0.722664
0.84285
0.956108
1.05992
1.15067
1.22307
1.26967
1.28098
1.24832
1.17115
0.0638079
0.191139
0.317608
0.442612
0.565494
0.685506
0.801755
0.913104
1.01804
1.11446
1.19937
1.26854
1.31655
1.33929
1.34806
0.060192
0.180373
0.299946
0.418505
0.535645
0.650964
0.764063
0.874555
0.982071
1.08625
1.1866
1.2821
1.36968
1.43995
1.46381
0.056717
0.17003
0.282988
0.395383
0.507063
0.617964
0.728181
0.838073
0.948424
1.06069
1.17721
1.30118
1.43483
1.57285
1.68963
0.0533262
0.159933
0.26642
0.37276
0.479021
0.585439
0.692528
0.801274
0.913453
1.03216
1.16266
1.31352
1.49694
1.72052
1.92254
0.0499668
0.149921
0.249955
0.350191
0.450872
0.552449
0.655724
0.762091
0.873948
0.995452
1.13398
1.30325
1.53118
1.88315
2.54521
0.0465935
0.139853
0.23335
0.327314
0.422102
0.518281
0.616776
0.719098
0.827745
0.946924
1.08394
1.25226
1.47928
1.83044
2.49995
0.04317
0.12962
0.21642
0.303867
0.392366
0.482506
0.575171
0.671713
0.774232
0.886008
1.01217
1.16051
1.34117
1.55666
1.72907
0.0396698
0.119145
0.199043
0.279689
0.36149
0.444978
0.530874
0.62018
0.714291
0.815104
0.925007
1.04632
1.17887
1.31281
1.4196
0.0360752
0.108378
0.181145
0.25471
0.329445
0.405779
0.484211
0.565312
0.649697
0.737888
0.829921
0.924331
1.0156
1.08783
1.09614
0.032375
0.0972886
0.162693
0.228918
0.296291
0.365126
0.435695
0.508165
0.582463
0.658005
0.733188
0.804526
0.865551
0.907234
0.930886
0.0285614
0.0858585
0.143673
0.202331
0.262123
0.323268
0.385859
0.449751
0.514368
0.578374
0.639128
0.691886
0.72894
0.739165
0.704968
0.0246269
0.0740692
0.124067
0.174957
0.227015
0.280408
0.335123
0.390834
0.446698
0.501005
0.550621
0.590154
0.610962
0.601949
0.567606
0.0205617
0.0618944
0.103842
0.146773
0.19098
0.236632
0.283695
0.331813
0.380111
0.426894
0.46912
0.501427
0.513696
0.482324
0.32792
0.0163514
0.0492926
0.0829359
0.117704
0.153943
0.191877
0.231537
0.272667
0.31458
0.355949
0.39451
0.426618
0.446737
0.448142
0.436453
0.0119757
0.0362035
0.0612488
0.0876136
0.115731
0.145925
0.17836
0.21298
0.249427
0.286957
0.324384
0.360137
0.392778
0.423055
0.459891
0.00740796
0.0225472
0.0386458
0.0563071
0.0760772
0.0984163
0.123668
0.152027
0.183523
0.218039
0.255424
0.295819
0.340462
0.393417
0.464486
0.00261586
0.00822501
0.0149582
0.023537
0.0346406
0.0488869
0.0668183
0.0888961
0.115524
0.147131
0.184374
0.228554
0.282376
0.351202
0.445288
-0.00243821
-0.00687742
-0.0100106
-0.0109855
-0.00897754
-0.0032001
0.00709118
0.0226077
0.0440693
0.0723116
0.108511
0.154597
0.213874
0.291448
0.391615
-0.00779576
-0.0228865
-0.0364776
-0.0475785
-0.0552123
-0.0584205
-0.056263
-0.0478076
-0.032092
-0.00803115
0.0257835
0.0714817
0.13267
0.216008
0.336443
-0.013501
-0.0399366
-0.0646733
-0.0865784
-0.104519
-0.117366
-0.123989
-0.123263
-0.114047
-0.0951449
-0.0651932
-0.022387
0.0360866
0.114809
0.21722
-0.0195993
-0.0581662
-0.094835
-0.12833
-0.157363
-0.180631
-0.196818
-0.204612
-0.202725
-0.18993
-0.165094
-0.127132
-0.0745543
-0.00283359
0.110998
-0.0261361
-0.0777135
-0.1272
-0.17318
-0.21421
-0.248811
-0.275474
-0.292682
-0.298976
-0.293074
-0.274106
-0.242025
-0.198485
-0.149715
-0.121819
-0.0331554
-0.0987126
-0.161999
-0.221467
-0.275521
-0.322504
-0.360693
-0.38833
-0.403694
-0.405291
-0.392222
-0.364873
-0.326042
-0.282097
-0.238658
-0.0406979
-0.121288
-0.199449
-0.273512
-0.341741
-0.402301
-0.45324
-0.492499
-0.51797
-0.527689
-0.520251
-0.495691
-0.457148
-0.414122
-0.390999
-0.0487997
-0.145551
-0.239743
-0.329608
-0.413286
-0.488777
-0.553897
-0.60624
-0.643185
-0.661998
-0.66017
-0.636216
-0.591365
-0.532323
-0.471504
-0.0574898
-0.171592
-0.283042
-0.390001
-0.490516
-0.582455
-0.663425
-0.730673
-0.780988
-0.81064
-0.81545
-0.791251
-0.735432
-0.651755
-0.565807
-0.0667892
-0.199474
-0.329458
-0.454867
-0.5737
-0.683749
-0.78248
-0.866862
-0.93314
-0.976532
-0.990872
-0.968243
-0.898843
-0.772761
-0.597435
-0.0767089
-0.229232
-0.379052
-0.524299
-0.662983
-0.792903
-0.911498
-1.01562
-1.10118
-1.1626
-1.19196
-1.17771
-1.10161
-0.927961
-0.548246
-0.0872499
-0.260866
-0.43182
-0.598287
-0.758352
-0.909919
-1.05056
-1.17727
-1.28599
-1.37091
-1.42334
-1.43013
-1.37213
-1.22626
-0.996817
-0.0984042
-0.29435
-0.487703
-0.676722
-0.859621
-1.03452
-1.19931
-1.35141
-1.48733
-1.6018
-1.68641
-1.72754
-1.70367
-1.58258
-1.30856
-0.110158
-0.329633
-0.546597
-0.759404
-0.966446
-1.16614
-1.35686
-1.53679
-1.70356
-1.8534
-1.97968
-2.07009
-2.10271
-2.04512
-1.88549
-0.122495
-0.36666
-0.608376
-0.84609
-1.07838
-1.30398
-1.5219
-1.73132
-1.93153
-2.12137
-2.29787
-2.45276
-2.5644
-2.5785
-2.35458
-0.135403
-0.405386
-0.672933
-0.936546
-1.19494
-1.44717
-1.69283
-1.93224
-2.1667
-2.39861
-2.63105
-2.86547
-3.09382
-3.27718
-3.32267
-0.148884
-0.445805
-0.740223
-1.03063
-1.31578
-1.59493
-1.86811
-2.1366
-2.40364
-2.67548
-2.96284
-3.2824
-3.65448
-4.07159
-4.28214
-0.162955
-0.487961
-0.810299
-1.12835
-1.44079
-1.74683
-2.04664
-2.34196
-2.63725
-2.94158
-3.27227
-3.66287
-4.18386
-5.00943
-6.68022
-0.177652
-0.531969
-0.883353
-1.22997
-1.57024
-1.90307
-2.22827
-2.54733
-2.86458
-3.18936
-3.54011
-3.95277
-4.50172
-5.36032
-7.00661
-0.193035
-0.578012
-0.959715
-1.336
-1.70486
-2.06459
-2.41419
-2.75397
-3.08666
-3.41912
-3.76493
-4.14803
-4.60453
-5.16421
-5.69765
-0.209178
-0.62633
-1.03984
-1.44719
-1.84581
-2.23315
-2.60691
-2.96553
-3.30892
-3.63959
-3.96387
-4.29232
-4.6357
-4.9863
-5.2706
-0.226158
-0.677177
-1.12423
-1.56445
-1.99461
-2.41114
-2.81015
-3.18765
-3.54001
-3.8645
-4.15991
-4.42624
-4.66185
-4.85445
-4.95932
-0.244037
-0.730776
-1.21338
-1.68868
-2.15286
-2.60129
-3.02832
-3.42725
-3.79044
-4.1096
-4.37614
-4.5815
-4.71785
-4.78351
-4.81095
-0.262843
-0.787244
-1.30761
-1.82063
-2.32206
-2.8063
-3.266
-3.69166
-4.07146
-4.39124
-4.63485
-4.78468
-4.82296
-4.73911
-4.56564
-0.282541
-0.846515
-1.40693
-1.96063
-2.5032
-3.02837
-3.52731
-3.98791
-4.39415
-4.72579
-4.95869
-5.06532
-5.01287
-4.75694
-4.30214
-0.303009
-0.908256
-1.51092
-2.10836
-2.69641
-3.26864
-3.81524
-4.32192
-4.76865
-5.1289
-5.37021
-5.45642
-5.34408
-4.91288
-3.45913
-0.324013
-0.971791
-1.61854
-2.26259
-2.90063
-3.5267
-4.1309
-4.69756
-5.2032
-5.61461
-5.88945
-5.98541
-5.89672
-5.77893
-6.41093
-0.345188
-1.03604
-1.72804
-2.42101
-3.11315
-3.79996
-4.47262
-5.11558
-5.70318
-6.19516
-6.5329
-6.64265
-6.46955
-6.12428
-6.4435
-0.366036
-1.09949
-1.83686
-2.58
-3.32937
-4.08305
-4.83495
-5.57206
-6.26955
-6.88282
-7.33467
-7.49629
-7.16196
-6.00818
-3.3849
-0.385925
-1.16021
-1.94168
-2.73465
-3.54261
-4.36736
-5.20757
-6.05605
-6.89441
-7.68258
-8.33801
-8.69434
-8.42343
-6.91256
-3.20582
-0.404124
-1.21595
-2.0385
-2.87891
-3.7442
-4.64093
-5.57444
-6.54707
-7.55411
-8.57451
-9.54904
-10.328
-10.546
-9.34186
-4.90515
-0.419841
-1.26423
-2.12291
-3.00589
-3.92395
-4.88895
-5.91414
-7.0142
-8.20454
-9.4983
-10.8959
-12.3512
-13.6561
-14.016
-10.3361
-0.432285
-1.3026
-2.19045
-3.10851
-4.07109
-5.09518
-6.20186
-7.41862
-8.78317
-10.35
-12.2027
-14.4788
-17.4224
-21.4956
-27.5674
-11.2793
-25.7687
-24.3528
-20.7968
-17.4943
-14.7261
-12.4083
-10.4251
-8.68445
-7.11939
-5.68169
-4.33581
-3.05464
-1.81643
-0.602809
-111.092
-57.917
-37.3735
-27.227
-21.1787
-17.0671
-14.0031
-11.5625
-9.51821
-7.7379
-6.13852
-4.66461
-3.27672
-1.94494
-0.644888
-123.517
-67.4042
-43.1739
-30.8114
-23.5182
-18.6805
-15.1651
-12.4246
-10.1687
-8.23076
-6.50823
-4.93366
-3.45985
-2.05141
-0.679831
-67.8481
-54.7509
-40.7328
-30.8754
-24.1525
-19.3757
-15.789
-12.9501
-10.5983
-8.57404
-6.77518
-5.13276
-3.59758
-2.13228
-0.706499
-47.8901
-42.7372
-35.4023
-28.7627
-23.4352
-19.2444
-15.8936
-13.1375
-10.8004
-8.7608
-6.93348
-5.25738
-3.68677
-2.18572
-0.724287
-30.4067
-32.2387
-29.589
-25.7389
-21.9285
-18.5299
-15.5853
-13.0338
-10.7961
-8.8001
-6.98678
-5.30873
-3.72765
-2.21166
-0.733142
-22.4274
-24.8523
-24.6093
-22.6876
-20.1357
-17.5001
-15.0038
-12.7122
-10.6238
-8.71255
-6.94613
-5.29276
-3.72332
-2.21157
-0.733501
-12.4578
-19.3188
-20.7953
-20.074
-18.401
-16.3736
-14.2803
-12.2496
-10.3285
-8.52443
-6.82699
-5.21849
-3.67894
-2.1881
-0.726173
-15.0261
-17.5245
-18.5074
-18.1213
-16.9125
-15.2928
-13.5132
-11.7109
-9.95189
-8.26226
-6.64607
-5.09635
-3.60073
-2.14454
-0.712193
-15.6796
-16.7826
-17.1703
-16.7399
-15.7095
-14.3229
-12.7621
-11.142
-9.52715
-7.94907
-6.41901
-4.93662
-3.49514
-2.08443
-0.692681
-16.2946
-16.5374
-16.4014
-15.775
-14.7537
-13.4741
-12.0521
-10.5694