/*--------------------------------*- C++ -*----------------------------------*\
| =========                 |                                                 |
| \\      /  F ield         | OpenFOAM: The Open Source CFD Toolbox           |
|  \\    /   O peration     | Version:  5.x                                   |
|   \\  /    A nd           | Web:      www.OpenFOAM.org                      |
|    \\/     M anipulation  |                                                 |
\*---------------------------------------------------------------------------*/
FoamFile
{
    version     2.0;
    format      ascii;
    class       volScalarField;
    location    "9.3";
    object      T;
}
// * * * * * * * * * * * * * * * * * * * * * * * * * * * * * * * * * * * * * //

dimensions      [0 0 0 1 0 0 0];

internalField   nonuniform List<scalar> 
3200
(
2.08502
2.43616
2.45619
2.60102
2.6102
2.68252
2.68733
2.72919
2.73206
2.75857
2.76033
2.77565
2.777
2.79372
2.79508
2.81104
2.81232
2.82699
2.82816
2.84142
2.84247
2.8543
2.85523
2.86569
2.86651
2.87571
2.87644
2.88472
2.88545
2.89423
2.90193
2.90248
2.90745
2.90782
2.91162
2.9119
2.91494
2.91517
2.91764
2.91783
2.91984
2.91999
2.92163
2.92175
2.92307
2.92317
2.92422
2.92429
2.92507
2.92513
2.92559
2.92563
2.9261
2.92614
2.9265
2.92652
2.92672
2.92672
2.92669
2.92667
2.9263
2.92625
2.92535
2.92524
2.92343
2.9232
2.91961
2.91912
2.91121
2.90982
2.88732
2.84806
2.84368
2.77987
2.77235
2.65299
2.64804
2.64741
2.64729
2.64726
2.26048
2.52914
2.57099
2.68686
2.70643
2.76426
2.77453
2.80789
2.814
2.83507
2.83882
2.85111
2.85397
2.8672
2.87009
2.88273
2.88543
2.89706
2.89953
2.91004
2.91226
2.92164
2.92361
2.9319
2.93364
2.94094
2.94249
2.94908
2.95065
2.95792
2.96438
2.96557
2.96954
2.97033
2.97334
2.97395
2.97636
2.97685
2.97881
2.9792
2.9808
2.98112
2.98242
2.98268
2.98373
2.98394
2.98477
2.98493
2.98555
2.98566
2.98603
2.98612
2.98649
2.98656
2.98684
2.98689
2.98705
2.98706
2.98703
2.987
2.9867
2.98659
2.98587
2.98563
2.98419
2.9837
2.98082
2.97975
2.97331
2.97025
2.95059
2.91845
2.90909
2.85822
2.84239
2.74967
2.73921
2.73748
2.73712
2.73704
2.42519
2.63119
2.68282
2.77655
2.80113
2.84791
2.8608
2.88769
2.89535
2.91227
2.91697
2.92693
2.93052
2.9411
2.9447
2.95481
2.95819
2.9675
2.97059
2.979
2.98177
2.98928
2.99174
2.99838
3.00055
3.0064
3.00834
3.01364
3.01562
3.02164
3.02705
3.02856
3.03176
3.03275
3.03517
3.03593
3.03786
3.03847
3.04004
3.04053
3.04181
3.04221
3.04325
3.04358
3.04442
3.04468
3.04535
3.04555
3.04604
3.04618
3.04648
3.04659
3.04688
3.04697
3.0472
3.04726
3.04739
3.0474
3.04738
3.04733
3.04709
3.04695
3.04637
3.04607
3.0449
3.04429
3.04195
3.0406
3.03528
3.03134
3.01436
2.98793
2.97615
2.93517
2.91551
2.84306
2.83004
2.8275
2.82695
2.82682
2.58167
2.73941
2.79298
2.869
2.89495
2.93292
2.94652
2.96826
2.97632
2.98995
2.99491
3.00302
3.0068
3.01527
3.01906
3.02716
3.03072
3.03818
3.04143
3.04818
3.05109
3.05712
3.05971
3.06503
3.06732
3.07201
3.07406
3.07833
3.08042
3.08538
3.08988
3.09148
3.09408
3.09511
3.09706
3.09786
3.09941
3.10005
3.10131
3.10183
3.10286
3.10328
3.10412
3.10446
3.10513
3.10541
3.10594
3.10615
3.10655
3.1067
3.10694
3.10705
3.10729
3.10738
3.10757
3.10763
3.10773
3.10775
3.10772
3.10768
3.10748
3.10733
3.10686
3.10654
3.1056
3.10495
3.10304
3.1016
3.09719
3.09296
3.0785
3.05683
3.04438
3.01127
2.99074
2.93407
2.92044
2.91743
2.91675
2.9166
2.73183
2.85181
2.90224
2.96346
2.98828
3.0189
3.03191
3.04937
3.05707
3.06798
3.07272
3.07928
3.08289
3.08964
3.09324
3.0997
3.10308
3.10904
3.11213
3.11751
3.12029
3.12509
3.12756
3.13181
3.13399
3.13774
3.13969
3.14311
3.14511
3.14914
3.15282
3.15436
3.15645
3.15744
3.15899
3.15975
3.16099
3.16161
3.16261
3.16311
3.16393
3.16433
3.165
3.16533
3.16586
3.16613
3.16655
3.16675
3.16707
3.16721
3.16741
3.16751
3.1677
3.16779
3.16793
3.16799
3.16807
3.16809
3.16807
3.16803
3.16787
3.16773
3.16735
3.16704
3.16628
3.16566
3.16411
3.16273
3.15909
3.15498
3.14293
3.12536
3.11344
3.08686
3.06742
3.02336
3.01042
3.00728
3.00654
3.00637
2.8772
2.96698
3.01106
3.05937
3.08139
3.10558
3.11712
3.13087
3.13769
3.14626
3.15046
3.15565
3.15885
3.16412
3.1673
3.17236
3.17535
3.18001
3.18274
3.18695
3.1894
3.19316
3.19534
3.19867
3.20059
3.20353
3.20525
3.20795
3.20973
3.21292
3.21584
3.21722
3.21886
3.21974
3.22096
3.22163
3.22261
3.22315
3.22393
3.22437
3.22501
3.22537
3.22589
3.22618
3.2266
3.22684
3.22717
3.22735
3.22759
3.22772
3.22787
3.22797
3.22811
3.22819
3.22831
3.22836
3.22842
3.22843
3.22842
3.22838
3.22826
3.22813
3.22783
3.22756
3.22696
3.22641
3.22518
3.22394
3.22101
3.21732
3.20758
3.19366
3.18309
3.16217
3.14508
3.1114
3.1
3.09702
3.0963
3.09613
3.01898
3.08398
3.11972
3.15633
3.1744
3.19277
3.20224
3.21265
3.21824
3.22471
3.22816
3.23211
3.23473
3.23869
3.2413
3.2451
3.24754
3.25105
3.25329
3.25646
3.25846
3.2613
3.26308
3.26559
3.26716
3.26937
3.27078
3.27282
3.27428
3.2767
3.27893
3.28006
3.28131
3.28203
3.28295
3.2835
3.28423
3.28468
3.28527
3.28563
3.28611
3.2864
3.2868
3.28703
3.28735
3.28754
3.28779
3.28794
3.28812
3.28823
3.28834
3.28842
3.28853
3.2886
3.28868
3.28872
3.28877
3.28878
3.28877
3.28874
3.28864
3.28854
3.28831
3.28809
3.28763
3.28718
3.28624
3.28522
3.28296
3.27991
3.2724
3.26182
3.25315
3.23733
3.2234
3.19855
3.18925
3.18668
3.18604
3.18589
3.15815
3.20216
3.22834
3.25404
3.26741
3.28032
3.28732
3.29463
3.29876
3.30329
3.30583
3.30861
3.31055
3.31332
3.31524
3.31789
3.3197
3.32215
3.3238
3.32601
3.32749
3.32947
3.33079
3.33254
3.3337
3.33525
3.33629
3.33771
3.3388
3.3405
3.34207
3.3429
3.34378
3.34431
3.34496
3.34536
3.34587
3.3462
3.34662
3.34688
3.34722
3.34743
3.34771
3.34788
3.34811
3.34825
3.34842
3.34853
3.34866
3.34873
3.34882
3.34887
3.34895
3.349
3.34906
3.34909
3.34912
3.34913
3.34912
3.3491
3.34903
3.34895
3.3488
3.34863
3.34831
3.34797
3.34731
3.34655
3.34495
3.34267
3.33735
3.32991
3.32349
3.31241
3.30216
3.28508
3.27823
3.27626
3.27576
3.27564
3.29557
3.32104
3.33699
3.35223
3.36043
3.3681
3.37239
3.37673
3.37926
3.38194
3.3835
3.38516
3.38634
3.38798
3.38915
3.39072
3.39183
3.39328
3.39429
3.3956
3.3965
3.39767
3.39848
3.39951
3.40023
3.40114
3.40178
3.40262
3.40329
3.4043
3.40523
3.40574
3.40626
3.40659
3.40697
3.40722
3.40752
3.40772
3.40797
3.40813
3.40833
3.40846
3.40862
3.40873
3.40886
3.40895
3.40905
3.40912
3.40919
3.40924
3.40929
3.40932
3.40937
3.4094
3.40943
3.40945
3.40947
3.40948
3.40947
3.40946
3.40942
3.40937
3.40928
3.40918
3.40899
3.40878
3.40839
3.40792
3.40696
3.40556
3.40238
3.39796
3.39403
3.38745
3.3812
3.3712
3.36702
3.36578
3.36546
3.36539
3.43197
3.44031
3.44566
3.45071
3.45347
3.45602
3.45746
3.4589
3.45975
3.46064
3.46117
3.46172
3.46212
3.46266
3.46305
3.46357
3.46394
3.46442
3.46476
3.4652
3.4655
3.46589
3.46616
3.4665
3.46674
3.46705
3.46726
3.46754
3.46776
3.4681
3.46841
3.46858
3.46875
3.46886
3.46899
3.46907
3.46917
3.46924
3.46932
3.46938
3.46944
3.46949
3.46954
3.46958
3.46962
3.46965
3.46968
3.46971
3.46973
3.46975
3.46976
3.46977
3.46979
3.4698
3.46981
3.46982
3.46982
3.46983
3.46982
3.46982
3.46981
3.46979
3.46976
3.46972
3.46966
3.46959
3.46946
3.4693
3.46898
3.46851
3.46745
3.46599
3.46466
3.46249
3.46038
3.45709
3.45569
3.45526
3.45515
3.45513
3.43127
3.44018
3.44636
3.45303
3.45711
3.46155
3.46438
3.46762
3.46971
3.47211
3.47359
3.47521
3.47641
3.47804
3.47923
3.48078
3.48187
3.48327
3.48425
3.48549
3.48635
3.48742
3.48817
3.48911
3.48977
3.4906
3.49118
3.49195
3.49257
3.4935
3.49438
3.49487
3.49538
3.49571
3.4961
3.49637
3.49669
3.49691
3.49718
3.49736
3.49759
3.49775
3.49794
3.49808
3.49824
3.49835
3.49849
3.49858
3.49868
3.49875
3.49883
3.49888
3.49896
3.49901
3.49908
3.49914
3.4992
3.49925
3.49931
3.49935
3.4994
3.49943
3.49948
3.4995
3.49954
3.49955
3.49956
3.49955
3.49947
3.4993
3.49885
3.49812
3.49735
3.49592
3.4944
3.49188
3.49079
3.49047
3.49038
3.49036
3.29346
3.32066
3.33907
3.35918
3.37131
3.38471
3.39312
3.40291
3.40912
3.41637
3.42076
3.42565
3.4292
3.43414
3.43767
3.44235
3.44561
3.44984
3.45275
3.45647
3.45903
3.46229
3.46451
3.46735
3.4693
3.47179
3.47354
3.47585
3.47769
3.48051
3.48315
3.48462
3.48616
3.48714
3.48831
3.48909
3.49006
3.49071
3.49153
3.49208
3.49278
3.49324
3.49383
3.49423
3.49472
3.49505
3.49546
3.49573
3.49605
3.49625
3.49648
3.49664
3.49687
3.49703
3.49725
3.49741
3.49761
3.49774
3.49792
3.49804
3.49819
3.4983
3.49843
3.49851
3.49861
3.49866
3.49869
3.49864
3.49843
3.49792
3.49657
3.49438
3.49206
3.48776
3.48323
3.47557
3.47235
3.47139
3.47115
3.47109
3.15456
3.20149
3.2317
3.26566
3.28546
3.30807
3.3218
3.33834
3.34849
3.36073
3.36791
3.37614
3.38194
3.39029
3.39606
3.40398
3.40931
3.41645
3.42121
3.42751
3.43168
3.43719
3.44083
3.44563
3.44881
3.45302
3.45587
3.45978
3.46277
3.46752
3.47196
3.47437
3.47696
3.47855
3.48054
3.48181
3.48345
3.48452
3.4859
3.4868
3.48797
3.48873
3.48973
3.49037
3.49121
3.49175
3.49245
3.49289
3.49343
3.49375
3.49413
3.4944
3.49479
3.49506
3.49543
3.49568
3.49601
3.49624
3.49654
3.49673
3.49699
3.49716
3.49738
3.49752
3.49769
3.49777
3.49782
3.49774
3.49739
3.49657
3.49432
3.49063
3.48686
3.47961
3.47219
3.45909
3.45381
3.45229
3.4519
3.45181
3.01379
3.08299
3.12418
3.1727
3.1995
3.23178
3.25037
3.27403
3.28777
3.30531
3.31501
3.32672
3.33458
3.34655
3.35437
3.36572
3.37294
3.38317
3.3896
3.39863
3.40428
3.41217
3.4171
3.42397
3.42828
3.43431
3.43817
3.44374
3.44778
3.45454
3.46086
3.46411
3.4678
3.46996
3.47279
3.47452
3.47686
3.47831
3.48028
3.4815
3.48318
3.48421
3.48564
3.48651
3.48771
3.48845
3.48944
3.49003
3.49081
3.49125
3.49179
3.49215
3.49271
3.49307
3.4936
3.49394
3.49443
3.49473
3.49516
3.49542
3.4958
3.49602
3.49634
3.49653
3.49677
3.49688
3.49696
3.49685
3.49638
3.49528
3.49213
3.48689
3.4818
3.47147
3.46138
3.44229
3.43512
3.43314
3.43264
3.43253
2.87025
2.96561
3.01638
3.08061
3.11332
3.15604
3.17874
3.21011
3.22691
3.25019
3.26204
3.27746
3.28706
3.30298
3.31253
3.32762
3.33644
3.35003
3.3579
3.36989
3.37679
3.38726
3.39329
3.40241
3.40768
3.41568
3.42039
3.42776
3.43268
3.44158
3.44988
3.45383
3.45869
3.46133
3.46509
3.4672
3.47031
3.47207
3.4747
3.47619
3.47842
3.47968
3.48157
3.48264
3.48423
3.48513
3.48645
3.48717
3.48821
3.48874
3.48945
3.48989
3.49064
3.49108
3.49179
3.4922
3.49285
3.49322
3.49378
3.49411
3.4946
3.49488
3.4953
3.49553
3.49585
3.49599
3.4961
3.49598
3.49538
3.49407
3.49002
3.48315
3.47694
3.46332
3.45092
3.42502
3.41623
3.41393
3.41337
3.41324
2.72289
2.85001
2.90803
2.98979
3.02674
3.0811
3.10676
3.14678
3.16578
3.19554
3.20892
3.22844
3.23928
3.25966
3.27048
3.28976
3.29976
3.31712
3.32603
3.34134
3.34916
3.36254
3.36936
3.38101
3.38697
3.39718
3.40251
3.41188
3.41742
3.42865
3.43907
3.44351
3.44968
3.45266
3.45745
3.45984
3.46381
3.46581
3.46916
3.47085
3.47369
3.47512
3.47753
3.47874
3.48078
3.48179
3.48348
3.4843
3.48563
3.48623
3.48713
3.48763
3.48858
3.48908
3.48999
3.49046
3.49128
3.4917
3.49242
3.49279
3.49342
3.49374
3.49427
3.49453
3.49494
3.4951
3.49526
3.49512
3.49442
3.49297
3.48802
3.47937
3.47239
3.45512
3.44101
3.40706
3.39708
3.39465
3.39408
3.39395
2.57044
2.73717
2.79873
2.90075
2.93946
3.00732
3.0342
3.08429
3.10422
3.14153
3.15556
3.17976
3.19111
3.21672
3.22808
3.25229
3.26278
3.28456
3.2939
3.3131
3.32131
3.33807
3.34523
3.35984
3.36609
3.37888
3.38446
3.39615
3.40193
3.41575
3.4285
3.43312
3.4408
3.44392
3.44991
3.45242
3.45739
3.45949
3.46369
3.46546
3.46902
3.47052
3.47355
3.47482
3.47737
3.47843
3.48055
3.48141
3.48307
3.48371
3.48482
3.48534
3.48653
3.48706
3.4882
3.48869
3.48972
3.49016
3.49107
3.49146
3.49225
3.49258
3.49325
3.49352
3.49404
3.49421
3.49442
3.49429
3.49349
3.49201
3.48617
3.47553
3.46824
3.44679
3.43189
3.38814
3.37762
3.3753
3.37477
3.37466
2.41133
2.62855
2.68782
2.81425
2.85102
2.93516
2.96072
3.023
3.04197
3.08846
3.10178
3.1316
3.14238
3.17435
3.18518
3.21535
3.22534
3.25248
3.26138
3.2853
3.29311
3.314
3.32081
3.33899
3.34494
3.36087
3.36617
3.38066
3.38612
3.40289
3.41826
3.42261
3.4321
3.43506
3.44251
3.44489
3.45109
3.45308
3.45831
3.45999
3.46443
3.46586
3.46963
3.47084
3.47402
3.47503
3.47767
3.47849
3.48056
3.48116
3.48253
3.48303
3.48452
3.48502
3.48644
3.48691
3.48819
3.48861
3.48974
3.49011
3.49109
3.49141
3.49225
3.49251
3.49316
3.49332
3.4936
3.49349
3.49258
3.49123
3.48452
3.47156
3.46466
3.43821
3.42392
3.3679
3.35784
3.35588
3.35545
3.35536
2.24353
2.52624
2.57421
2.73133
2.76068
2.86536
2.88577
2.96345
2.97862
3.03672
3.04735
3.08419
3.0928
3.13283
3.14149
3.17923
3.18722
3.22114
3.22826
3.25814
3.26439
3.29048
3.29593
3.31864
3.3234
3.34328
3.34752
3.36553
3.36986
3.39009
3.40846
3.4119
3.42365
3.42602
3.43532
3.43722
3.44495
3.44654
3.45308
3.45442
3.45997
3.46111
3.46581
3.46678
3.47075
3.47156
3.47486
3.47551
3.47811
3.47859
3.48028
3.48068
3.48254
3.48295
3.48472
3.48509
3.48669
3.48703
3.48844
3.48874
3.48997
3.49022
3.49127
3.49148
3.49229
3.49242
3.4928
3.49271
3.49169
3.49065
3.48311
3.46734
3.46186
3.42913
3.41763
3.34582
3.33773
3.33639
3.33611
3.33605
2.06442
2.43331
2.45624
2.65352
2.66732
2.79892
2.80853
2.9064
2.91354
2.98687
2.99187
3.03792
3.04197
3.09256
3.09665
3.1443
3.14807
3.19087
3.19423
3.23193
3.23487
3.26779
3.27036
3.29901
3.30125
3.32631
3.32831
3.35094
3.35296
3.37736
3.39926
3.40085
3.41559
3.4167
3.42841
3.42931
3.43906
3.43981
3.44805
3.44868
3.45567
3.45621
3.46215
3.4626
3.46761
3.46799
3.47215
3.47246
3.47574
3.47596
3.47808
3.47827
3.48062
3.48081
3.48305
3.48323
3.48525
3.48541
3.48719
3.48733
3.48888
3.489
3.49032
3.49042
3.49146
3.49152
3.49201
3.49198
3.4908
3.49034
3.48204
3.46272
3.46015
3.41921
3.41374
3.32118
3.31735
3.31686
3.31677
3.31675
2.06442
2.43331
2.45624
2.65352
2.66732
2.79892
2.80853
2.9064
2.91354
2.98687
2.99187
3.03791
3.04197
3.09256
3.09665
3.1443
3.14807
3.19087
3.19423
3.23193
3.23487
3.26779
3.27035
3.29901
3.30125
3.32631
3.32831
3.35094
3.35296
3.37736
3.39926
3.40085
3.41559
3.4167
3.42841
3.42931
3.43906
3.43981
3.44805
3.44868
3.45567
3.45621
3.46215
3.4626
3.46761
3.46799
3.47215
3.47246
3.47574
3.47596
3.47808
3.47827
3.48062
3.48081
3.48305
3.48323
3.48525
3.48541
3.48719
3.48733
3.48888
3.489
3.49032
3.49042
3.49146
3.49152
3.49201
3.49198
3.4908
3.49034
3.48204
3.46271
3.46015
3.41921
3.41374
3.32118
3.31735
3.31686
3.31677
3.31675
2.24353
2.52623
2.57421
2.73133
2.76067
2.86536
2.88577
2.96345
2.97862
3.03672
3.04735
3.08419
3.0928
3.13283
3.14149
3.17923
3.18722
3.22114
3.22826
3.25814
3.26439
3.29048
3.29593
3.31864
3.3234
3.34328
3.34752
3.36553
3.36986
3.39009
3.40846
3.4119
3.42365
3.42602
3.43532
3.43722
3.44495
3.44654
3.45307
3.45442
3.45996
3.46111
3.46581
3.46678
3.47075
3.47156
3.47485
3.47551
3.47811
3.47859
3.48028
3.48068
3.48254
3.48295
3.48472
3.48509
3.48669
3.48703
3.48844
3.48874
3.48997
3.49022
3.49127
3.49148
3.49229
3.49242
3.4928
3.49271
3.49169
3.49065
3.48311
3.46734
3.46186
3.42913
3.41763
3.34582
3.33773
3.33639
3.33611
3.33605
2.41133
2.62855
2.68781
2.81425
2.85101
2.93516
2.96072
3.023
3.04197
3.08846
3.10178
3.13159
3.14238
3.17435
3.18517
3.21535
3.22534
3.25248
3.26138
3.2853
3.29311
3.31399
3.32081
3.33899
3.34494
3.36087
3.36617
3.38066
3.38612
3.40289
3.41826
3.42261
3.4321
3.43506
3.44251
3.44489
3.45109
3.45308
3.45831
3.45999
3.46443
3.46586
3.46963
3.47084
3.47402
3.47503
3.47767
3.47849
3.48056
3.48116
3.48253
3.48303
3.48452
3.48502
3.48644
3.48691
3.48819
3.48861
3.48974
3.49011
3.49109
3.49141
3.49225
3.49251
3.49316
3.49332
3.4936
3.49349
3.49258
3.49123
3.48452
3.47156
3.46466
3.43821
3.42392
3.3679
3.35784
3.35588
3.35545
3.35536
2.57044
2.73717
2.79873
2.90075
2.93946
3.00731
3.0342
3.08429
3.10422
3.14153
3.15556
3.17976
3.19111
3.21672
3.22808
3.25229
3.26277
3.28455
3.2939
3.3131
3.32131
3.33807
3.34523
3.35984
3.36608
3.37888
3.38446
3.39615
3.40193
3.41575
3.4285
3.43312
3.4408
3.44391
3.44991
3.45242
3.45739
3.45949
3.46369
3.46546
3.46902
3.47052
3.47355
3.47482
3.47737
3.47843
3.48055
3.48141
3.48307
3.48371
3.48482
3.48534
3.48653
3.48706
3.4882
3.48869
3.48972
3.49016
3.49107
3.49146
3.49225
3.49258
3.49325
3.49352
3.49404
3.49421
3.49442
3.49429
3.49349
3.49201
3.48617
3.47553
3.46824
3.44679
3.43189
3.38814
3.37762
3.3753
3.37477
3.37466
2.72289
2.85001
2.90803
2.98979
3.02674
3.0811
3.10676
3.14678
3.16578
3.19554
3.20892
3.22844
3.23928
3.25966
3.27048
3.28976
3.29976
3.31712
3.32603
3.34134
3.34916
3.36254
3.36936
3.38101
3.38697
3.39718
3.40251
3.41188
3.41742
3.42865
3.43907
3.44351
3.44968
3.45266
3.45745
3.45984
3.46381
3.46581
3.46916
3.47085
3.47369
3.47512
3.47753
3.47874
3.48078
3.48179
3.48348
3.4843
3.48563
3.48623
3.48713
3.48763
3.48858
3.48908
3.48999
3.49046
3.49128
3.4917
3.49242
3.49279
3.49342
3.49374
3.49427
3.49453
3.49494
3.4951
3.49526
3.49512
3.49442
3.49297
3.48802
3.47937
3.47239
3.45512
3.44101
3.40706
3.39708
3.39465
3.39408
3.39395
2.87025
2.96561
3.01638
3.08061
3.11332
3.15604
3.17874
3.21011
3.22691
3.25019
3.26204
3.27746
3.28706
3.30298
3.31253
3.32762
3.33644
3.35003
3.3579
3.36989
3.37679
3.38726
3.39329
3.40241
3.40768
3.41568
3.42039
3.42776
3.43268
3.44158
3.44988
3.45383
3.45869
3.46133
3.46509
3.4672
3.47031
3.47207
3.4747
3.47619
3.47842
3.47968
3.48157
3.48264
3.48423
3.48513
3.48645
3.48717
3.48821
3.48874
3.48945
3.48989
3.49064
3.49108
3.49179
3.4922
3.49285
3.49322
3.49378
3.49411
3.4946
3.49488
3.4953
3.49553
3.49585
3.49599
3.4961
3.49598
3.49538
3.49407
3.49002
3.48315
3.47694
3.46332
3.45092
3.42502
3.41623
3.41393
3.41337
3.41324
3.01379
3.08299
3.12418
3.1727
3.1995
3.23178
3.25037
3.27403
3.28777
3.30531
3.31501
3.32672
3.33458
3.34655
3.35437
3.36572
3.37294
3.38317
3.3896
3.39863
3.40428
3.41217
3.4171
3.42397
3.42828
3.43431
3.43817
3.44374
3.44778
3.45454
3.46086
3.46411
3.4678
3.46996
3.47279
3.47452
3.47686
3.47831
3.48028
3.4815
3.48318
3.48421
3.48564
3.48651
3.48771
3.48845
3.48944
3.49003
3.49081
3.49125
3.49179
3.49215
3.49271
3.49307
3.4936
3.49394
3.49443
3.49473
3.49516
3.49542
3.4958
3.49602
3.49634
3.49653
3.49677
3.49688
3.49696
3.49685
3.49638
3.49528
3.49213
3.48689
3.4818
3.47147
3.46138
3.44229
3.43512
3.43314
3.43264
3.43253
3.15456
3.20149
3.2317
3.26566
3.28546
3.30807
3.3218
3.33834
3.34849
3.36073
3.3679
3.37614
3.38194
3.39029
3.39606
3.40398
3.40931
3.41645
3.42121
3.42751
3.43168
3.43719
3.44083
3.44563
3.44881
3.45302
3.45587
3.45978
3.46277
3.46752
3.47196
3.47437
3.47696
3.47855
3.48054
3.48181
3.48345
3.48452
3.4859
3.4868
3.48797
3.48873
3.48973
3.49037
3.49121
3.49175
3.49245
3.49288
3.49343
3.49375
3.49413
3.4944
3.49479
3.49506
3.49543
3.49568
3.49601
3.49624
3.49654
3.49673
3.49699
3.49716
3.49738
3.49752
3.49769
3.49777
3.49782
3.49774
3.49739
3.49657
3.49432
3.49063
3.48686
3.47961
3.47219
3.45909
3.45381
3.45229
3.4519
3.45181
3.29346
3.32066
3.33906
3.35918
3.37131
3.38471
3.39312
3.40291
3.40912
3.41636
3.42076
3.42565
3.4292
3.43414
3.43767
3.44235
3.44561
3.44984
3.45275
3.45647
3.45903
3.46229
3.46451
3.46735
3.4693
3.47179
3.47354
3.47585
3.47769
3.48051
3.48315
3.48462
3.48616
3.48714
3.48831
3.48909
3.49006
3.49071
3.49153
3.49208
3.49278
3.49324
3.49383
3.49423
3.49472
3.49505
3.49546
3.49573
3.49605
3.49625
3.49648
3.49664
3.49687
3.49703
3.49725
3.49741
3.49761
3.49774
3.49792
3.49804
3.49819
3.4983
3.49843
3.49851
3.49861
3.49866
3.49869
3.49864
3.49843
3.49792
3.49657
3.49438
3.49206
3.48776
3.48323
3.47557
3.47235
3.47139
3.47115
3.47109
3.43127
3.44018
3.44636
3.45303
3.45711
3.46155
3.46438
3.46762
3.46971
3.47211
3.47359
3.47521
3.47641
3.47804
3.47923
3.48078
3.48187
3.48327
3.48425
3.48549
3.48635
3.48742
3.48817
3.48911
3.48977
3.4906
3.49118
3.49195
3.49257
3.4935
3.49438
3.49487
3.49538
3.49571
3.4961
3.49637
3.49669
3.49691
3.49718
3.49736
3.49759
3.49775
3.49794
3.49808
3.49824
3.49835
3.49849
3.49858
3.49868
3.49875
3.49883
3.49888
3.49896
3.49901
3.49908
3.49914
3.4992
3.49925
3.49931
3.49935
3.4994
3.49943
3.49948
3.4995
3.49954
3.49955
3.49956
3.49955
3.49947
3.4993
3.49885
3.49812
3.49735
3.49592
3.4944
3.49188
3.49079
3.49047
3.49038
3.49036
3.43195
3.44028
3.44562
3.45066
3.4534
3.45591
3.45731
3.45866
3.45941
3.46016
3.46067
3.46135
3.46183
3.46245
3.46289
3.46345
3.46384
3.46434
3.46469
3.46514
3.46545
3.46585
3.46612
3.46647
3.46671
3.46702
3.46724
3.46752
3.46775
3.46808
3.4684
3.46857
3.46874
3.46885
3.46898
3.46907
3.46917
3.46924
3.46932
3.46937
3.46944
3.46948
3.46954
3.46957
3.46962
3.46965
3.46968
3.4697
3.46973
3.46975
3.46976
3.46977
3.46979
3.4698
3.46981
3.46982
3.46982
3.46982
3.46982
3.46982
3.46981
3.46979
3.46976
3.46972
3.46966
3.46959
3.46946
3.4693
3.46898
3.46851
3.46745
3.46599
3.46466
3.46248
3.46038
3.45709
3.45569
3.45526
3.45515
3.45513
3.29552
3.32097
3.33689
3.35208
3.36021
3.36776
3.37192
3.37599
3.37824
3.38048
3.38201
3.38405
3.38548
3.38736
3.38866
3.39035
3.39152
3.39303
3.39407
3.39542
3.39635
3.39754
3.39836
3.39942
3.40014
3.40106
3.40171
3.40256
3.40323
3.40425
3.40519
3.40571
3.40624
3.40656
3.40695
3.4072
3.4075
3.40771
3.40795
3.40812
3.40832
3.40845
3.40861
3.40872
3.40885
3.40894
3.40905
3.40911
3.40919
3.40924
3.40929
3.40932
3.40937
3.40939
3.40943
3.40945
3.40947
3.40947
3.40947
3.40945
3.40942
3.40937
3.40928
3.40917
3.40898
3.40878
3.40838
3.40792
3.40695
3.40555
3.40238
3.39796
3.39403
3.38745
3.3812
3.3712
3.36702
3.36578
3.36546
3.36539
3.15807
3.20203
3.22818
3.25377
3.26704
3.27975
3.28653
3.2934
3.29707
3.30083
3.30333
3.30678
3.30912
3.31229
3.31442
3.31727
3.31918
3.32174
3.32344
3.32572
3.32724
3.32926
3.3306
3.33237
3.33355
3.33512
3.33617
3.33761
3.33871
3.34042
3.34201
3.34285
3.34374
3.34427
3.34492
3.34533
3.34585
3.34617
3.34659
3.34686
3.3472
3.34742
3.34769
3.34787
3.34809
3.34823
3.34841
3.34852
3.34865
3.34873
3.34881
3.34887
3.34894
3.34899
3.34905
3.34908
3.34912
3.34912
3.34912
3.34909
3.34903
3.34895
3.34879
3.34863
3.34831
3.34797
3.34731
3.34655
3.34494
3.34267
3.33735
3.32991
3.32349
3.31241
3.30216
3.28508
3.27823
3.27626
3.27576
3.27564
3.01886
3.08381
3.11949
3.15596
3.1739
3.19198
3.20115
3.21094
3.2159
3.22123
3.22461
3.22956
3.23273
3.23726
3.24014
3.24423
3.24682
3.25048
3.25279
3.25605
3.25811
3.261
3.26281
3.26536
3.26695
3.26919
3.27062
3.27268
3.27415
3.2766
3.27885
3.27999
3.28125
3.28197
3.2829
3.28346
3.28419
3.28464
3.28524
3.2856
3.28609
3.28638
3.28678
3.28702
3.28734
3.28753
3.28778
3.28793
3.28811
3.28821
3.28833
3.28841
3.28852
3.28859
3.28867
3.28872
3.28876
3.28878
3.28877
3.28873
3.28864
3.28853
3.28831
3.28809
3.28763
3.28718
3.28624
3.28522
3.28296
3.27991
3.2724
3.26182
3.25315
3.23733
3.2234
3.19855
3.18925
3.18668
3.18604
3.18589
2.87705
2.96676
3.01077
3.0589
3.08075
3.10457
3.11574
3.12866
3.13471
3.1417
3.14583
3.1524
3.15628
3.1623
3.16582
3.17125
3.17441
3.17927
3.1821
3.18643
3.18894
3.19278
3.195
3.19838
3.20033
3.2033
3.20505
3.20777
3.20956
3.21278
3.21574
3.21712
3.21878
3.21967
3.2209
3.22158
3.22255
3.2231
3.22389
3.22433
3.22498
3.22534
3.22587
3.22616
3.22658
3.22682
3.22715
3.22733
3.22758
3.2277
3.22786
3.22795
3.2281
3.22818
3.2283
3.22835
3.22841
3.22843
3.22841
3.22837
3.22825
3.22812
3.22783
3.22756
3.22695
3.2264
3.22517
3.22394
3.22101
3.21732
3.20758
3.19365
3.18309
3.16217
3.14508
3.1114
3.1
3.09702
3.0963
3.09613
2.73166
2.85154
2.90188
2.96288
2.98752
3.01766
3.03025
3.04667
3.05349
3.06229
3.06695
3.07535
3.07974
3.08744
3.09143
3.09836
3.10194
3.10815
3.11135
3.11688
3.11973
3.12463
3.12714
3.13145
3.13366
3.13746
3.13943
3.14289
3.14492
3.14898
3.15269
3.15424
3.15635
3.15735
3.15892
3.15968
3.16093
3.16155
3.16256
3.16306
3.16389
3.16429
3.16496
3.16529
3.16584
3.1661
3.16653
3.16673
3.16705
3.16719
3.16739
3.1675
3.16768
3.16778
3.16792
3.16798
3.16806
3.16808
3.16806
3.16802
3.16786
3.16772
3.16734
3.16704
3.16628
3.16565
3.16411
3.16272
3.15909
3.15498
3.14293
3.12535
3.11344
3.08686
3.06742
3.02336
3.01042
3.00728
3.00653
3.00637
2.58147
2.73909
2.79257
2.86832
2.89407
2.93145
2.94462
2.96506
2.97219
2.98305
2.98793
2.99846
3.00307
3.01273
3.01691
3.0256
3.02936
3.03714
3.0405
3.04744
3.05043
3.05657
3.05921
3.06462
3.06693
3.07169
3.07376
3.07807
3.08019
3.08519
3.08973
3.09134
3.09396
3.095
3.09697
3.09777
3.09934
3.09998
3.10125
3.10177
3.10281
3.10324
3.10408
3.10442
3.1051
3.10538
3.10592
3.10613
3.10653
3.10668
3.10692
3.10703
3.10727
3.10737
3.10755
3.10762
3.10772
3.10773
3.10772
3.10767
3.10747
3.10732
3.10686
3.10654
3.10559
3.10494
3.10303
3.1016
3.09718
3.09295
3.0785
3.05683
3.04438
3.01127
2.99074
2.93407
2.92044
2.91743
2.91675
2.9166
2.42497
2.63082
2.68237
2.77575
2.80016
2.84621
2.85869
2.88398
2.89073
2.90405
2.90867
2.92181
2.9262
2.93823
2.94222
2.95304
2.95662
2.96632
2.96951
2.97816
2.981
2.98866
2.99117
2.9979
3.00011
3.00602
3.00799
3.01334
3.01534
3.02142
3.02688
3.0284
3.03163
3.03263
3.03506
3.03583
3.03778
3.03839
3.03997
3.04047
3.04175
3.04216
3.04321
3.04354
3.04438
3.04465
3.04532
3.04552
3.04602
3.04616
3.04646
3.04657
3.04686
3.04696
3.04719
3.04725
3.04737
3.04739
3.04737
3.04732
3.04708
3.04694
3.04637
3.04606
3.0449
3.04428
3.04194
3.04059
3.03527
3.03134
3.01435
2.98793
2.97615
2.93517
2.91551
2.84306
2.83003
2.8275
2.82694
2.82682
2.26025
2.52871
2.5705
2.68595
2.70538
2.76231
2.77226
2.80364
2.80902
2.82539
2.82908
2.84551
2.84902
2.86406
2.86725
2.88077
2.88364
2.89575
2.89831
2.90911
2.91138
2.92095
2.92295
2.93137
2.93313
2.94052
2.94209
2.94875
2.95033
2.95767
2.96419
2.9654
2.9694
2.97019
2.97323
2.97384
2.97627
2.97676
2.97873
2.97913
2.98074
2.98106
2.98237
2.98263
2.98369
2.9839
2.98474
2.9849
2.98552
2.98563
2.98601
2.98609
2.98647
2.98654
2.98683
2.98688
2.98703
2.98705
2.98702
2.98699
2.98669
2.98658
2.98586
2.98562
2.98418
2.98369
2.98081
2.97974
2.97331
2.97024
2.95059
2.91845
2.90908
2.85822
2.84239
2.74967
2.73921
2.73748
2.73712
2.73704
2.08478
2.43568
2.45567
2.59999
2.60909
2.6803
2.68496
2.72434
2.72686
2.74724
2.74897
2.76973
2.77139
2.79036
2.79187
2.80893
2.81028
2.82557
2.82677
2.8404
2.84147
2.85354
2.85449
2.8651
2.86593
2.87525
2.87599
2.88436
2.8851
2.89395
2.90172
2.90228
2.90729
2.90766
2.91149
2.91178
2.91484
2.91507
2.91756
2.91774
2.91977
2.91992
2.92157
2.9217
2.92303
2.92313
2.92418
2.92426
2.92504
2.9251
2.92557
2.92561
2.92608
2.92611
2.92648
2.9265
2.9267
2.92671
2.92668
2.92666
2.92629
2.92624
2.92534
2.92523
2.92343
2.9232
2.91961
2.91911
2.9112
2.90982
2.88732
2.84806
2.84368
2.77987
2.77235
2.65299
2.64804
2.64741
2.64728
2.64726
)
;

boundaryField
{
    F1_1
    {
        type            fixedValue;
        value           nonuniform List<scalar> 
80
(
1.99026
2.39629
2.39629
2.56082
2.56082
2.64299
2.64299
2.69062
2.69062
2.72082
2.72082
2.73821
2.73821
2.75729
2.75729
2.77549
2.77549
2.79223
2.79223
2.80735
2.80735
2.82085
2.82085
2.83277
2.83277
2.84326
2.84326
2.85269
2.85269
2.86241
2.87084
2.87084
2.8765
2.8765
2.88082
2.88082
2.88429
2.88429
2.8871
2.8871
2.88939
2.88939
2.89126
2.89126
2.89277
2.89277
2.89396
2.89396
2.89485
2.89485
2.89538
2.89538
2.89592
2.89592
2.89633
2.89633
2.89655
2.89655
2.89652
2.89652
2.89609
2.89609
2.89508
2.89508
2.89302
2.89302
2.88895
2.88895
2.88003
2.88003
2.85603
2.81217
2.81217
2.73957
2.73957
2.60237
2.60237
2.60237
2.60237
2.60237
)
;
    }
    F1_2
    {
        type            fixedValue;
        value           nonuniform List<scalar> 
80
(
1.96748
2.39377
2.39377
2.61829
2.61829
2.76814
2.76814
2.87968
2.87968
2.96331
2.96331
3.01561
3.01561
3.07335
3.07335
3.1277
3.1277
3.17652
3.17652
3.21951
3.21951
3.25705
3.25705
3.28972
3.28972
3.31829
3.31829
3.34406
3.34406
3.37104
3.39506
3.39506
3.41183
3.41183
3.42518
3.42518
3.43629
3.43629
3.44568
3.44568
3.45366
3.45366
3.46042
3.46042
3.46613
3.46613
3.47087
3.47087
3.47461
3.47461
3.47702
3.47702
3.47971
3.47971
3.48226
3.48226
3.48456
3.48456
3.4866
3.4866
3.48836
3.48836
3.48987
3.48987
3.49106
3.49106
3.49163
3.49163
3.49034
3.49034
3.48172
3.46007
3.46007
3.41354
3.41354
3.30709
3.30709
3.30709
3.30709
3.30709
)
;
    }
    F1_3
    {
        type            fixedValue;
        value           nonuniform List<scalar> 
80
(
1.96748
2.39377
2.39377
2.61828
2.61828
2.76814
2.76814
2.87968
2.87968
2.96331
2.96331
3.01561
3.01561
3.07335
3.07335
3.1277
3.1277
3.17652
3.17652
3.21951
3.21951
3.25704
3.25704
3.28972
3.28972
3.31829
3.31829
3.34406
3.34406
3.37104
3.39506
3.39506
3.41183
3.41183
3.42518
3.42518
3.43629
3.43629
3.44568
3.44568
3.45366
3.45366
3.46042
3.46042
3.46613
3.46613
3.47087
3.47087
3.47461
3.47461
3.47702
3.47702
3.47971
3.47971
3.48226
3.48226
3.48456
3.48456
3.48659
3.48659
3.48836
3.48836
3.48987
3.48987
3.49106
3.49106
3.49163
3.49163
3.49034
3.49034
3.48172
3.46007
3.46007
3.41354
3.41354
3.30709
3.30709
3.30709
3.30709
3.30709
)
;
    }
    F1_4
    {
        type            fixedValue;
        value           nonuniform List<scalar> 
80
(
1.99003
2.39578
2.39578
2.55971
2.55971
2.64062
2.64062
2.68543
2.68543
2.70854
2.70854
2.73222
2.73222
2.75387
2.75387
2.77333
2.77333
2.79076
2.79076
2.8063
2.8063
2.82006
2.82006
2.83216
2.83216
2.84278
2.84278
2.85232
2.85232
2.86212
2.87063
2.87063
2.87633
2.87633
2.88069
2.88069
2.88418
2.88418
2.88701
2.88701
2.88932
2.88932
2.8912
2.8912
2.89272
2.89272
2.89392
2.89392
2.89482
2.89482
2.89536
2.89536
2.89589
2.89589
2.89631
2.89631
2.89654
2.89654
2.8965
2.8965
2.89608
2.89608
2.89507
2.89507
2.89302
2.89302
2.88894
2.88894
2.88002
2.88002
2.85602
2.81217
2.81217
2.73956
2.73956
2.60236
2.60236
2.60236
2.60236
2.60236
)
;
    }
    F2_1
    {
        type            fixedValue;
        value           uniform 3.5;
    }
    F2_2
    {
        type            fixedValue;
        value           uniform 3.5;
    }
    F2_3
    {
        type            fixedValue;
        value           uniform 3.5;
    }
    F2_4
    {
        type            fixedValue;
        value           uniform 3.5;
    }
    defaultFaces
    {
        type            empty;
    }
}


// ************************************************************************* //
