/*--------------------------------*- C++ -*----------------------------------*\
| =========                 |                                                 |
| \\      /  F ield         | OpenFOAM: The Open Source CFD Toolbox           |
|  \\    /   O peration     | Version:  5.x                                   |
|   \\  /    A nd           | Web:      www.OpenFOAM.org                      |
|    \\/     M anipulation  |                                                 |
\*---------------------------------------------------------------------------*/
FoamFile
{
    version     2.0;
    format      ascii;
    class       volScalarField;
    location    "6.6";
    object      gradTx;
}
// * * * * * * * * * * * * * * * * * * * * * * * * * * * * * * * * * * * * * //

dimensions      [0 -1 0 1 0 0 0];

internalField   nonuniform List<scalar> 
3200
(
45.2106
3.71186
1.64872
1.54018
0.814959
0.771372
0.466733
0.447276
0.293829
0.282723
0.170835
0.166692
0.180698
0.180847
0.173157
0.172316
0.159537
0.15842
0.144297
0.143115
0.12883
0.12766
0.113857
0.112762
0.100222
0.099335
0.0901605
0.0901544
0.095088
0.164775
0.0825106
0.0552658
0.0534374
0.0416882
0.040861
0.0332627
0.0327038
0.0269864
0.0265568
0.0219979
0.0216513
0.0179118
0.0176242
0.0144758
0.0142286
0.0114598
0.0112327
0.00856933
0.00833051
0.00520632
0.00507549
0.00507522
0.00502763
0.00396265
0.00384958
0.00219885
0.00203338
-0.000273472
-0.000510911
-0.00386894
-0.00423134
-0.00949796
-0.0101031
-0.019176
-0.020324
-0.0381825
-0.040855
-0.0840485
-0.092972
-0.238807
-0.61749
-0.436359
-0.68184
-0.713211
-1.26857
-1.24294
-0.0558109
-0.0075315
-0.00152589
-52.9461
47.8952
3.10522
1.57729
1.3545
0.774069
0.681013
0.436324
0.394722
0.271789
0.248196
0.160333
0.151487
0.160988
0.161196
0.155218
0.153445
0.143365
0.141001
0.129824
0.127318
0.116006
0.113526
0.102598
0.100279
0.0903743
0.0885109
0.0814395
0.0815905
0.0883781
0.137386
0.0766102
0.0516248
0.0475531
0.03802
0.036246
0.0301886
0.0289999
0.0244591
0.0235469
0.0199297
0.0191941
0.0162277
0.0156173
0.0131196
0.0125949
0.0103973
0.00991509
0.00779956
0.00729549
0.00485721
0.00457923
0.00453431
0.00443034
0.00358968
0.00335005
0.00204099
0.00168964
-0.000143443
-0.000648158
-0.00332022
-0.00409141
-0.00828979
-0.0095801
-0.016838
-0.0192966
-0.0336979
-0.0394874
-0.0750705
-0.0949936
-0.227153
-0.51788
-0.414982
-0.602247
-0.666836
-1.08534
-1.03168
-0.121879
-0.0209035
-0.00438772
-54.7422
50.5629
2.57643
1.45365
1.18314
0.713683
0.59672
0.397792
0.345421
0.245776
0.216239
0.146669
0.135549
0.14165
0.141792
0.137112
0.134907
0.126884
0.123934
0.115004
0.111874
0.102828
0.0997307
0.090995
0.0881001
0.0802049
0.077895
0.0724296
0.072761
0.0799793
0.114388
0.0692781
0.0471473
0.0418871
0.0340415
0.0318024
0.0269198
0.0254301
0.0217865
0.0206452
0.0177461
0.0168261
0.0144494
0.013686
0.0116845
0.0110282
0.00926622
0.00866278
0.00696533
0.00633783
0.00442168
0.00407365
0.00399574
0.00386251
0.00319266
0.00289328
0.0018448
0.00140515
-6.65562e-05
-0.000698719
-0.00284754
-0.00381439
-0.00719793
-0.00881838
-0.0146921
-0.0177915
-0.0295578
-0.0369279
-0.0667189
-0.0925258
-0.209156
-0.434014
-0.382
-0.527562
-0.606304
-0.920992
-0.854655
-0.155594
-0.0308972
-0.00673323
-56.5382
53.2101
2.11321
1.29592
1.01973
0.639197
0.515705
0.353398
0.298011
0.216958
0.185884
0.130668
0.118921
0.12255
0.122581
0.118906
0.116601
0.1102
0.107107
0.0999527
0.0966657
0.0894128
0.0861606
0.079158
0.0761207
0.0698121
0.0674054
0.0631878
0.063656
0.0704928
0.0945713
0.0610268
0.0419949
0.0363246
0.0298387
0.0274645
0.0235152
0.0219464
0.0190139
0.0178138
0.0154834
0.0145164
0.0126065
0.0118041
0.0101956
0.00950562
0.00808874
0.00745421
0.00608827
0.0054317
0.00392342
0.00355724
0.00345938
0.00331613
0.00278081
0.00246648
0.00162425
0.00116194
-2.32585e-05
-0.00068862
-0.00242214
-0.00344072
-0.00617661
-0.00788653
-0.0126571
-0.0159398
-0.0255936
-0.0334717
-0.0585266
-0.086425
-0.18683
-0.361224
-0.341114
-0.455549
-0.536336
-0.771887
-0.702944
-0.166334
-0.0368696
-0.00833318
-58.334
55.8358
1.70411
1.11655
0.860488
0.554429
0.436242
0.304727
0.251628
0.186141
0.156495
0.112927
0.101679
0.103595
0.103519
0.100645
0.0984594
0.0933844
0.0904417
0.0847462
0.0816165
0.0758373
0.0727404
0.0671624
0.0642721
0.0592632
0.0569881
0.0537586
0.0542963
0.0603166
0.0770592
0.052195
0.036308
0.0307947
0.0254713
0.0231896
0.0200153
0.0185173
0.0161719
0.0150275
0.0131661
0.0122443
0.0107193
0.00995441
0.00866987
0.00801212
0.00687995
0.00627489
0.00518284
0.00455962
0.00337946
0.0030301
0.00292483
0.00278543
0.00236011
0.00206078
0.0013885
0.000947638
-7.60875e-07
-0.000635801
-0.00202535
-0.00299836
-0.00519634
-0.00683227
-0.0106816
-0.0138332
-0.0217004
-0.0293283
-0.0502206
-0.0774241
-0.161544
-0.296213
-0.294847
-0.384883
-0.460176
-0.634963
-0.569939
-0.160789
-0.0388049
-0.00906457
-60.1294
58.4413
1.33868
0.923917
0.70325
0.462147
0.357313
0.25292
0.20574
0.15389
0.127663
0.0938944
0.0839095
0.0847185
0.0845682
0.0823562
0.0804333
0.0764832
0.0738869
0.069437
0.0666733
0.0621546
0.0594194
0.0550593
0.0525083
0.0486049
0.046609
0.0441787
0.0447173
0.0497115
0.0612114
0.043004
0.0302061
0.0252572
0.0209823
0.0189504
0.0164484
0.015122
0.0132819
0.0122699
0.0108113
0.0099964
0.00880163
0.00812553
0.00711909
0.0065376
0.00565007
0.00511504
0.00425864
0.00370982
0.00280227
0.00249319
0.00239164
0.00226615
0.00193437
0.00166999
0.00114349
0.000753631
9.19671e-06
-0.000552807
-0.00164523
-0.002507
-0.00423854
-0.00568947
-0.00873403
-0.011538
-0.0178168
-0.0246544
-0.0416622
-0.0661465
-0.134237
-0.236644
-0.244924
-0.314806
-0.380037
-0.507631
-0.450699
-0.143757
-0.0370504
-0.00890249
-61.9246
61.0292
1.00748
0.72352
0.54683
0.364414
0.278366
0.198823
0.16004
0.120615
0.099132
0.07391
0.0657085
0.0658808
0.0657
0.0640563
0.0624883
0.0595278
0.0574061
0.0540605
0.0518002
0.0484005
0.0461634
0.0428838
0.0407986
0.0378703
0.0362473
0.0344799
0.03496
0.0388461
0.0465518
0.0335967
0.0237903
0.0196927
0.0164035
0.01473
0.0128345
0.0117473
0.0103588
0.0095302
0.00843065
0.00776365
0.00686323
0.00630984
0.0055513
0.0050753
0.00440607
0.00396804
0.00332213
0.00287436
0.00220112
0.00194797
0.00185939
0.00175512
0.00150593
0.00128968
0.000893005
0.000573802
1.18524e-05
-0.0004486
-0.00127433
-0.00198086
-0.00329198
-0.00448293
-0.00679609
-0.00910376
-0.0139108
-0.0195738
-0.0328048
-0.0531246
-0.105557
-0.180841
-0.192537
-0.244916
-0.297404
-0.38768
-0.34146
-0.118716
-0.0321536
-0.0079047
-63.7195
63.6028
0.701934
0.518832
0.390638
0.262827
0.199159
0.143097
0.114364
0.0866213
0.0707509
0.0532448
0.0471727
0.0470572
0.0468904
0.0457533
0.0445989
0.0425389
0.0409744
0.0386405
0.0369728
0.0345999
0.0329492
0.0306606
0.0291226
0.0270835
0.0258913
0.0246913
0.0250664
0.027828
0.0327186
0.0240634
0.0171461
0.0140958
0.0117602
0.0105184
0.00918818
0.00838455
0.0074132
0.0068013
0.0060327
0.00554022
0.00491094
0.00450236
0.00397219
0.00362072
0.00315282
0.00282934
0.00237768
0.00204791
0.00158318
0.00139616
0.00132778
0.00124989
0.00107616
0.000916583
0.000639418
0.000403679
1.04446e-05
-0.000329786
-0.000908205
-0.00143054
-0.00235023
-0.0032315
-0.00485838
-0.00656958
-0.00997059
-0.0141904
-0.0236638
-0.0388183
-0.0759632
-0.127581
-0.138523
-0.175021
-0.213259
-0.27319
-0.239282
-0.0882279
-0.0247642
-0.00619412
-65.5141
66.1659
0.414189
0.311948
0.234432
0.158673
0.119648
0.0862771
0.0686494
0.0521531
0.0424352
0.0321222
0.0283985
0.0282357
0.0281195
0.0274509
0.0267458
0.0255302
0.0245734
0.0231938
0.0221735
0.0207704
0.0197604
0.0184073
0.0174666
0.0162628
0.0155357
0.0148397
0.0150774
0.0167247
0.0194272
0.0144606
0.0103472
0.00847033
0.00707299
0.00631036
0.00552081
0.00502854
0.00445326
0.00407866
0.0036237
0.00332225
0.00294982
0.00269973
0.00238594
0.0021708
0.00189379
0.00169577
0.00142836
0.00122686
0.000954116
0.000839602
0.000796535
0.000748481
0.000645828
0.000548186
0.000384171
0.000239853
6.91399e-06
-0.000201447
-0.000544326
-0.000864325
-0.00141001
-0.00195026
-0.00291729
-0.00396782
-0.00599763
-0.0085968
-0.0142956
-0.0236324
-0.0457903
-0.0759474
-0.0834861
-0.105056
-0.128247
-0.162452
-0.14179
-0.0542359
-0.0155791
-0.00394194
-67.3086
68.7227
0.136911
0.104075
0.0781548
0.0530506
0.03991
0.0288276
0.0228893
0.0174138
0.0141432
0.0107361
0.00948197
0.00941226
0.00937079
0.0091501
0.00891306
0.00851114
0.00818934
0.00773278
0.00738955
0.00692511
0.00658536
0.00613752
0.0058211
0.00542297
0.00517877
0.00495069
0.00503202
0.00557911
0.00644265
0.00482358
0.00345882
0.00282568
0.00236044
0.00210339
0.00184155
0.00167585
0.00148528
0.00135922
0.00120856
0.00110713
0.000983796
0.000899647
0.000795734
0.000723341
0.000631599
0.000564963
0.000476398
0.000408659
0.000318724
0.000280185
0.000265491
0.000249258
0.000215291
0.000182443
0.000128134
7.95696e-05
2.39877e-06
-6.7729e-05
-0.000181363
-0.000289084
-0.000470017
-0.000651939
-0.000972872
-0.00132689
-0.00200191
-0.00287927
-0.00478185
-0.00793362
-0.0152975
-0.0252191
-0.0278883
-0.0350271
-0.0427935
-0.0539101
-0.0469733
-0.0182881
-0.00531322
-0.00135218
-69.1029
68.7148
0.150881
0.128425
0.107468
0.0852112
0.0726963
0.0607377
0.0533356
0.0448797
0.0387602
0.0310032
0.0281917
0.0283046
0.0282027
0.0273689
0.0264708
0.024955
0.0237683
0.0221243
0.0209308
0.0193746
0.0182792
0.0168926
0.015947
0.0148022
0.0141256
0.0135356
0.0138335
0.0155117
0.0180973
0.0137219
0.010066
0.00838725
0.0071764
0.00651027
0.00583183
0.00539884
0.00489474
0.00455657
0.00414552
0.0038643
0.00351601
0.00327411
0.00296931
0.00275213
0.0024697
0.00225715
0.00196366
0.00172805
0.00140587
0.00129319
0.00131095
0.00131272
0.00128
0.00124144
0.00117368
0.00111956
0.00104327
0.000986638
0.000910763
0.000853976
0.000775913
0.000710439
0.000607327
0.000493225
0.000267143
-7.64056e-05
-0.000893975
-0.00243338
-0.00622144
-0.0117916
-0.0150754
-0.0220613
-0.0294964
-0.0404405
-0.0360528
-0.0140898
-0.00409819
-0.0010433
-69.8074
66.142
0.456013
0.385216
0.322455
0.255244
0.218067
0.182031
0.160049
0.134546
0.116346
0.0928118
0.0844583
0.0849224
0.0846374
0.0821092
0.0794372
0.0748519
0.0713232
0.0663549
0.0628071
0.0581055
0.0548493
0.0506602
0.047849
0.0443879
0.0423732
0.0405713
0.0414452
0.0464988
0.0545705
0.0411371
0.030119
0.025143
0.0215074
0.0195313
0.0174857
0.0161994
0.0146776
0.0136726
0.0124314
0.0115956
0.0105438
0.00982487
0.00890443
0.00825901
0.00740632
0.0067747
0.00588866
0.00518763
0.00420922
0.00387437
0.0039335
0.00393956
0.00384023
0.0037255
0.00352049
0.00335958
0.00312902
0.00296069
0.00273153
0.00256278
0.00232724
0.00213283
0.00182242
0.00148416
0.00080613
-0.000210252
-0.00265305
-0.00721018
-0.018593
-0.0354662
-0.0450782
-0.066166
-0.0883487
-0.121935
-0.108861
-0.0417904
-0.0120171
-0.00304156
-69.4223
63.5618
0.771337
0.641685
0.53762
0.424075
0.363391
0.302762
0.266903
0.223919
0.194145
0.154013
0.140372
0.14157
0.141162
0.136855
0.13248
0.124707
0.118936
0.110529
0.104729
0.0967785
0.0914568
0.0843727
0.0797771
0.0739158
0.0706124
0.0675001
0.0688898
0.0773653
0.0919039
0.0684556
0.0499303
0.0418453
0.0357721
0.0325551
0.0291092
0.0270093
0.0244398
0.0227982
0.020701
0.0193356
0.0175583
0.0163837
0.0148286
0.0137742
0.0123341
0.0113024
0.00980628
0.00865832
0.00698685
0.00643979
0.00655818
0.00657062
0.00640109
0.00621318
0.00586555
0.0056024
0.00521229
0.00493718
0.00454989
0.00427428
0.00387693
0.00355986
0.00303865
0.00248869
0.00135866
-0.00028703
-0.00432753
-0.0117139
-0.030745
-0.0594311
-0.0746218
-0.110227
-0.146745
-0.205295
-0.18383
-0.0679991
-0.0191041
-0.0047795
-69.037
60.9695
1.10393
0.897131
0.753165
0.590792
0.508714
0.422502
0.374042
0.312765
0.272359
0.214155
0.195692
0.198282
0.197842
0.191604
0.185659
0.174481
0.166654
0.154598
0.146738
0.135346
0.128135
0.117986
0.111756
0.103341
0.098844
0.0942488
0.096051
0.107989
0.130757
0.0955773
0.069324
0.0584671
0.0499226
0.0455882
0.0406789
0.0378381
0.0341649
0.0319419
0.0289415
0.027092
0.0245487
0.0229578
0.0207327
0.0193048
0.0172456
0.0158488
0.01371
0.01215
0.00971952
0.00897862
0.00918713
0.00920898
0.00896271
0.00870727
0.00820725
0.00785031
0.00729099
0.00691818
0.00636381
0.00599065
0.00542343
0.00499508
0.00425604
0.00351645
0.00193184
-0.000267995
-0.00586816
-0.0157519
-0.0425107
-0.0839359
-0.103349
-0.154251
-0.20426
-0.291857
-0.262573
-0.0915303
-0.0248082
-0.00609977
-68.6516
58.3608
1.46127
1.15006
0.969445
0.754298
0.654202
0.540732
0.481694
0.400775
0.351284
0.272707
0.250171
0.255115
0.254755
0.246341
0.239047
0.224122
0.214541
0.1985
0.188888
0.173747
0.16493
0.151442
0.143822
0.13261
0.12708
0.120742
0.122807
0.13818
0.171928
0.122342
0.088102
0.0749964
0.0639048
0.0586443
0.0521659
0.0487003
0.0438321
0.0411169
0.037136
0.0348763
0.0315011
0.0295573
0.026605
0.0248608
0.0221306
0.0204249
0.0175906
0.0156765
0.0123846
0.0114795
0.0118236
0.0118581
0.0115247
0.0112112
0.0105433
0.0101064
0.00936225
0.00890648
0.0081705
0.00771483
0.00696441
0.00644276
0.00547347
0.00457803
0.00252966
-0.000112917
-0.00723741
-0.0191147
-0.0536897
-0.109321
-0.130816
-0.198311
-0.260271
-0.383093
-0.346986
-0.110889
-0.0285918
-0.00687022
-68.266
55.7317
1.85137
1.39777
1.18711
0.913201
0.800224
0.656785
0.590221
0.487528
0.431373
0.329018
0.30355
0.312161
0.311989
0.301034
0.292741
0.273549
0.262687
0.242145
0.231259
0.211895
0.201913
0.184664
0.176032
0.161652
0.155348
0.146898
0.14903
0.167636
0.216432
0.148493
0.106035
0.0914454
0.0776538
0.0717493
0.0635325
0.0596187
0.0534133
0.0503426
0.0452616
0.0427053
0.0383963
0.0361972
0.0324291
0.0304563
0.0269748
0.0250462
0.0214345
0.0192581
0.0149543
0.0139305
0.0144724
0.014522
0.014086
0.0137293
0.0128701
0.0123747
0.011422
0.010906
0.00996602
0.00945082
0.00849627
0.00790838
0.00668799
0.00568576
0.00315128
0.000221476
-0.0084165
-0.0215697
-0.0640263
-0.136071
-0.156443
-0.242592
-0.313847
-0.480686
-0.439398
-0.124095
-0.0299524
-0.00699585
-67.8801
53.0794
2.28282
1.63576
1.4073
1.06567
0.947466
0.769762
0.700194
0.57242
0.51331
0.382253
0.355565
0.369558
0.369655
0.35562
0.346871
0.322642
0.31122
0.285404
0.273969
0.249668
0.239186
0.217541
0.208472
0.190371
0.183701
0.172632
0.174595
0.195885
0.265606
0.173625
0.122853
0.107862
0.0910874
0.0849468
0.0747271
0.0706288
0.0628691
0.0596487
0.0532864
0.0506045
0.0452071
0.0429
0.0381814
0.0361122
0.0317568
0.0297348
0.025221
0.022925
0.0173929
0.0163188
0.017141
0.0172053
0.0166441
0.0162676
0.0151824
0.0146614
0.0134644
0.0129226
0.0117446
0.0112044
0.0100135
0.00939934
0.00789383
0.00685483
0.00378875
0.000784244
-0.00941492
-0.0228524
-0.0731793
-0.164889
-0.179439
-0.287469
-0.3636
-0.586604
-0.542771
-0.128455
-0.0284655
-0.0064319
-67.494
50.4025
2.76478
1.85701
1.63202
1.2092
1.09709
0.878414
0.812494
0.654566
0.598125
0.431313
0.405954
0.427511
0.427886
0.409995
0.401619
0.371224
0.360329
0.328087
0.317194
0.286888
0.276906
0.249915
0.241273
0.218633
0.212231
0.197845
0.199387
0.222196
0.321249
0.197109
0.13824
0.124351
0.104096
0.0983076
0.085677
0.0817855
0.0721435
0.0690807
0.0611641
0.0586124
0.0518945
0.0496994
0.0438279
0.0418596
0.0364457
0.0345233
0.0289188
0.0267213
0.0196532
0.0186314
0.01984
0.0199137
0.019195
0.0188343
0.0174722
0.0169753
0.0154806
0.0149646
0.0134977
0.0129841
0.0115077
0.010926
0.00908105
0.00810503
0.00442381
0.00163485
-0.0102838
-0.0226594
-0.0806768
-0.196792
-0.198696
-0.333621
-0.407478
-0.703196
-0.660964
-0.120241
-0.0238604
-0.00519738
-67.1078
47.7019
3.30675
2.05095
1.86465
1.34029
1.25097
0.980956
0.928475
0.732651
0.687354
0.474715
0.454466
0.486311
0.486848
0.463989
0.457249
0.419026
0.410291
0.369917
0.361196
0.323296
0.315307
0.281555
0.274635
0.246245
0.241081
0.22242
0.223329
0.245459
0.385819
0.217983
0.151828
0.141095
0.116526
0.111942
0.0962775
0.0931724
0.0811549
0.078707
0.0688274
0.0667871
0.0584011
0.0566459
0.0493183
0.0477449
0.040995
0.0394591
0.0324805
0.0307125
0.0216717
0.0208548
0.0225845
0.0226539
0.0217315
0.0214411
0.0197274
0.0193291
0.0174577
0.0170448
0.0152128
0.0148024
0.0129662
0.0125032
0.0102336
0.0094635
0.00502324
0.00285071
-0.0111342
-0.0206407
-0.0858503
-0.233263
-0.212631
-0.382216
-0.442481
-0.833305
-0.799095
-0.0942543
-0.0161465
-0.00338708
-66.7213
44.9821
3.91814
2.20211
2.1108
1.45399
1.41208
1.0748
1.05019
0.804716
0.783278
0.510422
0.500895
0.546363
0.546746
0.517338
0.514138
0.465648
0.46152
0.41048
0.406364
0.358507
0.354738
0.312122
0.308855
0.272929
0.270471
0.246213
0.246421
0.263992
0.462718
0.234789
0.163199
0.158392
0.128156
0.12602
0.106376
0.104916
0.0897837
0.0886306
0.0761772
0.0752157
0.0646426
0.0638154
0.0545787
0.0538375
0.0453358
0.0446127
0.0358339
0.0349948
0.0233613
0.0229764
0.0253954
0.0254339
0.0242429
0.0241049
0.0219302
0.0217419
0.0193766
0.0191818
0.016871
0.0166778
0.0143698
0.0141528
0.0113262
0.0109688
0.00553203
0.00453914
-0.0121638
-0.0163937
-0.0877354
-0.276456
-0.218958
-0.435183
-0.464261
-0.980415
-0.964052
-0.0431978
-0.00581868
-0.00117794
-66.3347
44.9821
3.91814
2.2021
2.1108
1.45399
1.41208
1.0748
1.05019
0.804716
0.783278
0.510422
0.500895
0.546363
0.546746
0.517338
0.514139
0.465649
0.46152
0.410481
0.406365
0.358507
0.354738
0.312122
0.308856
0.272929
0.270471
0.246214
0.246422
0.263992
0.462719
0.23479
0.163199
0.158392
0.128157
0.126021
0.106376
0.104916
0.0897839
0.0886309
0.0761774
0.0752159
0.0646428
0.0638157
0.0545789
0.0538377
0.045336
0.0446129
0.035834
0.0349949
0.0233614
0.0229765
0.0253955
0.025434
0.024243
0.024105
0.0219303
0.021742
0.0193767
0.0191819
0.0168711
0.0166779
0.0143699
0.0141529
0.0113263
0.010969
0.00553221
0.00453933
-0.0121634
-0.0163932
-0.0877341
-0.276453
-0.218956
-0.43518
-0.464258
-0.980412
-0.964049
-0.0431976
-0.00581865
-0.00117797
-66.3348
47.7019
3.30675
2.05095
1.86465
1.34029
1.25097
0.980957
0.928475
0.732652
0.687355
0.474715
0.454466
0.486311
0.486848
0.463989
0.457249
0.419026
0.410292
0.369917
0.361196
0.323296
0.315307
0.281555
0.274635
0.246246
0.241081
0.222421
0.223329
0.245459
0.38582
0.217983
0.151828
0.141095
0.116526
0.111943
0.0962777
0.0931726
0.0811552
0.0787072
0.0688276
0.0667873
0.0584013
0.0566461
0.0493185
0.0477451
0.0409951
0.0394593
0.0324806
0.0307126
0.0216718
0.0208549
0.0225846
0.022654
0.0217317
0.0214412
0.0197276
0.0193292
0.0174578
0.0170449
0.0152129
0.0148025
0.0129663
0.0125034
0.0102337
0.00946362
0.00502341
0.00285091
-0.0111339
-0.0206402
-0.085849
-0.233261
-0.212629
-0.382213
-0.442478
-0.833302
-0.799093
-0.0942539
-0.0161464
-0.00338711
-66.7213
50.4025
2.76477
1.85701
1.63202
1.20919
1.09709
0.878414
0.812494
0.654566
0.598125
0.431313
0.405954
0.427511
0.427886
0.409995
0.40162
0.371224
0.360329
0.328087
0.317194
0.286889
0.276907
0.249915
0.241274
0.218633
0.212232
0.197845
0.199388
0.222197
0.32125
0.19711
0.13824
0.124351
0.104096
0.0983079
0.0856773
0.0817858
0.0721438
0.0690809
0.0611644
0.0586126
0.0518947
0.0496996
0.043828
0.0418597
0.0364458
0.0345234
0.028919
0.0267214
0.0196533
0.0186315
0.0198401
0.0199138
0.0191951
0.0188344
0.0174723
0.0169754
0.0154807
0.0149647
0.0134978
0.0129842
0.0115078
0.0109261
0.00908116
0.00810515
0.00442396
0.00163504
-0.0102834
-0.0226589
-0.0806757
-0.19679
-0.198694
-0.333619
-0.407475
-0.703193
-0.660962
-0.120241
-0.0238603
-0.00519737
-67.1078
53.0794
2.28282
1.63576
1.4073
1.06567
0.947465
0.769762
0.700194
0.57242
0.51331
0.382253
0.355565
0.369558
0.369655
0.35562
0.346871
0.322643
0.31122
0.285404
0.273969
0.249668
0.239186
0.217541
0.208472
0.190371
0.183702
0.172632
0.174596
0.195885
0.265607
0.173626
0.122853
0.107863
0.0910877
0.084947
0.0747273
0.070629
0.0628693
0.0596489
0.0532866
0.0506047
0.0452073
0.0429002
0.0381816
0.0361123
0.031757
0.029735
0.0252211
0.022925
0.017393
0.0163189
0.0171411
0.0172054
0.0166442
0.0162677
0.0151825
0.0146615
0.0134645
0.0129227
0.0117447
0.0112045
0.0100136
0.00939943
0.00789392
0.00685493
0.00378888
0.00078441
-0.00941463
-0.0228519
-0.0731783
-0.164887
-0.179438
-0.287467
-0.363598
-0.586602
-0.54277
-0.128454
-0.0284654
-0.00643185
-67.4941
55.7317
1.85137
1.39777
1.18711
0.9132
0.800224
0.656785
0.590221
0.487528
0.431373
0.329018
0.30355
0.312161
0.311989
0.301034
0.292741
0.273549
0.262687
0.242145
0.231259
0.211895
0.201913
0.184664
0.176032
0.161652
0.155348
0.146899
0.149031
0.167637
0.216433
0.148494
0.106035
0.0914456
0.077654
0.0717495
0.0635327
0.0596189
0.0534134
0.0503427
0.0452618
0.0427054
0.0383964
0.0361974
0.0324292
0.0304564
0.0269749
0.0250463
0.0214346
0.0192582
0.0149544
0.0139305
0.0144725
0.014522
0.0140861
0.0137294
0.0128702
0.0123748
0.0114221
0.0109061
0.0099661
0.0094509
0.00849634
0.00790845
0.00668807
0.00568585
0.00315139
0.00022162
-0.00841625
-0.0215693
-0.0640255
-0.13607
-0.156442
-0.24259
-0.313845
-0.480684
-0.439397
-0.124094
-0.0299522
-0.00699576
-67.8801
58.3608
1.46127
1.15006
0.969445
0.754297
0.654202
0.540732
0.481694
0.400775
0.351284
0.272707
0.250171
0.255115
0.254755
0.246341
0.239047
0.224122
0.214541
0.1985
0.188888
0.173747
0.164931
0.151442
0.143822
0.13261
0.12708
0.120742
0.122807
0.13818
0.171928
0.122342
0.0881023
0.0749966
0.0639049
0.0586445
0.0521661
0.0487005
0.0438322
0.041117
0.0371361
0.0348764
0.0315012
0.0295574
0.0266051
0.0248609
0.0221307
0.020425
0.0175907
0.0156765
0.0123847
0.0114795
0.0118236
0.0118581
0.0115248
0.0112112
0.0105433
0.0101064
0.00936232
0.00890654
0.00817056
0.00771489
0.00696447
0.00644282
0.00547354
0.0045781
0.00252975
-0.000112799
-0.00723721
-0.0191144
-0.053689
-0.10932
-0.130815
-0.19831
-0.260269
-0.383091
-0.346985
-0.110888
-0.0285917
-0.00687011
-68.266
60.9695
1.10393
0.89713
0.753165
0.590792
0.508714
0.422502
0.374042
0.312765
0.272359
0.214155
0.195692
0.198282
0.197842
0.191604
0.185659
0.174481
0.166654
0.154598
0.146738
0.135347
0.128135
0.117986
0.111756
0.103341
0.0988441
0.0942489
0.0960511
0.107989
0.130757
0.0955776
0.0693242
0.0584672
0.0499227
0.0455883
0.040679
0.0378383
0.034165
0.031942
0.0289416
0.0270921
0.0245488
0.0229579
0.0207328
0.0193049
0.0172457
0.0158489
0.0137101
0.01215
0.00971956
0.00897865
0.00918716
0.00920902
0.00896275
0.00870732
0.0082073
0.00785036
0.00729104
0.00691823
0.00636385
0.0059907
0.00542348
0.00499513
0.00425609
0.0035165
0.00193191
-0.000267903
-0.00586801
-0.0157516
-0.0425102
-0.0839349
-0.103348
-0.15425
-0.204258
-0.291855
-0.262572
-0.0915299
-0.0248081
-0.00609965
-68.6516
63.5618
0.771336
0.641685
0.53762
0.424075
0.363391
0.302762
0.266903
0.223919
0.194145
0.154013
0.140372
0.14157
0.141162
0.136855
0.13248
0.124707
0.118936
0.110529
0.10473
0.0967786
0.0914569
0.0843727
0.0797772
0.0739158
0.0706125
0.0675002
0.0688899
0.0773654
0.0919041
0.0684558
0.0499304
0.0418454
0.0357722
0.0325552
0.0291093
0.0270094
0.0244399
0.0227982
0.0207011
0.0193356
0.0175583
0.0163838
0.0148286
0.0137743
0.0123342
0.0113025
0.00980632
0.00865835
0.00698688
0.00643981
0.0065582
0.00657064
0.00640112
0.00621321
0.00586558
0.00560243
0.00521232
0.00493721
0.00454992
0.00427431
0.00387697
0.0035599
0.00303868
0.00248873
0.00135871
-0.000286966
-0.00432743
-0.0117138
-0.0307446
-0.0594305
-0.0746211
-0.110226
-0.146744
-0.205295
-0.183829
-0.0679988
-0.019104
-0.00477939
-69.037
66.142
0.456012
0.385216
0.322455
0.255244
0.218067
0.182031
0.160049
0.134546
0.116346
0.0928118
0.0844583
0.0849224
0.0846374
0.0821092
0.0794372
0.074852
0.0713233
0.066355
0.0628071
0.0581055
0.0548494
0.0506602
0.0478491
0.0443879
0.0423733
0.0405714
0.0414453
0.0464989
0.0545706
0.0411372
0.030119
0.0251431
0.0215075
0.0195314
0.0174857
0.0161994
0.0146776
0.0136727
0.0124314
0.0115956
0.0105438
0.0098249
0.00890446
0.00825904
0.00740635
0.00677473
0.00588868
0.00518765
0.00420924
0.00387438
0.00393351
0.00393957
0.00384024
0.00372552
0.00352051
0.0033596
0.00312904
0.00296071
0.00273155
0.0025628
0.00232726
0.00213284
0.00182244
0.00148418
0.000806158
-0.000210214
-0.00265299
-0.00721007
-0.0185928
-0.0354658
-0.0450777
-0.0661655
-0.0883482
-0.121934
-0.108861
-0.0417902
-0.012017
-0.00304147
-69.4223
68.7148
0.150881
0.128425
0.107468
0.0852112
0.0726963
0.0607377
0.0533356
0.0448797
0.0387602
0.0310032
0.0281917
0.0283046
0.0282027
0.0273689
0.0264708
0.024955
0.0237683
0.0221243
0.0209309
0.0193746
0.0182792
0.0168926
0.015947
0.0148022
0.0141256
0.0135356
0.0138335
0.0155117
0.0180974
0.013722
0.010066
0.00838727
0.00717642
0.00651028
0.00583184
0.00539885
0.00489475
0.00455658
0.00414553
0.00386431
0.00351602
0.00327413
0.00296932
0.00275214
0.00246971
0.00225716
0.00196366
0.00172806
0.00140587
0.0012932
0.00131096
0.00131273
0.00128
0.00124145
0.00117368
0.00111957
0.00104327
0.000986643
0.000910769
0.000853982
0.000775919
0.000710445
0.000607333
0.000493232
0.000267152
-7.63935e-05
-0.000893955
-0.00243334
-0.00622137
-0.0117914
-0.0150753
-0.0220612
-0.0294962
-0.0404404
-0.0360526
-0.0140897
-0.00409816
-0.00104327
-69.8074
68.7223
0.136744
0.103797
0.0777614
0.0524434
0.0390542
0.0275031
0.0210894
0.0150024
0.0125849
0.011923
0.011573
0.0110199
0.0105818
0.00996792
0.009522
0.0089397
0.00852172
0.00797852
0.00758757
0.00707799
0.0067126
0.00623946
0.00590831
0.00549523
0.00524243
0.00500609
0.00508459
0.00563301
0.00650207
0.00486653
0.00348821
0.00284885
0.00237915
0.0021197
0.00185553
0.00168839
0.00149623
0.00136915
0.00121728
0.00111506
0.000990793
0.000906016
0.000801342
0.000728428
0.00063604
0.000568942
0.000479772
0.000411575
0.000321041
0.000282275
0.000267565
0.000251304
0.000217246
0.00018431
0.000129861
8.11902e-05
3.8754e-06
-6.63551e-05
-0.000180121
-0.000287934
-0.000468982
-0.000650982
-0.000972012
-0.00132609
-0.00200119
-0.0028786
-0.00478123
-0.00793301
-0.0152969
-0.0252184
-0.0278877
-0.0350267
-0.0427932
-0.0539099
-0.0469731
-0.018288
-0.00531319
-0.00135213
-69.1029
66.1647
0.413686
0.311114
0.233256
0.156853
0.117089
0.0823039
0.0632552
0.0448604
0.0376846
0.0357566
0.0347272
0.033055
0.0317523
0.0298971
0.0285714
0.0268125
0.0255702
0.0239295
0.0227674
0.0212282
0.0201421
0.0187127
0.0177282
0.0164793
0.0157266
0.0150057
0.015235
0.0168862
0.0196064
0.0145893
0.0104351
0.00853977
0.00712903
0.0063593
0.00556271
0.00506617
0.00448608
0.00410843
0.00364986
0.00334607
0.0029708
0.00271884
0.00240275
0.00218606
0.00190711
0.00170771
0.00143848
0.00123562
0.000961051
0.000845861
0.000802756
0.000754622
0.000651692
0.000553789
0.00038935
0.000244716
1.13423e-05
-0.000197324
-0.000540601
-0.000860873
-0.00140691
-0.00194739
-0.00291472
-0.00396544
-0.00599549
-0.0085948
-0.0142937
-0.0236305
-0.0457883
-0.0759451
-0.0834844
-0.105055
-0.128246
-0.162452
-0.141789
-0.0542357
-0.015579
-0.00394182
-67.3086
63.6007
0.701099
0.517442
0.388692
0.259797
0.194925
0.136475
0.105395
0.0742697
0.0625743
0.0595543
0.0579071
0.0550753
0.0529449
0.049805
0.0476382
0.0446647
0.0426345
0.0398613
0.0379624
0.0353603
0.0335853
0.0311681
0.0295587
0.0274435
0.0262096
0.0249673
0.0253285
0.0280966
0.0330202
0.0242775
0.0172916
0.0142113
0.0118533
0.0106
0.00925787
0.00844729
0.00746783
0.00685094
0.00607624
0.00557993
0.00494587
0.00453423
0.00400018
0.00364618
0.00317499
0.00284926
0.00239453
0.00206253
0.00159468
0.00140656
0.00133815
0.00126013
0.00108594
0.000925927
0.000648046
0.000411789
1.78195e-05
-0.000322911
-0.000902002
-0.00142478
-0.00234506
-0.00322672
-0.00485408
-0.00656561
-0.00996701
-0.014187
-0.0236607
-0.0388152
-0.0759599
-0.127577
-0.13852
-0.175019
-0.213257
-0.273188
-0.239281
-0.0882275
-0.0247641
-0.00619395
-65.5141
61.0263
1.00632
0.721574
0.544133
0.36018
0.272504
0.189552
0.147536
0.102902
0.0871171
0.083297
0.0811344
0.0770676
0.074178
0.069674
0.0667373
0.0624791
0.0597286
0.0557581
0.0531855
0.0494593
0.0470542
0.0435913
0.0414094
0.0383724
0.0366928
0.0348647
0.0353257
0.0392208
0.0469806
0.0338955
0.0239918
0.0198539
0.0165333
0.0148442
0.0129318
0.0118352
0.0104351
0.00959976
0.00849148
0.00781929
0.00691203
0.00635451
0.00559041
0.00511099
0.00443705
0.00399597
0.00334566
0.00289486
0.00221713
0.00196247
0.00187392
0.00176948
0.00151961
0.00130278
0.000905074
0.000585169
2.21644e-05
-0.000438965
-0.00126566
-0.00197279
-0.00328475
-0.00447622
-0.00679009
-0.00909819
-0.0139058
-0.0195691
-0.0328005
-0.0531204
-0.105553
-0.180835
-0.192533
-0.244913
-0.297402
-0.387679
-0.341459
-0.118716
-0.0321534
-0.00790451
-63.7195
58.4376
1.33719
0.921414
0.699835
0.456712
0.349894
0.240991
0.189782
0.13038
0.111181
0.106973
0.104438
0.0990128
0.0954756
0.0894803
0.0858892
0.0802332
0.0768715
0.071599
0.0684547
0.0635055
0.0605655
0.0559632
0.0532943
0.0492471
0.047182
0.0446705
0.0451856
0.0501904
0.0617748
0.0433862
0.0304614
0.0254639
0.0211481
0.0190973
0.016573
0.0152351
0.0133797
0.0123595
0.0108893
0.0100681
0.0088642
0.00818304
0.00716924
0.00658357
0.00568978
0.00515105
0.00428881
0.00373628
0.00282264
0.00251174
0.00241032
0.00228465
0.00195196
0.00168686
0.00115899
0.000768268
2.24307e-05
-0.0005404
-0.0016341
-0.00249662
-0.00422927
-0.00568083
-0.00872633
-0.0115308
-0.0178104
-0.0246484
-0.0416567
-0.066141
-0.134231
-0.236637
-0.244919
-0.314803
-0.380034
-0.507629
-0.450697
-0.143757
-0.0370502
-0.00890231
-61.9246
55.8313
1.70231
1.11349
0.856399
0.547792
0.427367
0.290122
0.232356
0.15625
0.134646
0.130583
0.127857
0.120882
0.116872
0.10919
0.105124
0.0978955
0.0940909
0.0873548
0.0837962
0.0774712
0.0741432
0.0682577
0.0652343
0.0600424
0.0576891
0.0543553
0.0548658
0.0608968
0.0777679
0.0526583
0.0366139
0.0310465
0.0256722
0.0233693
0.0201668
0.0186558
0.0162909
0.0151372
0.0132611
0.0123321
0.0107954
0.0100249
0.00873093
0.00806846
0.00692831
0.00631905
0.00521956
0.00459212
0.00340404
0.00305261
0.00294769
0.00280809
0.00238159
0.00208145
0.00140741
0.000965567
1.53719e-05
-0.000620605
-0.00201179
-0.00298564
-0.00518504
-0.00682168
-0.0106722
-0.0138244
-0.0216926
-0.029321
-0.0502139
-0.0774174
-0.161537
-0.296204
-0.294841
-0.384879
-0.460173
-0.63496
-0.569937
-0.160788
-0.0388047
-0.00906441
-60.1294
53.2049
2.11112
1.29229
1.01502
0.631345
0.505513
0.336074
0.275664
0.17994
0.157409
0.154139
0.151446
0.142634
0.138414
0.128756
0.124485
0.115421
0.111427
0.102983
0.0992482
0.0913171
0.0878232
0.0804377