/*--------------------------------*- C++ -*----------------------------------*\
| =========                 |                                                 |
| \\      /  F ield         | OpenFOAM: The Open Source CFD Toolbox           |
|  \\    /   O peration     | Version:  5.x                                   |
|   \\  /    A nd           | Web:      www.OpenFOAM.org                      |
|    \\/     M anipulation  |                                                 |
\*---------------------------------------------------------------------------*/
FoamFile
{
    version     2.0;
    format      ascii;
    class       volScalarField;
    location    "6.6";
    object      gradTy;
}
// * * * * * * * * * * * * * * * * * * * * * * * * * * * * * * * * * * * * * //

dimensions      [0 -1 0 1 0 0 0];

internalField   nonuniform List<scalar> 
3200
(
18.2492
8.636
11.7301
8.31259
9.75
8.04001
8.7942
7.79297
8.24186
7.60104
7.87644
7.51756
7.72802
7.31769
7.52994
7.13967
7.33884
6.98029
7.16205
6.83814
7.00147
6.71253
6.85761
6.60248
6.73049
6.50634
6.62059
6.42096
6.53594
6.36682
6.23167
6.31882
6.20034
6.25799
6.16585
6.21049
6.13652
6.17242
6.1123
6.1415
6.09247
6.11625
6.07632
6.09561
6.06334
6.07877
6.05322
6.06511
6.04601
6.05419
6.04312
6.04925
6.0377
6.04307
6.03416
6.03777
6.03288
6.03391
6.0346
6.03191
6.04068
6.03233
6.0537
6.03587
6.07866
6.0428
6.12655
6.04837
6.22318
6.00078
6.29316
7.10886
6.42161
7.94762
6.78057
9.89616
9.12556
9.00771
8.98339
8.97815
17.0096
9.75195
11.3324
8.77659
9.54723
8.2702
8.67397
7.9255
8.1647
7.68524
7.83228
7.5644
7.67656
7.36917
7.48129
7.18894
7.29424
7.02567
7.12182
6.87921
6.96561
6.7492
6.82596
6.63489
6.70265
6.5348
6.59545
6.44615
6.50849
6.37061
6.25655
6.30444
6.21596
6.24669
6.17773
6.2014
6.14601
6.16503
6.12001
6.13547
6.09875
6.11135
6.08144
6.09166
6.06748
6.07565
6.05652
6.0628
6.0485
6.05284
6.04457
6.04783
6.03918
6.04201
6.03533
6.03722
6.03356
6.03408
6.03459
6.03314
6.0397
6.03523
6.0512
6.04165
6.07362
6.05432
6.11674
6.07395
6.20339
6.07618
6.35164
6.99356
6.62344
7.76495
7.15797
9.50284
9.09941
9.00393
8.98258
8.97789
16.0603
10.5143
11.1002
9.10748
9.42633
8.43312
8.59979
8.01849
8.11624
7.74433
7.80468
7.59601
7.64185
7.40382
7.44878
7.22225
7.26456
7.05643
7.09509
6.90707
6.94183
6.77411
6.805
6.65691
6.6842
6.5541
6.57867
6.46284
6.489
6.37341
6.27493
6.2955
6.22678
6.23935
6.18587
6.19545
6.15251
6.16018
6.12528
6.13151
6.10305
6.10812
6.08494
6.08906
6.07032
6.07361
6.05878
6.06131
6.05022
6.05199
6.04555
6.04688
6.04018
6.04131
6.03613
6.03689
6.03405
6.03425
6.03465
6.03405
6.03914
6.0373
6.04971
6.04577
6.07061
6.06255
6.11113
6.09263
6.19385
6.13548
6.39547
6.91876
6.76481
7.65225
7.41731
9.2195
9.06097
8.99722
8.98114
8.97749
15.3328
11.0314
10.9712
9.3459
9.35791
8.54964
8.55553
8.08431
8.08656
7.78614
7.78784
7.61743
7.61849
7.42715
7.42712
7.24482
7.24489
7.07732
7.07743
6.92603
6.92614
6.79107
6.79119
6.67191
6.67205
6.5672
6.56751
6.47385
6.47519
6.37553
6.28855
6.29012
6.23435
6.23466
6.1915
6.19159
6.15698
6.15703
6.1289
6.12894
6.106
6.10603
6.08735
6.08737
6.07228
6.07229
6.06035
6.06035
6.05144
6.05146
6.04622
6.04625
6.04087
6.04086
6.03671
6.0367
6.03443
6.03441
6.03475
6.03472
6.03887
6.0388
6.04887
6.04874
6.06893
6.06853
6.10821
6.10653
6.1907
6.18203
6.42876
6.87104
6.86452
7.58443
7.59517
9.01458
9.01875
8.9886
8.97921
8.97694
14.7773
11.3789
10.9047
9.51884
9.32231
8.63359
8.53035
8.1312
8.06899
7.81586
7.77789
7.63199
7.60283
7.44283
7.41276
7.26009
7.23192
7.0915
7.06582
6.93892
6.91586
6.80263
6.78216
6.68214
6.66409
6.5761
6.56011
6.48106
6.46542
6.37715
6.29862
6.28704
6.23967
6.2317
6.19539
6.18913
6.16006
6.15501
6.1314
6.12729
6.10804
6.10469
6.08901
6.08629
6.07363
6.07145
6.06144
6.05976
6.05229
6.05115
6.04668
6.04583
6.04135
6.04058
6.03711
6.0366
6.03471
6.03455
6.03487
6.03523
6.03876
6.0399
6.04845
6.05089
6.06806
6.0729
6.10695
6.11698
6.19127
6.21838
6.45423
6.84127
6.93518
7.54499
7.71668
8.86627
8.9779
8.97915
8.97699
8.97631
14.3578
11.6093
10.8747
9.6442
9.30639
8.69412
8.51701
8.1646
8.05906
7.83697
7.77225
7.64188
7.5924
7.45332
7.4033
7.27037
7.22345
7.10109
7.05827
6.94766
6.90919
6.81048
6.7763
6.68909
6.65894
6.58212
6.55523
6.48573
6.45855
6.37838
6.30601
6.28538
6.24342
6.22987
6.19808
6.18758
6.16218
6.15373
6.13311
6.12624
6.10944
6.10384
6.09016
6.08561
6.07456
6.07093
6.06219
6.05939
6.05289
6.05097
6.047
6.04556
6.04167
6.04041
6.0374
6.03655
6.03492
6.03468
6.03499
6.03562
6.03874
6.0407
6.04826
6.05245
6.06769
6.0761
6.10664
6.12487
6.19372
6.24637
6.47366
6.82323
6.98521
7.52307
7.79907
8.75948
8.94146
8.96984
8.97472
8.97564
14.0482
11.7593
10.8645
9.73385
9.30144
8.73725
8.51067
8.18813
8.05379
7.85179
7.76923
7.64854
7.58555
7.46024
7.39716
7.27722
7.21799
7.1075
7.05343
6.95352
6.90492
6.81574
6.77257
6.69375
6.65564
6.58614
6.55205
6.4887
6.4538
6.37929
6.31134
6.28458
6.24604
6.22878
6.19993
6.18662
6.16362
6.15293
6.13428
6.12559
6.11039
6.10331
6.09093
6.08519
6.0752
6.07061
6.06271
6.05918
6.05331
6.05087
6.04721
6.04538
6.04189
6.0403
6.0376
6.03653
6.03508
6.03478
6.03509
6.0359
6.03877
6.04128
6.04822
6.05357
6.06759
6.07841
6.10682
6.13073
6.19682
6.26737
6.48819
6.81269
7.02019
7.51162
7.85409
8.68383
8.91117
8.96148
8.9726
8.97502
13.8302
11.8534
10.8638
9.79557
9.30177
8.76687
8.50818
8.20414
8.05123
7.86183
7.76774
7.65289
7.58119
7.46466
7.39329
7.28164
7.21458
7.11165
7.05041
6.95732
6.90228
6.81917
6.77027
6.69678
6.65361
6.58875
6.55005
6.49054
6.45064
6.37994
6.31501
6.28426
6.2478
6.22814
6.20114
6.18605
6.16458
6.15245
6.13505
6.12519
6.11101
6.10299
6.09145
6.08494
6.07562
6.07041
6.06306
6.05905
6.05359
6.05082
6.04735
6.04527
6.04204
6.04024
6.03774
6.03653
6.0352
6.03486
6.03517
6.0361
6.03882
6.04168
6.04823
6.05435
6.06762
6.08003
6.10719
6.13491
6.19974
6.28237
6.49857
6.80684
7.04383
7.50613
7.88961
8.63227
8.88796
8.95467
8.97084
8.97449
13.6913
11.9081
10.8662
9.83432
9.30374
8.78544
8.5075
8.21409
8.05012
7.86805
7.76708
7.65551
7.57863
7.46729
7.39103
7.28427
7.2126
7.11413
7.04868
6.95959
6.90076
6.82122
6.76894
6.6986
6.65244
6.5903
6.54887
6.4916
6.4487
6.38035
6.31732
6.28416
6.24888
6.2278
6.20189
6.18573
6.16515
6.15219
6.13551
6.12498
6.11139
6.10281
6.09176
6.0848
6.07587
6.07031
6.06327
6.05899
6.05376
6.05079
6.04744
6.04521
6.04213
6.04021
6.03782
6.03654
6.03527
6.03492
6.03523
6.03623
6.03886
6.04193
6.04826
6.05483
6.06769
6.08105
6.10753
6.1376
6.20194
6.29203
6.50527
6.80383
7.05844
7.5038
7.91077
8.6002
8.87231
8.9499
8.96957
8.97411
13.6237
11.9331
10.8682
9.85301
9.30522
8.79439
8.50743
8.21887
8.04974
7.87104
7.76685
7.65674
7.57745
7.4685
7.38999
7.2855
7.2117
7.11529
7.04789
6.96066
6.90007
6.82218
6.76834
6.69946
6.6519
6.59103
6.54833
6.49208
6.44778
6.38056
6.31843
6.28414
6.2494
6.22766
6.20224
6.18559
6.16543
6.15207
6.13573
6.12488
6.11157
6.10273
6.0919
6.08473
6.076
6.07026
6.06337
6.05896
6.05384
6.05078
6.04748
6.04518
6.04217
6.04019
6.03786
6.03654
6.0353
6.03494
6.03526
6.03629
6.03889
6.04206
6.04829
6.05507
6.06774
6.08154
6.10773
6.13892
6.20312
6.29675
6.50856
6.80258
7.06543
7.503
7.92063
8.58481
8.86445
8.94743
8.96891
8.97391
-13.7607
-11.9552
-10.7262
-9.38702
-8.5766
-7.68474
-7.12278
-6.4709
-6.05586
-5.57377
-5.28033
-4.9547
-4.71708
-4.38856
-4.15288
-3.84117
-3.62334
-3.34214
-3.14788
-2.89974
-2.72919
-2.51234
-2.36355
-2.17458
-2.04457
-1.87863
-1.76208
-1.60809
-1.48568
-1.29804
-1.12234
-1.02374
-0.921418
-0.856093
-0.777999
-0.725885
-0.661412
-0.617894
-0.56355
-0.526748
-0.480665
-0.449448
-0.410366
-0.383953
-0.350998
-0.328898
-0.301618
-0.283738
-0.262356
-0.24916
-0.234281
-0.223322
-0.208058
-0.197061
-0.182457
-0.172226
-0.158986
-0.14983
-0.138125
-0.130094
-0.119913
-0.11301
-0.104398
-0.0987936
-0.0922489
-0.0889067
-0.0868826
-0.09034
-0.104618
-0.138558
-0.22869
-0.374846
-0.529458
-0.815983
-1.11868
-1.62786
-1.84325
-1.90726
-1.92383
-1.92768
-13.8329
-11.9322
-10.7306
-9.36587
-8.57986
-7.67155
-7.12639
-6.46143
-6.05855
-5.56623
-5.28162
-4.95118
-4.72072
-4.38485
-4.15593
-3.83742
-3.62588
-3.33866
-3.15004
-2.89664
-2.73105
-2.50962
-2.36516
-2.17222
-2.04601
-1.87665
-1.76358
-1.60683
-1.48829
-1.29756
-1.11926
-1.0239
-0.919941
-0.856606
-0.776962
-0.726381
-0.660576
-0.618329
-0.56285
-0.527121
-0.480073
-0.449765
-0.409861
-0.384217
-0.350565
-0.329106
-0.301243
-0.28388
-0.26203
-0.249229
-0.234125
-0.223496
-0.207889
-0.197206
-0.182283
-0.172348
-0.158824
-0.149933
-0.137979
-0.130181
-0.119783
-0.113079
-0.104278
-0.098832
-0.0921216
-0.0888547
-0.086664
-0.0899078
-0.103832
-0.136311
-0.22645
-0.374508
-0.524182
-0.815336
-1.11042
-1.63961
-1.84931
-1.90916
-1.92434
-1.92784
-13.9812
-11.8812
-10.7416
-9.32158
-8.58802
-7.64384
-7.13478
-6.44148
-6.06482
-5.55039
-5.28475
-4.94367
-4.72858
-4.37687
-4.16256
-3.8294
-3.63145
-3.33125
-3.1548
-2.89003
-2.73514
-2.50383
-2.36872
-2.1672
-2.04918
-1.87243
-1.76683
-1.60405
-1.4938
-1.2966
-1.11287
-1.02439
-0.916842
-0.857774
-0.774766
-0.72749
-0.6588
-0.619296
-0.561363
-0.527949
-0.478813
-0.450467
-0.408788
-0.384802
-0.349647
-0.329573
-0.30045
-0.284203
-0.261344
-0.249391
-0.233792
-0.22387
-0.207524
-0.197523
-0.181911
-0.172614
-0.158478
-0.15016
-0.137668
-0.130373
-0.119506
-0.113233
-0.104025
-0.0989219
-0.0918574
-0.0887605
-0.0862289
-0.0890492
-0.102304
-0.131758
-0.221893
-0.374106
-0.513246
-0.814531
-1.0928
-1.66414
-1.86136
-1.91284
-1.92531
-1.92813
-14.2134
-11.7917
-10.7637
-9.24984
-8.60461
-7.59873
-7.15056
-6.40887
-6.0766
-5.5246
-5.29091
-4.93113
-4.74192
-4.3634
-4.17395
-3.81597
-3.64112
-3.31889
-3.16309
-2.87904
-2.7423
-2.49419
-2.37493
-2.15885
-2.05471
-1.86537
-1.77237
-1.59917
-1.50278
-1.29509
-1.10266
-1.02566
-0.911806
-0.859903
-0.771143
-0.729457
-0.655859
-0.621002
-0.558897
-0.529409
-0.476723
-0.451705
-0.407009
-0.385837
-0.348127
-0.330404
-0.299144
-0.284791
-0.260222
-0.249701
-0.233233
-0.224502
-0.206906
-0.198065
-0.181288
-0.173075
-0.1579
-0.150555
-0.13715
-0.130708
-0.119047
-0.113506
-0.10361
-0.0990912
-0.0914354
-0.0886445
-0.0855804
-0.0877739
-0.10013
-0.124778
-0.214853
-0.374227
-0.495825
-0.814648
-1.06345
-1.70363
-1.87923
-1.91808
-1.92667
-1.92854
-14.5426
-11.6466
-10.8053
-9.14335
-8.63563
-7.53131
-7.17808
-6.3599
-6.09718
-5.48608
-5.30211
-4.91176
-4.76282
-4.34237
-4.19209
-3.79522
-3.65668
-3.29988
-3.17652
-2.86215
-2.75391
-2.47941
-2.38502
-2.14602
-2.06364
-1.85446
-1.78112
-1.59121
-1.51623
-1.29298
-1.08785
-1.0284
-0.904295
-0.863509
-0.765639
-0.732704
-0.651371
-0.623801
-0.55513
-0.531798
-0.473529
-0.453732
-0.404291
-0.387534
-0.345809
-0.331777
-0.297163
-0.285791
-0.258541
-0.25025
-0.232367
-0.225491
-0.20594
-0.198926
-0.180324
-0.173815
-0.15701
-0.151193
-0.136355
-0.131254
-0.118344
-0.113953
-0.102979
-0.0993868
-0.0908196
-0.0885402
-0.0847224
-0.0860929
-0.0974641
-0.115182
-0.205042
-0.375859
-0.470515
-0.817564
-1.01845
-1.76171
-1.90258
-1.92454
-1.9283
-1.92902
-14.9875
-11.4192
-10.8798
-8.9907
-8.69052
-7.43386
-7.2242
-6.2887
-6.1317
-5.43048
-5.32157
-4.88275
-4.7946
-4.31054
-4.2201
-3.76415
-3.68098
-3.27154
-3.19759
-2.83703
-2.77218
-2.45742
-2.4009
-2.12693
-2.07765
-1.83812
-1.79454
-1.57867
-1.5356
-1.29015
-1.06721
-1.03373
-0.893455
-0.869401
-0.757541
-0.737889
-0.644735
-0.628246
-0.54955
-0.535587
-0.468798
-0.456946
-0.400268
-0.390233
-0.342386
-0.333976
-0.294255
-0.287426
-0.256103
-0.251184
-0.231062
-0.226987
-0.204474
-0.200251
-0.178877
-0.174969
-0.155681
-0.152194
-0.135171
-0.132113
-0.1173
-0.114665
-0.102055
-0.0998824
-0.0899532
-0.0884983
-0.0836577
-0.0840125
-0.0945453
-0.102701
-0.191993
-0.380539
-0.435109
-0.826327
-0.951756
-1.84388
-1.93068
-1.93171
-1.93005
-1.92952
-15.5752
-11.0707
-11.0082
-8.7745
-8.78367
-7.29453
-7.29936
-6.18638
-6.188
-5.35119
-5.35424
-4.83972
-4.84222
-4.26297
-4.26273
-3.71816
-3.71834
-3.22979
-3.23013
-2.80007
-2.80045
-2.42511
-2.42549
-2.09885
-2.09928
-1.81395
-1.81486
-1.55922
-1.56308
-1.28642
-1.03899
-1.04334
-0.877968
-0.878808
-0.745758
-0.746017
-0.635035
-0.635182
-0.541384
-0.541492
-0.461872
-0.461956
-0.39438
-0.394446
-0.337386
-0.337429
-0.290032
-0.290044
-0.25261
-0.252728
-0.229116
-0.229223
-0.202278
-0.202264
-0.176733
-0.176739
-0.153722
-0.153737
-0.13343
-0.133444
-0.115771
-0.115777
-0.100714
-0.100689
-0.0887486
-0.0885927
-0.0823859
-0.0815258
-0.0917222
-0.0869745
-0.174975
-0.390577
-0.386237
-0.845722
-0.854391
-1.95827
-1.96222
-1.939
-1.93176
-1.93001
-16.3431
-10.5445
-11.2235
-8.46859
-8.93677
-7.09544
-7.41924
-6.03947
-6.27783
-5.23832
-5.40761
-4.776
-4.91311
-4.19224
-4.32714
-3.6504
-3.77525
-3.16848
-3.27989
-2.74591
-2.84376
-2.37777
-2.46315
-2.0577
-2.13234
-1.77833
-1.84544
-1.52939
-1.60177
-1.28152
-1.00071
-1.05974
-0.855836
-0.893574
-0.728645
-0.758597
-0.620893
-0.645879
-0.529464
-0.550588
-0.451759
-0.469675
-0.385789
-0.400945
-0.330105
-0.342781
-0.283914
-0.29416
-0.247617
-0.255222
-0.226223
-0.232542
-0.199005
-0.205299
-0.173568
-0.179432
-0.150843
-0.156094
-0.130877
-0.135483
-0.113536
-0.117493
-0.0987723
-0.101973
-0.0870735
-0.0889299
-0.0809011
-0.0785976
-0.0894976
-0.0675391
-0.152853
-0.409413
-0.318813
-0.883149
-0.713217
-2.11665
-1.99484
-1.94565
-1.93324
-1.93042
-17.343
-9.75922
-11.5762
-8.03376
-9.18224
-6.80976
-7.60727
-5.82785
-6.41879
-5.07709
-5.49303
-4.68155
-5.01832
-4.08729
-4.42402
-3.55057
-3.86143
-3.07845
-3.35547
-2.66648
-2.90962
-2.30839
-2.52046
-1.99735
-2.18255
-1.72587
-1.89135
-1.48403
-1.65618
-1.27505
-0.948837
-1.08665
-0.824041
-0.916449
-0.703739
-0.777885
-0.600245
-0.662233
-0.512044
-0.564484
-0.436979
-0.481467
-0.373239
-0.410887
-0.319485
-0.350997
-0.275034
-0.30055
-0.240459
-0.259183
-0.221918
-0.237458
-0.194141
-0.209857
-0.168902
-0.183504
-0.146612
-0.159671
-0.127132
-0.138585
-0.110265
-0.120117
-0.0959547
-0.103982
-0.084729
-0.0896634
-0.0791879
-0.075142
-0.0885879
-0.0438135
-0.123881
-0.442136
-0.225191
-0.949947
-0.509108
-2.33604
-2.02455
-1.95082
-1.93434
-1.93073
-18.6465
-8.59821
-12.1435
-7.41158
-9.56886
-6.39758
-7.89867
-5.52171
-6.63736
-4.84586
-5.62784
-4.54146
-5.17455
-3.93191
-4.5696
-3.40365
-3.99164
-2.94629
-3.46996
-2.55002
-3.00952
-2.20672
-2.60742
-1.9089
-2.25867
-1.64875
-1.9604
-1.4157
-1.73293
-1.26658
-0.87858
-1.12977
-0.77821
-0.951694
-0.667511
-0.807398
-0.570153
-0.687216
-0.48665
-0.585708
-0.41544
-0.499489
-0.354964
-0.426101
-0.30405
-0.363615
-0.262189
-0.310459
-0.230236
-0.265471
-0.215585
-0.24481
-0.186994
-0.216759
-0.162085
-0.189708
-0.140449
-0.165139
-0.121689
-0.14334
-0.105525
-0.124158
-0.0919021
-0.107135
-0.0814653
-0.0910616
-0.0772613
-0.0710305
-0.090045
-0.0151322
-0.085409
-0.496277
-0.0939129
-1.06336
-0.214279
-2.64093
-2.04472
-1.95367
-1.93489
-1.93085
18.6465
8.59821
12.1435
7.41158
9.56886
6.39758
7.89867
5.52171
6.63735
4.84586
5.62783
4.54146
5.17455
3.93191
4.5696
3.40365
3.99164
2.94629
3.46996
2.55002
3.00952
2.20672
2.60742
1.9089
2.25867
1.64875
1.9604
1.4157
1.73293
1.26658
0.878579
1.12976
0.778209
0.951693
0.66751
0.807398
0.570152
0.687216
0.486649
0.585708
0.415439
0.499488
0.354963
0.426101
0.304049
0.363614
0.262188
0.310459
0.230236
0.26547
0.215585
0.24481
0.186994
0.216759
0.162084
0.189708
0.140449
0.165138
0.121689
0.14334
0.105525
0.124158
0.0919019
0.107135
0.0814651
0.0910616
0.077261
0.0710306
0.0900445
0.015133
0.0854085
0.496274
0.0939127
1.06335
0.214278
2.64093
2.04471
1.95367
1.93489
1.93085
17.343
9.75923
11.5762
8.03376
9.18225
6.80977
7.60727
5.82785
6.4188
5.0771
5.49303
4.68155
5.01833
4.08729
4.42403
3.55057
3.86143
3.07845
3.35548
2.66648
2.90962
2.30839
2.52046
1.99735
2.18255
1.72587
1.89136
1.48403
1.65619
1.27505
0.948839
1.08665
0.824043
0.916451
0.70374
0.777887
0.600246
0.662235
0.512046
0.564485
0.43698
0.481468
0.37324
0.410888
0.319486
0.350998
0.275035
0.300551
0.24046
0.259184
0.221919
0.237459
0.194142
0.209858
0.168902
0.183505
0.146612
0.159671
0.127132
0.138586
0.110266
0.120117
0.0959553
0.103983
0.0847296
0.0896641
0.0791884
0.0751426
0.088588
0.0438143
0.12388
0.442132
0.225189
0.94994
0.509104
2.33603
2.02454
1.95082
1.93433
1.93072
16.3431
10.5445
11.2235
8.4686
8.93677
7.09545
7.41925
6.03948
6.27784
5.23832
5.40762
4.77601
4.91312
4.19225
4.32715
3.6504
3.77526
3.16848
3.2799
2.74592
2.84376
2.37778
2.46316
2.05771
2.13235
1.77834
1.84545
1.5294
1.60178
1.28153
1.00071
1.05974
0.85584
0.893578
0.728648
0.7586
0.620896
0.645882
0.529467
0.550591
0.451762
0.469677
0.385792
0.400948
0.330107
0.342784
0.283916
0.294162
0.247619
0.255224
0.226225
0.232544
0.199007
0.205301
0.17357
0.179434
0.150845
0.156095
0.130878
0.135484
0.113537
0.117494
0.0987736
0.101975
0.0870747
0.0889312
0.0809021
0.0785987
0.0894982
0.06754
0.152852
0.40941
0.31881
0.883143
0.713211
2.11664
1.99483
1.94564
1.93323
1.93042
15.5752
11.0707
11.0082
8.77451
8.78368
7.29454
7.29937
6.18639
6.18801
5.3512
5.35425
4.83972
4.84222
4.26298
4.26274
3.71817
3.71835
3.22979
3.23014
2.80008
2.80046
2.42512
2.42549
2.09886
2.09929
1.81396
1.81487
1.55922
1.56308
1.28642
1.039
1.04334
0.877973
0.878813
0.745762
0.746021
0.635039
0.635186
0.541388
0.541495
0.461875
0.46196
0.394383
0.394449
0.337389
0.337432
0.290034
0.290046
0.252612
0.25273
0.229118
0.229225
0.20228
0.202266
0.176735
0.176742
0.153724
0.153739
0.133431
0.133446
0.115773
0.115779
0.100715
0.100691
0.08875
0.0885941
0.0823872
0.081527
0.091723
0.0869753
0.174974
0.390574
0.386234
0.845716
0.854385
1.95826
1.96221
1.93899
1.93175
1.93
14.9875
11.4192
10.8798
8.99071
8.69053
7.43387
7.22421
6.28871
6.13171
5.43049
5.32158
4.88276
4.79461
4.31055
4.22011
3.76415
3.68099
3.27155
3.1976
2.83703
2.77219
2.45743
2.40091
2.12694
2.07766
1.83813
1.79455
1.57868
1.53561
1.29015
1.06721
1.03374
0.893459
0.869406
0.757546
0.737893
0.644739
0.62825
0.549554
0.535591
0.468801
0.45695
0.400271
0.390236
0.342389
0.333979
0.294257
0.287429
0.256105
0.251186
0.231064
0.22699
0.204477
0.200254
0.178879
0.174971
0.155684
0.152196
0.135173
0.132115
0.117302
0.114667
0.102057
0.099884
0.0899547
0.0884998
0.083659
0.0840138
0.0945461
0.102701
0.191993
0.380536
0.435106
0.826322
0.951749
1.84388
1.93067
1.93171
1.93004
1.92951
14.5426
11.6466
10.8054
9.14336
8.63564
7.53132
7.17809
6.35991
6.09719
5.48609
5.30212
4.91177
4.76283
4.34238
4.1921
3.79523
3.65669
3.29989
3.17653
2.86216
2.75392
2.47942
2.38503
2.14603
2.06365
1.85447
1.78113
1.59122
1.51623
1.29299
1.08785
1.02841
0.9043
0.863514
0.765644
0.732708
0.651375
0.623805
0.555133
0.531802
0.473532
0.453735
0.404294
0.387538
0.345812
0.33178
0.297166
0.285793
0.258544
0.250252
0.232369
0.225493
0.205943
0.198928
0.180326
0.173818
0.157012
0.151195
0.136357
0.131256
0.118345
0.113955
0.102981
0.0993885
0.0908212
0.0885417
0.0847238
0.0860941
0.097465
0.115182
0.205041
0.375857
0.470511
0.817559
1.01845
1.7617
1.90257
1.92453
1.92829
1.92901
14.2134
11.7917
10.7637
9.24985
8.60462
7.59873
7.15057
6.40888
6.07661
5.52461
5.29092
4.93114
4.74192
4.36341
4.17396
3.81598
3.64112
3.3189
3.1631
2.87904
2.74231
2.4942
2.37494
2.15885
2.05471
1.86538
1.77238
1.59917
1.50279
1.2951
1.10267
1.02566
0.911811
0.859908
0.771147
0.729462
0.655863
0.621006
0.558901
0.529412
0.476726
0.451708
0.407012
0.38584
0.34813
0.330407
0.299147
0.284794
0.260225
0.249703
0.233236
0.224505
0.206909
0.198067
0.181291
0.173077
0.157902
0.150557
0.137152
0.13071
0.119049
0.113507
0.103611
0.0990928
0.0914369
0.088646
0.0855817
0.0877751
0.100131
0.124778
0.214852
0.374225
0.495821
0.814642
1.06345
1.70363
1.87923
1.91807
1.92666
1.92853
13.9812
11.8812
10.7416
9.32159
8.58803
7.64385
7.13479
6.44149
6.06483
5.5504
5.28476
4.94368
4.72859
4.37688
4.16257
3.82941
3.63146
3.33126
3.15481
2.89004
2.73515
2.50384
2.36872
2.16721
2.04919
1.87244
1.76683
1.60405
1.4938
1.2966
1.11287
1.0244
0.916847
0.857779
0.77477
0.727494
0.658804
0.6193
0.561367
0.527953
0.478816
0.45047
0.408791
0.384805
0.34965
0.329576
0.300453
0.284205
0.261346
0.249393
0.233794
0.223872
0.207526
0.197525
0.181914
0.172616
0.15848
0.150162
0.13767
0.130374
0.119508
0.113235
0.104027
0.0989235
0.0918589
0.0887619
0.0862302
0.0890504
0.102305
0.131758
0.221892
0.374104
0.513243
0.814526
1.09279
1.66413
1.86135
1.91283
1.9253
1.92812
13.8329
11.9322
10.7306
9.36588
8.57987
7.67156
7.12639
6.46144
6.05856
5.56624
5.28163
4.95119
4.72073
4.38486
4.15593
3.83743
3.62589
3.33867
3.15005
2.89665
2.73106
2.50963
2.36517
2.17223
2.04602
1.87666
1.76358
1.60684
1.4883
1.29757
1.11927
1.0239
0.919946
0.85661
0.776967
0.726385
0.66058
0.618333
0.562854
0.527124
0.480076
0.449768
0.409864
0.38422
0.350568
0.329109
0.301246
0.283883
0.262032
0.249231
0.234127
0.223498
0.207891
0.197208
0.182286
0.17235
0.158826
0.149935
0.137981
0.130182
0.119785
0.113081
0.10428
0.0988336
0.0921231
0.0888561
0.0866653
0.089909
0.103833
0.136311
0.226449
0.374506
0.524178
0.815331
1.11042
1.6396
1.8493
1.90915
1.92433
1.92783
13.7607
11.9552
10.7262
9.38702
8.57661
7.68475
7.12279
6.47091
6.05587
5.57378
5.28034
4.95471
4.71709
4.38857
4.15289
3.84118
3.62335
3.34214
3.14789
2.89975
2.7292
2.51235
2.36356
2.17458
2.04458
1.87863
1.76208
1.6081
1.48569
1.29804
1.12235
1.02375
0.921423
0.856097
0.778003
0.725888
0.661415
0.617897
0.563553
0.526751
0.480668
0.449451
0.410369
0.383956
0.351
0.3289
0.30162
0.283741
0.262358
0.249162
0.234283
0.223324
0.20806
0.197063
0.182459
0.172228
0.158988
0.149832
0.138127
0.130095
0.119915
0.113012
0.104399
0.0987951
0.0922503
0.088908
0.0868838
0.090341
0.104618
0.138558
0.228689
0.374844
0.529455
0.815978
1.11868
1.62785
1.84324
1.90725
1.92382
1.92767
-13.6271
-11.9381
-10.875
-9.86354
-9.31991
-8.81706
-8.5392
-8.26803
-8.11747
-7.96871
-7.86613
-7.73031
-7.63462
-7.50994
-7.42295
-7.31062
-7.23249
-7.13185
-7.06203
-6.97231
-6.91025
-6.83078
-6.77598
-6.70602
-6.6578
-6.59615
-6.55295
-6.49609
-6.45135
-6.3835
-6.32081
-6.28622
-6.25119
-6.22927
-6.20365
-6.18688
-6.16656
-6.1531
-6.13665
-6.12572
-6.11232
-6.10341
-6.09251
-6.08529
-6.07649
-6.07071
-6.06377
-6.05933
-6.05418
-6.0511
-6.04777
-6.04545
-6.04242
-6.04043
-6.03807
-6.03673
-6.03548
-6.03511
-6.0354
-6.03642
-6.039
-6.04217
-6.04838
-6.05516
-6.06782
-6.08162
-6.1078
-6.13898
-6.20318
-6.2968
-6.5086
-6.80262
-7.06546
-7.50303
-7.92066
-8.58484
-8.86447
-8.94746
-8.96893
-8.97392
-13.6947
-11.9131
-10.8729
-9.84483
-9.31828
-8.80806
-8.53893
-8.2632
-8.1174
-7.96687
-7.86745
-7.72871
-7.63578
-7.50843
-7.42397
-7.30925
-7.23339
-7.13062
-7.06282
-6.97121
-6.91095
-6.8298
-6.77658
-6.70515
-6.65833
-6.59541
-6.5535
-6.49561
-6.45228
-6.38329
-6.31969
-6.28623
-6.25067
-6.22942
-6.2033
-6.18702
-6.16629
-6.15322
-6.13643
-6.12582
-6.11214
-6.10349
-6.09236
-6.08535
-6.07637
-6.07076
-6.06367
-6.05936
-6.0541
-6.0511
-6.04773
-6.04548
-6.04238
-6.04044
-6.03803
-6.03673
-6.03544
-6.03508
-6.03537
-6.03636
-6.03898
-6.04205
-6.04836
-6.05492
-6.06777
-6.08112
-6.1076
-6.13766
-6.202
-6.29207
-6.50531
-6.80387
-7.05847
-7.50383
-7.9108
-8.60022
-8.87233
-8.94992
-8.96959
-8.97413
-13.8335
-11.8584
-10.8704
-9.80605
-9.316
-8.78942
-8.53892
-8.25318
-8.11752
-7.96297
-7.87036
-7.72527
-7.63832
-7.50521
-7.42619
-7.30632
-7.23536
-7.12799
-7.06457
-6.96885
-6.91248
-6.82769
-6.77792
-6.7033
-6.65951
-6.59383
-6.55468
-6.49454
-6.45423
-6.38286
-6.31736
-6.28633
-6.24957
-6.22976
-6.20255
-6.18734
-6.16571
-6.15349
-6.13596
-6.12604
-6.11175
-6.10367
-6.09205
-6.08549
-6.07611
-6.07087
-6.06346
-6.05943
-6.05392
-6.05113
-6.04764
-6.04555
-6.04229
-6.04047
-6.03795
-6.03673
-6.03537
-6.03502
-6.03531
-6.03623
-6.03894
-6.04179
-6.04833
-6.05444
-6.06771
-6.0801
-6.10726
-6.13497
-6.19979
-6.28242
-6.49861
-6.80687
-7.04386
-7.50616
-7.88964
-8.63229
-8.88798
-8.95469
-8.97086
-8.97451
-14.0514
-11.7642
-10.8709
-9.74431
-9.31517
-8.75973
-8.54033
-8.23715
-8.11839
-7.9566
-7.87535
-7.71951
-7.6427
-7.49982
-7.43005
-7.30144
-7.23879
-7.1236
-7.06761
-6.96491
-6.91515
-6.82418
-6.78025
-6.70021
-6.66157
-6.59119
-6.55671
-6.49267
-6.45742
-6.38221
-6.31365
-6.28666
-6.2478
-6.2304
-6.20132
-6.18791
-6.16475
-6.15397
-6.13519
-6.12643
-6.11112
-6.10399
-6.09153
-6.08575
-6.07569
-6.07106
-6.06311
-6.05955
-6.05364
-6.05118
-6.0475
-6.04566
-6.04214
-6.04053
-6.03781
-6.03673
-6.03526
-6.03495
-6.03523
-6.03603
-6.03889
-6.04139
-6.04831
-6.05366
-6.06767
-6.07849
-6.10689
-6.1308
-6.19687
-6.26743
-6.48823
-6.81273
-7.02022
-7.51165
-7.85411
-8.68385
-8.91119
-8.9615
-8.97262
-8.97504
-14.3607
-11.6142
-10.8807
-9.65466
-9.3194
-8.7166
-8.54508
-8.21375
-8.12098
-7.94701
-7.88334
-7.71058
-7.64972
-7.4915
-7.43626
-7.29392
-7.24432
-7.11684
-7.07251
-6.95886
-6.91946
-6.8188
-6.78402
-6.69546
-6.66489
-6.58711
-6.55991
-6.48966
-6.46221
-6.38128
-6.30827
-6.28747
-6.24516
-6.2315
-6.19947
-6.18888
-6.16329
-6.15477
-6.13401
-6.12709
-6.11017
-6.10452
-6.09075
-6.08617
-6.07505
-6.07138
-6.06259
-6.05977
-6.05322
-6.05128
-6.04729
-6.04583
-6.04192
-6.04064
-6.03761
-6.03675
-6.03509
-6.03484
-6.03513
-6.03575
-6.03886
-6.04082
-6.04836
-6.05254
-6.06777
-6.07617
-6.10671
-6.12493
-6.19377
-6.24642
-6.4737
-6.82326
-6.98524
-7.52309
-7.79909
-8.7595
-8.94148
-8.96986
-8.97474
-8.97566
-14.7799
-11.3837
-10.9103
-9.52938
-9.33432
-8.65622
-8.55623
-8.1808
-8.12682
-7.933
-7.89568
-7.69717
-7.66064
-7.47907
-7.44595
-7.28269
-7.25297
-7.10675
-7.08019
-6.94983
-6.92622
-6.81077
-6.78994
-6.6884
-6.6701
-6.58101
-6.56484
-6.48493
-6.46914
-6.38004
-6.30081
-6.28913
-6.24138
-6.23334
-6.19675
-6.19044
-6.16115
-6.15606
-6.13228
-6.12814
-6.10876
-6.10538
-6.0896
-6.08686
-6.07411
-6.07191
-6.06183
-6.06014
-6.05261
-6.05147
-6.04697
-6.04611
-6.04159
-6.04081
-6.03732
-6.03679
-6.03488
-6.03472
-6.03501
-6.03537
-6.03887
-6.04002
-6.04854
-6.05098
-6.06814
-6.07297
-6.10701
-6.11705
-6.19132
-6.21843
-6.45427
-6.8413
-6.93521
-7.54501
-7.7167
-8.86629
-8.97792
-8.97917
-8.97701
-8.97633
-15.3349
-11.0364
-10.9761
-9.35666
-9.36857
-8.57271
-8.57839
-8.13499
-8.13825
-7.91273
-7.91447
-7.67729
-7.67736
-7.4607
-7.46085
-7.26612
-7.26628
-7.09188
-7.09202
-6.93653
-6.93666
-6.79896
-6.79908
-6.678
-6.67814
-6.57199
-6.57231
-6.47764
-6.479
-6.3784
-6.29065
-6.29224
-6.23601
-6.23632
-6.19283
-6.19293
-6.15805
-6.1581
-6.12977
-6.12981
-6.10671
-6.10674
-6.08792
-6.08795
-6.07274
-6.07276
-6.06073
-6.06074
-6.05175
-6.05178
-6.0465
-6.04653
-6.04111
-6.0411
-6.03691
-6.0369
-6.03459
-6.03458
-6.03489
-6.03486
-6.03898
-6.03892
-6.04897
-6.04883
-6.069
-6.0686
-6.10828
-6.10659
-6.19076
-6.18209
-6.4288
-6.87107
-6.86456
-7.58446
-7.59519
-9.0146
-9.01877
-8.98862
-8.97923
-8.97696
-16.0618
-10.5195
-11.1043
-9.1187
-9.43513
-8.45714
-8.61851
-8.07132
-8.15883
-7.88338
-7.94282
-7.64791
-7.70275
-7.43365
-7.48354
-7.24175
-7.28657
-7.07002
-7.11008
-6.91701
-6.95261
-6.78164
-6.81308
-6.66276
-6.69044
-6.55872
-6.58358
-6.46651
-6.49293
-6.37625
-6.27691
-6.29765
-6.22838
-6.24105
-6.18716
-6.19681
-6.15354
-6.16127
-6.12612
-6.1324
-6.10373
-6.10884
-6.0855
-6.08964
-6.07077
-6.07409
-6.05915
-6.0617
-6.05053
-6.05231
-6.04583
-6.04716
-6.04041
-6.04155
-6.03633
-6.03709
-6.03421
-6.03442
-6.03479
-6.03419
-6.03925
-6.03742
-6.0498
-6.04587
-6.07069
-6.06263
-6.1112
-6.0927
-6.19391
-6.13553
-6.39551
-6.91878
-6.76484
-7.65227
-7.41734
-9.21952
-9.06099
-8.99724
-8.98116
-8.97751
-17.0105
-9.75747
-11.3353
-8.78865
-9.55346
-8.29599
-8.68698
-7.98226
-8.19393
-7.84062
-7.98534
-7.60455
-7.74109
-7.39384
-7.5179
-7.20591
-7.31731
-7.0379
-7.13746
-6.88834
-6.97682
-6.75622
-6.83434
-6.64039
-6.70911
-6.53918
-6.60053
-6.44964
-6.5126
-6.3734
-6.25836
-6.30667
-6.21747
-6.24845
-6.17895
-6.2028
-6.147
-6.16616
-6.12081
-6.13639
-6.0994
-6.11209
-6.08197
-6.09226
-6.06792
-6.07614
-6.05687
-6.0632
-6.04879
-6.05317
-6.04484
-6.04812
-6.0394
-6.04226
-6.03551
-6.03743
-6.03371
-6.03426
-6.03472
-6.03329
-6.0398
-6.03535
-6.05128
-6.04175
-6.07369
-6.0544
-6.1168
-6.07402
-6.20344
-6.07624
-6.35168
-6.99359
-6.62347
-7.76498
-7.158
-9.50286
-9.09943
-9.00395
-8.9826
-8.97791
-18.2492
-8.64219
-11.7313
-8.32609
-9.75264
-8.06887
-8.79923
-7.8565
-8.25159
-7.7779
-8.04885
-7.54045
-7.79875
-7.33514
-7.56965
-7.1531
-7.36364
-6.99058
-7.17874
-6.84613
-7.01336
-6.71881
-6.86645
-6.60748
-6.73728
-6.51035
-6.62594
-6.42417
-6.54031
-6.36956
-6.23326
-6.32116
-6.20173
-6.25984
-6.16698
-6.21196
-6.13744
-6.17361
-6.11305
-6.14246
-6.09307
-6.11703
-6.07681
-6.09624
-6.06374
-6.07928
-6.05355
-6.06553
-6.04629
-6.05452
-6.04338
-6.04955
-6.03791
-6.04333
-6.03434
-6.03799
-6.03303
-6.03409
-6.03472
-6.03206
-6.04078
-6.03245
-6.05378
-6.03597
-6.07873
-6.04288
-6.1266
-6.04844
-6.22323
-6.00084
-6.2932
-7.10888
-6.42164
-7.94764
-6.7806
-9.89618
-9.12558
-9.00774
-8.98341
-8.97817
)
;

boundaryField
{
    F1_1
    {
        type            calculated;
        value           nonuniform List<scalar> 
80
(
18.9514
7.97369
11.9796
8.04121
9.87624
7.90496
8.86824
7.71495
8.2891
7.55149
7.90352
7.48956
7.75873
7.28692
7.55908
7.11027
7.3656
6.95322
7.18621
6.81367
7.023
6.69067
6.87662
6.58317
6.74721
6.48936
6.63566
6.40582
6.552
6.36463
6.21734
6.32764
6.1911
6.26483
6.1588
6.21598
6.13088
6.17688
6.10772
6.14513
6.08873
6.11921
6.07327
6.098
6.06087
6.08065
6.05127
6.06651
6.04454
6.055
6.04225
6.0501
6.03682
6.04372
6.03347
6.03811
6.03249
6.03382
6.03462
6.0312
6.04131
6.03063
6.05525
6.03248
6.0818
6.03607
6.13273
6.03354
6.23622
5.95856
6.25963
7.17862
6.30276
8.06022
6.55695
10.125
9.13426
9.00876
8.98363
8.97824
)
;
    }
    F1_2
    {
        type            calculated;
        value           nonuniform List<scalar> 
80
(
-19.3846
-7.90661
-12.4925
-7.04494
-9.80477
-6.15391
-8.07552
-5.34058
-6.77003
-4.70954
-5.71022
-4.4578
-5.26793
-3.83923
-4.65702
-3.3162
-4.07
-2.8677
-3.53893
-2.48081
-3.06972
-2.14631
-2.65984
-1.85635
-2.30455
-1.60287
-2.0019
-1.3747
-1.77789
-1.2618
-0.838173
-1.15623
-0.751145
-0.973062
-0.646053
-0.825251
-0.55232
-0.702323
-0.471602
-0.598544
-0.402679
-0.510391
-0.344143
-0.435312
-0.294919
-0.371264
-0.254605
-0.316489
-0.224233
-0.269335
-0.211827