/*--------------------------------*- C++ -*----------------------------------*\
| =========                 |                                                 |
| \\      /  F ield         | OpenFOAM: The Open Source CFD Toolbox           |
|  \\    /   O peration     | Version:  5.x                                   |
|   \\  /    A nd           | Web:      www.OpenFOAM.org                      |
|    \\/     M anipulation  |                                                 |
\*---------------------------------------------------------------------------*/
FoamFile
{
    version     2.0;
    format      ascii;
    class       volScalarField;
    location    "6.6";
    object      T;
}
// * * * * * * * * * * * * * * * * * * * * * * * * * * * * * * * * * * * * * //

dimensions      [0 0 0 1 0 0 0];

internalField   nonuniform List<scalar> 
3200
(
2.08495
2.43611
2.45614
2.60098
2.61016
2.68248
2.68729
2.72915
2.73202
2.75853
2.76029
2.77562
2.77696
2.79369
2.79505
2.811
2.81228
2.82696
2.82812
2.84139
2.84243
2.85427
2.8552
2.86566
2.86648
2.87568
2.87641
2.88469
2.88542
2.8942
2.9019
2.90245
2.90743
2.9078
2.9116
2.91188
2.91492
2.91515
2.91762
2.91781
2.91982
2.91997
2.92161
2.92174
2.92306
2.92316
2.92421
2.92428
2.92506
2.92512
2.92558
2.92562
2.92609
2.92613
2.92649
2.92651
2.92671
2.92672
2.92668
2.92666
2.92629
2.92624
2.92534
2.92523
2.92343
2.9232
2.91961
2.91911
2.9112
2.90982
2.88732
2.84807
2.84369
2.77988
2.77237
2.65303
2.64807
2.64744
2.64732
2.64729
2.26042
2.52909
2.57094
2.68682
2.7064
2.76423
2.7745
2.80786
2.81397
2.83504
2.83879
2.85107
2.85394
2.86717
2.87006
2.88269
2.8854
2.89703
2.8995
2.91001
2.91223
2.92161
2.92359
2.93187
2.93361
2.94091
2.94246
2.94906
2.95062
2.95789
2.96436
2.96555
2.96952
2.97031
2.97333
2.97393
2.97635
2.97683
2.97879
2.97919
2.98078
2.98111
2.98241
2.98267
2.98372
2.98393
2.98476
2.98492
2.98554
2.98565
2.98602
2.98611
2.98648
2.98655
2.98684
2.98689
2.98704
2.98706
2.98703
2.98699
2.98669
2.98658
2.98587
2.98562
2.98418
2.98369
2.98081
2.97974
2.97331
2.97025
2.95059
2.91846
2.90909
2.85823
2.84241
2.7497
2.73924
2.73751
2.73715
2.73707
2.42515
2.63115
2.68279
2.77651
2.8011
2.84788
2.86077
2.88766
2.89532
2.91224
2.91694
2.92691
2.9305
2.94107
2.94467
2.95478
2.95817
2.96747
2.97056
2.97897
2.98175
2.98925
2.99172
2.99835
3.00053
3.00637
3.00832
3.01362
3.01559
3.02161
3.02703
3.02854
3.03175
3.03273
3.03515
3.03591
3.03784
3.03845
3.04002
3.04052
3.0418
3.0422
3.04324
3.04357
3.04441
3.04467
3.04534
3.04554
3.04603
3.04617
3.04648
3.04658
3.04688
3.04697
3.0472
3.04726
3.04738
3.0474
3.04737
3.04733
3.04709
3.04695
3.04637
3.04606
3.0449
3.04428
3.04194
3.04059
3.03527
3.03134
3.01436
2.98794
2.97616
2.93518
2.91553
2.84308
2.83006
2.82752
2.82697
2.82685
2.58163
2.73938
2.79295
2.86897
2.89492
2.93289
2.94649
2.96823
2.97629
2.98993
2.99488
3.00299
3.00677
3.01525
3.01903
3.02714
3.03069
3.03816
3.0414
3.04815
3.05107
3.0571
3.05969
3.06501
3.0673
3.07199
3.07404
3.07831
3.0804
3.08536
3.08986
3.09146
3.09406
3.0951
3.09704
3.09784
3.0994
3.10004
3.1013
3.10182
3.10285
3.10327
3.10411
3.10445
3.10513
3.1054
3.10593
3.10615
3.10654
3.10669
3.10694
3.10705
3.10728
3.10738
3.10756
3.10762
3.10772
3.10774
3.10772
3.10767
3.10748
3.10733
3.10686
3.10654
3.10559
3.10494
3.10303
3.1016
3.09718
3.09295
3.0785
3.05683
3.04439
3.01128
2.99075
2.93409
2.92046
2.91746
2.91677
2.91662
2.7318
2.85178
2.90221
2.96343
2.98826
3.01888
3.03188
3.04935
3.05705
3.06796
3.0727
3.07925
3.08287
3.08961
3.09322
3.09968
3.10306
3.10902
3.11211
3.11749
3.12027
3.12508
3.12754
3.13179
3.13397
3.13772
3.13967
3.14309
3.1451
3.14913
3.1528
3.15435
3.15644
3.15742
3.15898
3.15974
3.16098
3.1616
3.1626
3.1631
3.16392
3.16432
3.16499
3.16532
3.16586
3.16612
3.16654
3.16675
3.16706
3.1672
3.1674
3.16751
3.16769
3.16778
3.16793
3.16799
3.16807
3.16808
3.16807
3.16802
3.16787
3.16772
3.16735
3.16704
3.16628
3.16566
3.16411
3.16272
3.15909
3.15498
3.14293
3.12536
3.11345
3.08687
3.06743
3.02337
3.01043
3.00729
3.00655
3.00639
2.87717
2.96696
3.01104
3.05935
3.08137
3.10556
3.1171
3.13086
3.13767
3.14624
3.15044
3.15563
3.15883
3.16411
3.16729
3.17234
3.17533
3.17999
3.18272
3.18693
3.18939
3.19315
3.19533
3.19865
3.20058
3.20352
3.20524
3.20793
3.20971
3.2129
3.21583
3.2172
3.21885
3.21973
3.22095
3.22163
3.2226
3.22314
3.22393
3.22436
3.22501
3.22536
3.22589
3.22618
3.2266
3.22683
3.22716
3.22734
3.22759
3.22771
3.22787
3.22796
3.22811
3.22819
3.2283
3.22836
3.22842
3.22843
3.22842
3.22838
3.22825
3.22813
3.22783
3.22756
3.22696
3.2264
3.22517
3.22394
3.22101
3.21732
3.20758
3.19366
3.18309
3.16218
3.14509
3.11141
3.10002
3.09704
3.09631
3.09615
3.01896
3.08396
3.11971
3.15632
3.17439
3.19276
3.20223
3.21264
3.21823
3.2247
3.22814
3.23209
3.23471
3.23868
3.24128
3.24509
3.24753
3.25104
3.25327
3.25645
3.25845
3.26129
3.26307
3.26557
3.26715
3.26936
3.27077
3.27281
3.27427
3.27669
3.27892
3.28005
3.2813
3.28202
3.28294
3.2835
3.28423
3.28467
3.28526
3.28562
3.28611
3.2864
3.28679
3.28703
3.28735
3.28754
3.28779
3.28793
3.28812
3.28822
3.28834
3.28842
3.28853
3.28859
3.28868
3.28872
3.28877
3.28878
3.28877
3.28873
3.28864
3.28854
3.28831
3.28809
3.28763
3.28718
3.28624
3.28522
3.28296
3.27991
3.2724
3.26182
3.25315
3.23733
3.22341
3.19856
3.18926
3.18669
3.18605
3.1859
3.15814
3.20214
3.22833
3.25403
3.2674
3.28031
3.28731
3.29462
3.29875
3.30328
3.30582
3.3086
3.31054
3.31331
3.31523
3.31789
3.31969
3.32214
3.32379
3.326
3.32749
3.32946
3.33078
3.33253
3.33369
3.33524
3.33628
3.33771
3.33879
3.34049
3.34206
3.3429
3.34377
3.34431
3.34495
3.34536
3.34587
3.3462
3.34661
3.34688
3.34721
3.34743
3.34771
3.34788
3.3481
3.34824
3.34842
3.34853
3.34866
3.34873
3.34881
3.34887
3.34895
3.34899
3.34905
3.34909
3.34912
3.34913
3.34912
3.34909
3.34903
3.34895
3.34879
3.34863
3.34831
3.34797
3.34731
3.34655
3.34494
3.34267
3.33735
3.32991
3.3235
3.31241
3.30217
3.28509
3.27824
3.27627
3.27576
3.27565
3.29556
3.32103
3.33698
3.35223
3.36042
3.3681
3.37239
3.37672
3.37925
3.38194
3.3835
3.38515
3.38634
3.38797
3.38915
3.39072
3.39182
3.39327
3.39428
3.39559
3.3965
3.39767
3.39847
3.39951
3.40022
3.40114
3.40177
3.40262
3.40328
3.40429
3.40522
3.40574
3.40626
3.40658
3.40697
3.40722
3.40752
3.40772
3.40796
3.40813
3.40833
3.40846
3.40862
3.40873
3.40886
3.40895
3.40905
3.40912
3.40919
3.40924
3.40929
3.40932
3.40937
3.4094
3.40943
3.40945
3.40947
3.40948
3.40947
3.40946
3.40942
3.40937
3.40928
3.40917
3.40898
3.40878
3.40838
3.40792
3.40695
3.40555
3.40238
3.39796
3.39403
3.38745
3.3812
3.37121
3.36702
3.36579
3.36547
3.36539
3.43197
3.4403
3.44566
3.45071
3.45347
3.45602
3.45746
3.4589
3.45975
3.46064
3.46117
3.46171
3.46211
3.46266
3.46305
3.46357
3.46394
3.46442
3.46476
3.4652
3.4655
3.46589
3.46616
3.4665
3.46674
3.46704
3.46726
3.46754
3.46776
3.4681
3.46841
3.46858
3.46875
3.46886
3.46899
3.46907
3.46917
3.46924
3.46932
3.46938
3.46944
3.46949
3.46954
3.46958
3.46962
3.46965
3.46968
3.46971
3.46973
3.46975
3.46976
3.46977
3.46979
3.4698
3.46981
3.46982
3.46982
3.46983
3.46982
3.46982
3.46981
3.46979
3.46976
3.46972
3.46966
3.46959
3.46946
3.4693
3.46898
3.46851
3.46745
3.46599
3.46466
3.46249
3.46038
3.45709
3.45569
3.45527
3.45516
3.45513
3.43129
3.4402
3.44637
3.45304
3.45712
3.46156
3.46439
3.46763
3.46972
3.47212
3.4736
3.47522
3.47642
3.47805
3.47924
3.48079
3.48189
3.48329
3.48426
3.4855
3.48636
3.48744
3.48818
3.48912
3.48978
3.4906
3.49119
3.49196
3.49257
3.49351
3.49438
3.49488
3.49539
3.49572
3.49611
3.49637
3.49669
3.49691
3.49718
3.49737
3.4976
3.49775
3.49795
3.49808
3.49824
3.49836
3.49849
3.49858
3.49869
3.49875
3.49883
3.49888
3.49896
3.49901
3.49909
3.49914
3.4992
3.49925
3.49931
3.49935
3.4994
3.49944
3.49948
3.49951
3.49954
3.49956
3.49957
3.49955
3.49948
3.4993
3.49885
3.49813
3.49735
3.49592
3.4944
3.49188
3.49079
3.49047
3.49038
3.49036
3.2935
3.3207
3.3391
3.35922
3.37135
3.38474
3.39315
3.40295
3.40916
3.4164
3.42079
3.42568
3.42924
3.43418
3.4377
3.44239
3.44565
3.44987
3.45278
3.45651
3.45906
3.46232
3.46454
3.46738
3.46933
3.47182
3.47357
3.47588
3.47771
3.48053
3.48317
3.48464
3.48618
3.48716
3.48833
3.48911
3.49008
3.49073
3.49155
3.4921
3.49279
3.49326
3.49385
3.49424
3.49474
3.49507
3.49548
3.49574
3.49607
3.49626
3.49649
3.49665
3.49688
3.49704
3.49726
3.49742
3.49762
3.49775
3.49793
3.49805
3.4982
3.4983
3.49843
3.49852
3.49862
3.49867
3.4987
3.49865
3.49843
3.49792
3.49657
3.49438
3.49206
3.48776
3.48323
3.47557
3.47234
3.47139
3.47114
3.47108
3.15463
3.20155
3.23176
3.26572
3.28552
3.30813
3.32186
3.33841
3.34855
3.3608
3.36797
3.3762
3.382
3.39036
3.39612
3.40404
3.40937
3.41651
3.42126
3.42756
3.43174
3.43724
3.44088
3.44568
3.44886
3.45307
3.45592
3.45982
3.46281
3.46756
3.472
3.4744
3.47699
3.47859
3.48057
3.48184
3.48348
3.48454
3.48592
3.48682
3.48799
3.48876
3.48975
3.4904
3.49123
3.49177
3.49247
3.4929
3.49345
3.49377
3.49415
3.49441
3.4948
3.49507
3.49544
3.49569
3.49603
3.49625
3.49655
3.49675
3.497
3.49717
3.49739
3.49753
3.4977
3.49778
3.49783
3.49775
3.4974
3.49658
3.49432
3.49064
3.48686
3.47961
3.47219
3.45908
3.45381
3.45228
3.45189
3.45181
3.01388
3.08308
3.12427
3.17279
3.19959
3.23187
3.25046
3.27412
3.28786
3.30539
3.3151
3.32681
3.33467
3.34664
3.35445
3.3658
3.37302
3.38325
3.38968
3.39871
3.40436
3.41224
3.41717
3.42404
3.42835
3.43437
3.43823
3.4438
3.44784
3.4546
3.46091
3.46416
3.46784
3.47
3.47284
3.47456
3.4769
3.47835
3.48032
3.48154
3.48321
3.48425
3.48567
3.48654
3.48774
3.48847
3.48947
3.49006
3.49084
3.49127
3.49181
3.49217
3.49273
3.49309
3.49363
3.49396
3.49445
3.49475
3.49517
3.49544
3.49581
3.49604
3.49635
3.49654
3.49678
3.49689
3.49697
3.49686
3.49639
3.49529
3.49213
3.4869
3.4818
3.47147
3.46137
3.44228
3.43512
3.43313
3.43264
3.43252
2.87036
2.96572
3.01649
3.08072
3.11343
3.15615
3.17885
3.21023
3.22702
3.25031
3.26215
3.27758
3.28717
3.30309
3.31264
3.32772
3.33655
3.35013
3.358
3.36998
3.37689
3.38736
3.39338
3.4025
3.40776
3.41576
3.42047
3.42784
3.43275
3.44166
3.44995
3.45389
3.45876
3.46139
3.46515
3.46725
3.47036
3.47212
3.47475
3.47624
3.47846
3.47972
3.48161
3.48268
3.48427
3.48517
3.48648
3.48721
3.48824
3.48878
3.48948
3.48992
3.49066
3.49111
3.49182
3.49223
3.49287
3.49324
3.49381
3.49413
3.49462
3.4949
3.49532
3.49555
3.49587
3.49601
3.49612
3.49599
3.4954
3.49408
3.49003
3.48315
3.47695
3.46332
3.45092
3.42501
3.41622
3.41392
3.41336
3.41323
2.72303
2.85014
2.90816
2.98992
3.02687
3.08124
3.1069
3.14692
3.16592
3.19567
3.20906
3.22858
3.23941
3.25979
3.27061
3.28989
3.29988
3.31725
3.32615
3.34146
3.34928
3.36265
3.36947
3.38112
3.38707
3.39729
3.40261
3.41197
3.41751
3.42874
3.43915
3.44359
3.44976
3.45273
3.45752
3.45991
3.46388
3.46587
3.46922
3.4709
3.47374
3.47517
3.47758
3.47879
3.48083
3.48184
3.48352
3.48434
3.48567
3.48627
3.48716
3.48766
3.48861
3.48911
3.49002
3.49049
3.49131
3.49173
3.49245
3.49282
3.49344
3.49376
3.49429
3.49455
3.49496
3.49512
3.49528
3.49514
3.49444
3.49299
3.48803
3.47938
3.47239
3.45512
3.441
3.40705
3.39706
3.39464
3.39407
3.39394
2.57061
2.73733
2.79889
2.90091
2.93962
3.00748
3.03437
3.08445
3.10439
3.1417
3.15572
3.17992
3.19127
3.21688
3.22824
3.25244
3.26293
3.2847
3.29405
3.31324
3.32145
3.33821
3.34536
3.35996
3.36621
3.379
3.38458
3.39626
3.40204
3.41585
3.4286
3.43322
3.44089
3.444
3.45
3.4525
3.45747
3.45956
3.46376
3.46552
3.46908
3.47058
3.4736
3.47487
3.47742
3.47849
3.4806
3.48146
3.48312
3.48375
3.48486
3.48538
3.48657
3.4871
3.48824
3.48873
3.48976
3.4902
3.4911
3.49149
3.49228
3.49261
3.49328
3.49355
3.49407
3.49424
3.49445
3.49431
3.49351
3.49203
3.48619
3.47554
3.46824
3.44679
3.43188
3.38813
3.37761
3.37529
3.37476
3.37464
2.41152
2.62873
2.688
2.81443
2.8512
2.93535
2.96091
3.02319
3.04216
3.08865
3.10197
3.13178
3.14257
3.17453
3.18536
3.21553
3.22552
3.25265
3.26155
3.28546
3.29327
3.31415
3.32096
3.33914
3.34509
3.36101
3.36631
3.38079
3.38625
3.40301
3.41837
3.42272
3.4322
3.43516
3.44261
3.44499
3.45118
3.45317
3.45839
3.46007
3.46451
3.46593
3.4697
3.4709
3.47408
3.47509
3.47772
3.47854
3.48062
3.48122
3.48258
3.48308
3.48456
3.48507
3.48648
3.48695
3.48823
3.48865
3.48978
3.49015
3.49113
3.49145
3.49228
3.49254
3.49319
3.49335
3.49363
3.49351
3.4926
3.49125
3.48453
3.47157
3.46466
3.4382
3.42392
3.36789
3.35782
3.35586
3.35543
3.35534
2.24375
2.52644
2.57442
2.73154
2.76089
2.86557
2.88598
2.96366
2.97883
3.03693
3.04757
3.0844
3.09301
3.13303
3.1417
3.17943
3.18742
3.22133
3.22845
3.25833
3.26457
3.29065
3.2961
3.31881
3.32356
3.34343
3.34767
3.36568
3.37001
3.39022
3.40859
3.41202
3.42377
3.42613
3.43542
3.43732
3.44505
3.44664
3.45317
3.45451
3.46005
3.46119
3.46589
3.46686
3.47082
3.47163
3.47492
3.47558
3.47817
3.47865
3.48034
3.48073
3.48259
3.483
3.48477
3.48514
3.48674
3.48708
3.48849
3.48878
3.49001
3.49026
3.4913
3.49151
3.49233
3.49246
3.49283
3.49274
3.49172
3.49068
3.48313
3.46735
3.46187
3.42913
3.41762
3.3458
3.33771
3.33637
3.3361
3.33604
2.06466
2.43355
2.45648
2.65376
2.66756
2.79916
2.80876
2.90664
2.91378
2.98711
2.99211
3.03815
3.0422
3.09279
3.09688
3.14452
3.14829
3.19108
3.19444
3.23213
3.23508
3.26798
3.27055
3.2992
3.30144
3.32649
3.32848
3.35111
3.35313
3.37751
3.3994
3.40099
3.41572
3.41683
3.42853
3.42943
3.43917
3.43992
3.44815
3.44878
3.45577
3.45631
3.46223
3.46269
3.46769
3.46807
3.47222
3.47253
3.47581
3.47603
3.47814
3.47833
3.48068
3.48087
3.48311
3.48328
3.4853
3.48546
3.48724
3.48738
3.48892
3.48904
3.49036
3.49046
3.49149
3.49156
3.49205
3.49201
3.49083
3.49037
3.48206
3.46272
3.46016
3.41921
3.41373
3.32116
3.31733
3.31684
3.31675
3.31673
2.06466
2.43355
2.45648
2.65376
2.66756
2.79916
2.80876
2.90664
2.91378
2.98711
2.99211
3.03815
3.0422
3.09279
3.09687
3.14452
3.14829
3.19108
3.19444
3.23213
3.23508
3.26798
3.27055
3.2992
3.30144
3.32649
3.32848
3.35111
3.35313
3.37751
3.3994
3.40099
3.41572
3.41683
3.42853
3.42943
3.43917
3.43992
3.44815
3.44878
3.45577
3.45631
3.46223
3.46269
3.46769
3.46807
3.47222
3.47253
3.47581
3.47603
3.47814
3.47833
3.48068
3.48087
3.48311
3.48328
3.4853
3.48546
3.48724
3.48738
3.48892
3.48904
3.49036
3.49046
3.49149
3.49156
3.49205
3.49201
3.49083
3.49037
3.48206
3.46272
3.46016
3.41921
3.41374
3.32117
3.31733
3.31685
3.31675
3.31673
2.24375
2.52644
2.57442
2.73154
2.76088
2.86557
2.88598
2.96366
2.97883
3.03693
3.04756
3.0844
3.09301
3.13303
3.1417
3.17943
3.18742
3.22133
3.22845
3.25832
3.26457
3.29065
3.2961
3.31881
3.32356
3.34343
3.34767
3.36568
3.37001
3.39022
3.40859
3.41202
3.42377
3.42613
3.43542
3.43732
3.44505
3.44664
3.45317
3.45451
3.46005
3.46119
3.46589
3.46686
3.47082
3.47163
3.47492
3.47558
3.47817
3.47865
3.48034
3.48073
3.48259
3.483
3.48477
3.48514
3.48674
3.48708
3.48849
3.48878
3.49001
3.49026
3.4913
3.49151
3.49233
3.49246
3.49283
3.49274
3.49172
3.49068
3.48313
3.46735
3.46187
3.42913
3.41762
3.3458
3.33771
3.33637
3.3361
3.33604
2.41152
2.62873
2.688
2.81443
2.8512
2.93535
2.96091
3.02319
3.04216
3.08865
3.10197
3.13178
3.14257
3.17453
3.18535
3.21553
3.22552
3.25265
3.26155
3.28546
3.29327
3.31415
3.32096
3.33914
3.34509
3.36101
3.36631
3.38079
3.38625
3.40301
3.41837
3.42272
3.4322
3.43516
3.44261
3.44499
3.45118
3.45317
3.45839
3.46007
3.46451
3.46593
3.4697
3.4709
3.47408
3.47509
3.47772
3.47854
3.48061
3.48121
3.48258
3.48308
3.48456
3.48507
3.48648
3.48695
3.48823
3.48865
3.48978
3.49015
3.49113
3.49145
3.49228
3.49254
3.49319
3.49335
3.49363
3.49351
3.4926
3.49125
3.48453
3.47157
3.46466
3.43821
3.42392
3.36789
3.35782
3.35586
3.35544
3.35534
2.57061
2.73733
2.79889
2.90091
2.93962
3.00748
3.03437
3.08445
3.10439
3.1417
3.15572
3.17992
3.19127
3.21688
3.22824
3.25244
3.26293
3.2847
3.29405
3.31324
3.32145
3.33821
3.34536
3.35996
3.36621
3.379
3.38458
3.39626
3.40204
3.41585
3.4286
3.43322
3.44089
3.444
3.45
3.4525
3.45747
3.45956
3.46376
3.46552
3.46908
3.47058
3.4736
3.47487
3.47742
3.47849
3.4806
3.48146
3.48312
3.48375
3.48486
3.48538
3.48657
3.4871
3.48824
3.48873
3.48976
3.4902
3.4911
3.49149
3.49228
3.49261
3.49328
3.49355
3.49407
3.49424
3.49445
3.49431
3.49351
3.49203
3.48619
3.47554
3.46824
3.44679
3.43188
3.38813
3.37761
3.37529
3.37476
3.37464
2.72303
2.85014
2.90816
2.98992
3.02687
3.08124
3.1069
3.14692
3.16592
3.19567
3.20906
3.22857
3.23941
3.25979
3.27061
3.28989
3.29988
3.31725
3.32615
3.34146
3.34928
3.36265
3.36947
3.38112
3.38707
3.39728
3.40261
3.41197
3.41751
3.42874
3.43915
3.44359
3.44976
3.45273
3.45752
3.45991
3.46388
3.46587
3.46922
3.4709
3.47374
3.47517
3.47758
3.47879
3.48083
3.48184
3.48352
3.48434
3.48567
3.48627
3.48716
3.48766
3.48861
3.48911
3.49002
3.49049
3.49131
3.49173
3.49245
3.49282
3.49344
3.49376
3.49429
3.49455
3.49496
3.49512
3.49528
3.49514
3.49444
3.49299
3.48803
3.47938
3.47239
3.45512
3.44101
3.40705
3.39707
3.39464
3.39407
3.39394
2.87036
2.96572
3.01649
3.08072
3.11343
3.15615
3.17885
3.21023
3.22702
3.2503
3.26215
3.27758
3.28717
3.30309
3.31264
3.32772
3.33655
3.35013
3.358
3.36998
3.37689
3.38736
3.39338
3.4025
3.40776
3.41576
3.42047
3.42784
3.43275
3.44166
3.44995
3.45389
3.45876
3.46139
3.46515
3.46725
3.47036
3.47212
3.47475
3.47624
3.47846
3.47972
3.48161
3.48268
3.48427
3.48517
3.48648
3.48721
3.48824
3.48878
3.48948
3.48992
3.49066
3.49111
3.49182
3.49223
3.49287
3.49324
3.49381
3.49413
3.49462
3.4949
3.49532
3.49555
3.49587
3.49601
3.49612
3.49599
3.4954
3.49408
3.49003
3.48315
3.47695
3.46332
3.45092
3.42501
3.41622
3.41392
3.41336
3.41323
3.01388
3.08308
3.12427
3.17279
3.19959
3.23187
3.25046
3.27412
3.28786
3.30539
3.3151
3.32681
3.33467
3.34664
3.35445
3.3658
3.37302
3.38325
3.38968
3.39871
3.40436
3.41224
3.41717
3.42404
3.42835
3.43437
3.43823
3.4438
3.44784
3.4546
3.46091
3.46416
3.46784
3.47
3.47284
3.47456
3.4769
3.47835
3.48032
3.48154
3.48321
3.48425
3.48567
3.48654
3.48774
3.48847
3.48947
3.49006
3.49084
3.49127
3.49181
3.49217
3.49273
3.49309
3.49363
3.49396
3.49445
3.49475
3.49517
3.49544
3.49581
3.49604
3.49635
3.49654
3.49678
3.49689
3.49697
3.49686
3.49639
3.49529
3.49213
3.4869
3.4818
3.47147
3.46137
3.44229
3.43512
3.43313
3.43264
3.43252
3.15463
3.20155
3.23176
3.26572
3.28552
3.30813
3.32186
3.33841
3.34855
3.3608
3.36797
3.3762
3.382
3.39036
3.39612
3.40404
3.40937
3.41651
3.42126
3.42756
3.43174
3.43724
3.44088
3.44568
3.44886
3.45307
3.45592
3.45982
3.46281
3.46756
3.472
3.4744
3.47699
3.47859
3.48057
3.48184
3.48348
3.48454
3.48592
3.48682
3.48799
3.48876
3.48975
3.4904
3.49123
3.49177
3.49247
3.4929
3.49345
3.49377
3.49415
3.49441
3.4948
3.49507
3.49544
3.49569
3.49603
3.49625
3.49655
3.49675
3.497
3.49717
3.49739
3.49753
3.4977
3.49778
3.49783
3.49775
3.4974
3.49658
3.49432
3.49064
3.48686
3.47961
3.47219
3.45908
3.45381
3.45228
3.45189
3.45181
3.2935
3.3207
3.3391
3.35922
3.37135
3.38474
3.39315
3.40295
3.40916
3.4164
3.42079
3.42568
3.42924
3.43418
3.4377
3.44239
3.44565
3.44987
3.45278
3.45651
3.45906
3.46232
3.46454
3.46738
3.46933
3.47182
3.47357
3.47588
3.47771
3.48053
3.48317
3.48464
3.48618
3.48716
3.48833
3.48911
3.49008
3.49073
3.49155
3.4921
3.49279
3.49326
3.49385
3.49424
3.49474
3.49507
3.49548
3.49574
3.49607
3.49626
3.49649
3.49665
3.49688
3.49704
3.49726
3.49742
3.49762
3.49775
3.49793
3.49805
3.4982
3.4983
3.49843
3.49852
3.49862
3.49867
3.4987
3.49865
3.49843
3.49792
3.49657
3.49438
3.49206
3.48776
3.48323
3.47557
3.47234
3.47139
3.47114
3.47108
3.43129
3.4402
3.44637
3.45304
3.45712
3.46156
3.46439
3.46763
3.46972
3.47212
3.4736
3.47522
3.47642
3.47805
3.47924
3.48079
3.48189
3.48329
3.48426
3.4855
3.48636
3.48743
3.48818
3.48912
3.48978
3.4906
3.49119
3.49196
3.49257
3.49351
3.49438
3.49488
3.49539
3.49572
3.49611
3.49637
3.49669
3.49691
3.49718
3.49737
3.4976
3.49775
3.49795
3.49808
3.49824
3.49836
3.49849
3.49858
3.49869
3.49875
3.49883
3.49888
3.49896
3.49901
3.49909
3.49914
3.4992
3.49925
3.49931
3.49935
3.4994
3.49944
3.49948
3.49951
3.49954
3.49956
3.49957
3.49955
3.49948
3.4993
3.49885
3.49813
3.49735
3.49592
3.4944
3.49188
3.49079
3.49047
3.49038
3.49036
3.43195
3.44028
3.44562
3.45066
3.4534
3.4559
3.4573
3.45865
3.45941
3.46015
3.46067
3.46135
3.46183
3.46245
3.46289
3.46345
3.46384
3.46434
3.46469
3.46514
3.46545
3.46584
3.46612
3.46647
3.46671
3.46702
3.46724
3.46752
3.46774
3.46808
3.46839
3.46857
3.46874
3.46885
3.46898
3.46907
3.46917
3.46923
3.46932
3.46937
3.46944
3.46948
3.46954
3.46957
3.46962
3.46965
3.46968
3.4697
3.46973
3.46974
3.46976
3.46977
3.46979
3.4698
3.46981
3.46982
3.46982
3.46982
3.46982
3.46982
3.4698
3.46979
3.46976
3.46972
3.46966
3.46959
3.46946
3.4693
3.46898
3.46851
3.46745
3.46599
3.46466
3.46249
3.46038
3.45709
3.45569
3.45527
3.45516
3.45513
3.29551
3.32096
3.33688
3.35207
3.3602
3.36776
3.37191
3.37599
3.37824
3.38047
3.38201
3.38405
3.38548
3.38735
3.38865
3.39034
3.39151
3.39302
3.39407
3.39542
3.39635
3.39754
3.39836
3.39941
3.40013
3.40106
3.40171
3.40256
3.40323
3.40425
3.40519
3.40571
3.40623
3.40656
3.40695
3.4072
3.4075
3.4077
3.40795
3.40811
3.40832
3.40845
3.40861
3.40872
3.40885
3.40894
3.40904
3.40911
3.40919
3.40923
3.40928
3.40932
3.40936
3.40939
3.40943
3.40945
3.40947
3.40947
3.40947
3.40945
3.40941
3.40937
3.40927
3.40917
3.40898
3.40878
3.40838
3.40792
3.40695
3.40555
3.40238
3.39796
3.39403
3.38745
3.3812
3.37121
3.36702
3.36579
3.36547
3.36539
3.15805
3.20202
3.22816
3.25376
3.26703
3.27974
3.28652
3.29339
3.29706
3.30082
3.30332
3.30677
3.30911
3.31228
3.31441
3.31726
3.31917
3.32173
3.32343
3.32571
3.32723
3.32925
3.33059
3.33237
3.33354
3.33511
3.33617
3.33761
3.3387
3.34042
3.342
3.34284
3.34373
3.34427
3.34492
3.34533
3.34584
3.34617
3.34659
3.34686
3.3472
3.34741
3.34769
3.34787
3.34809
3.34823
3.34841
3.34852
3.34865
3.34872
3.34881
3.34886
3.34894
3.34899
3.34905
3.34908
3.34911
3.34912
3.34912
3.34909
3.34903
3.34895
3.34879
3.34863
3.34831
3.34797
3.34731
3.34655
3.34494
3.34267
3.33735
3.32991
3.32349
3.31241
3.30217
3.28509
3.27824
3.27627
3.27576
3.27565
3.01884
3.08379
3.11947
3.15595
3.17388
3.19197
3.20113
3.21092
3.21589
3.22121
3.2246
3.22954
3.23271
3.23725
3.24013
3.24422
3.2468
3.25046
3.25278
3.25604
3.2581
3.26099
3.2628
3.26534
3.26694
3.26918
3.27061
3.27267
3.27414
3.27659
3.27884
3.27998
3.28124
3.28197
3.28289
3.28345
3.28419
3.28463
3.28523
3.28559
3.28608
3.28638
3.28677
3.28701
3.28733
3.28752
3.28777
3.28792
3.28811
3.28821
3.28833
3.28841
3.28852
3.28858
3.28867
3.28871
3.28876
3.28877
3.28876
3.28873
3.28864
3.28853
3.28831
3.28808
3.28763
3.28717
3.28624
3.28522
3.28296
3.27991
3.2724
3.26182
3.25315
3.23733
3.22341
3.19856
3.18926
3.18669
3.18605
3.1859
2.87703
2.96674
3.01075
3.05888
3.08073
3.10455
3.11572
3.12865
3.1347
3.14168
3.14581
3.15238
3.15626
3.16228
3.16581
3.17123
3.1744
3.17925
3.18208
3.18641
3.18893
3.19277
3.19498
3.19836
3.20031
3.20329
3.20503
3.20775
3.20955
3.21277
3.21573
3.21711
3.21877
3.21966
3.22089
3.22157
3.22255
3.22309
3.22388
3.22433
3.22497
3.22533
3.22586
3.22615
3.22658
3.22681
3.22715
3.22733
3.22757
3.2277
3.22786
3.22795
3.2281
3.22818
3.22829
3.22835
3.22841
3.22842
3.22841
3.22837
3.22825
3.22812
3.22782
3.22755
3.22695
3.2264
3.22517
3.22393
3.22101
3.21732
3.20758
3.19366
3.18309
3.16218
3.14509
3.11141
3.10002
3.09704
3.09631
3.09615
2.73162
2.85151
2.90186
2.96286
2.9875
3.01763
3.03023
3.04665
3.05347
3.06227
3.06693
3.07533
3.07972
3.08742
3.09141
3.09834
3.10192
3.10813
3.11133
3.11686
3.11971
3.12461
3.12712
3.13144
3.13364
3.13744
3.13941
3.14288
3.1449
3.14896
3.15268
3.15423
3.15634
3.15734
3.15891
3.15967
3.16092
3.16154
3.16255
3.16305
3.16388
3.16428
3.16496
3.16529
3.16583
3.16609
3.16652
3.16673
3.16704
3.16719
3.16738
3.16749
3.16768
3.16777
3.16792
3.16798
3.16806
3.16808
3.16806
3.16801
3.16786
3.16772
3.16734
3.16703
3.16627
3.16565
3.1641
3.16272
3.15908
3.15498
3.14293
3.12536
3.11344
3.08687
3.06743
3.02337
3.01043
3.00729
3.00655
3.00639
2.58143
2.73906
2.79254
2.86829
2.89404
2.93142
2.94459
2.96503
2.97216
2.98302
2.9879
2.99844
3.00305
3.0127
3.01689
3.02558
3.02934
3.03712
3.04048
3.04742
3.0504
3.05655
3.05919
3.06459
3.06691
3.07167
3.07374
3.07805
3.08017
3.08517
3.08971
3.09133
3.09395
3.09499
3.09695
3.09776
3.09932
3.09997
3.10124
3.10176
3.1028
3.10323
3.10407
3.10441
3.10509
3.10537
3.10591
3.10612
3.10652
3.10667
3.10692
3.10703
3.10727
3.10736
3.10755
3.10761
3.10771
3.10773
3.10771
3.10766
3.10747
3.10732
3.10685
3.10653
3.10559
3.10494
3.10303
3.10159
3.09718
3.09295
3.0785
3.05683
3.04439
3.01128
2.99075
2.93409
2.92046
2.91745
2.91677
2.91662
2.42493
2.63078
2.68233
2.77572
2.80012
2.84618
2.85866
2.88395
2.8907
2.90402
2.90864
2.92178
2.92617
2.9382
2.94219
2.95302
2.95659
2.96629
2.96949
2.97813
2.98097
2.98863
2.99114
2.99788
3.00008
3.006
3.00797
3.01332
3.01532
3.0214
3.02686
3.02839
3.03162
3.03261
3.03505
3.03581
3.03776
3.03838
3.03996
3.04046
3.04174
3.04215
3.0432
3.04353
3.04437
3.04464
3.04531
3.04551
3.04601
3.04615
3.04645
3.04656
3.04686
3.04695
3.04718
3.04724
3.04737
3.04738
3.04736
3.04732
3.04708
3.04694
3.04636
3.04606
3.04489
3.04428
3.04194
3.04059
3.03527
3.03134
3.01435
2.98794
2.97615
2.93518
2.91552
2.84308
2.83006
2.82752
2.82697
2.82685
2.26019
2.52867
2.57045
2.68592
2.70534
2.76228
2.77222
2.8036
2.80898
2.82536
2.82904
2.84548
2.84899
2.86403
2.86722
2.88074
2.8836
2.89572
2.89828
2.90908
2.91135
2.92092
2.92292
2.93134
2.9331
2.94049
2.94206
2.94872
2.95031
2.95765
2.96417
2.96538
2.96938
2.97017
2.97321
2.97382
2.97625
2.97674
2.97872
2.97912
2.98072
2.98105
2.98236
2.98262
2.98368
2.98389
2.98473
2.98489
2.98551
2.98562
2.986
2.98608
2.98646
2.98653
2.98682
2.98687
2.98703
2.98704
2.98701
2.98698
2.98668
2.98657
2.98586
2.98562
2.98418
2.98369
2.98081
2.97974
2.9733
2.97024
2.95059
2.91845
2.90909
2.85823
2.84241
2.7497
2.73924
2.73751
2.73715
2.73707
2.08472
2.43563
2.45563
2.59995
2.60906
2.68026
2.68493
2.7243
2.72682
2.7472
2.74894
2.76969
2.77135
2.79033
2.79183
2.8089
2.81025
2.82553
2.82674
2.84037
2.84144
2.85351
2.85445
2.86507
2.8659
2.87522
2.87596
2.88433
2.88507
2.89393
2.9017
2.90225
2.90727
2.90764
2.91147
2.91176
2.91482
2.91505
2.91754
2.91773
2.91975
2.91991
2.92156
2.92168
2.92302
2.92312
2.92417
2.92425
2.92503
2.92509
2.92556
2.9256
2.92607
2.9261
2.92647
2.92649
2.92669
2.9267
2.92667
2.92665
2.92628
2.92623
2.92534
2.92522
2.92342
2.92319
2.9196
2.91911
2.9112
2.90981
2.88732
2.84806
2.84368
2.77988
2.77236
2.65302
2.64807
2.64744
2.64732
2.64729
)
;

boundaryField
{
    F1_1
    {
        type            fixedValue;
        value           nonuniform List<scalar> 
80
(
1.9902
2.39624
2.39624
2.56078
2.56078
2.64295
2.64295
2.69058
2.69058
2.72078
2.72078
2.73817
2.73817
2.75725
2.75725
2.77545
2.77545
2.79219
2.79219
2.80732
2.80732
2.82082
2.82082
2.83274
2.83274
2.84323
2.84323
2.85266
2.85266
2.86238
2.87082
2.87082
2.87647
2.87647
2.8808
2.8808
2.88427
2.88427
2.88708
2.88708
2.88938
2.88938
2.89125
2.89125
2.89276
2.89276
2.89395
2.89395
2.89484
2.89484
2.89537
2.89537
2.89591
2.89591
2.89632
2.89632
2.89655
2.89655
2.89651
2.89651
2.89609
2.89609
2.89507
2.89507
2.89302
2.89302
2.88894
2.88894
2.88002
2.88002
2.85602
2.81217
2.81217
2.73958
2.73958
2.6024
2.6024
2.6024
2.6024
2.6024
)
;
    }
    F1_2
    {
        type            fixedValue;
        value           nonuniform List<scalar> 
80
(
1.96774
2.39401
2.39401
2.61853
2.61853
2.76839
2.76839
2.87993
2.87993
2.96356
2.96356
3.01586
3.01586
3.07359
3.07359
3.12794
3.12794
3.17675
3.17675
3.21973
3.21973
3.25725
3.25725
3.28991
3.28991
3.31847
3.31847
3.34424
3.34424
3.3712
3.39521
3.39521
3.41196
3.41196
3.4253
3.4253
3.43641
3.43641
3.44579
3.44579
3.45375
3.45375
3.46051
3.46051
3.46621
3.46621
3.47095
3.47095
3.47468
3.47468
3.47708
3.47708
3.47977
3.47977
3.48232
3.48232
3.48461
3.48461
3.48664
3.48664
3.48841
3.48841
3.48991
3.48991
3.4911
3.4911
3.49167
3.49167
3.49037
3.49037
3.48174
3.46008
3.46008
3.41353
3.41353
3.30707
3.30707
3.30707
3.30707
3.30707
)
;
    }
    F1_3
    {
        type            fixedValue;
        value           nonuniform List<scalar> 
80
(
1.96774
2.39401
2.39401
2.61853
2.61853
2.76839
2.76839
2.87993
2.87993
2.96356
2.96356
3.01586
3.01586
3.07359
3.07359
3.12794
3.12794
3.17675
3.17675
3.21973
3.21973
3.25725
3.25725
3.28991
3.28991
3.31847
3.31847
3.34424
3.34424
3.3712
3.39521
3.39521
3.41196
3.41196
3.4253
3.4253
3.43641
3.43641
3.44579
3.44579
3.45375
3.45375
3.46051
3.46051
3.46621
3.46621
3.47095
3.47095
3.47468
3.47468
3.47708
3.47708
3.47977
3.47977
3.48232
3.48232
3.48461
3.48461
3.48664
3.48664
3.48841
3.48841
3.48991
3.48991
3.4911
3.4911
3.49167
3.49167
3.49037
3.49037
3.48174
3.46008
3.46008
3.41353
3.41353
3.30707
3.30707
3.30707
3.30707
3.30707
)
;
    }
    F1_4
    {
        type            fixedValue;
        value           nonuniform List<scalar> 
80
(
1.98996
2.39573
2.39573
2.55967
2.55967
2.64058
2.64058
2.68539
2.68539
2.7085
2.7085
2.73218
2.73218
2.75383
2.75383
2.77329
2.77329
2.79072
2.79072
2.80626
2.80626
2.82002
2.82002
2.83213
2.83213
2.84275
2.84275
2.85229
2.85229
2.86209
2.8706
2.8706
2.87631
2.87631
2.88067
2.88067
2.88416
2.88416
2.887
2.887
2.88931
2.88931
2.89119
2.89119
2.89271
2.89271
2.89391
2.89391
2.89481
2.89481
2.89535
2.89535
2.89588
2.89588
2.8963
2.8963
2.89653
2.89653
2.89649
2.89649
2.89608
2.89608
2.89506
2.89506
2.89301
2.89301
2.88894
2.88894
2.88002
2.88002
2.85602
2.81217
2.81217
2.73958
2.73958
2.6024
2.6024
2.6024
2.6024
2.6024
)
;
    }
    F2_1
    {
        type            fixedValue;
        value           uniform 3.5;
    }
    F2_2
    {
        type            fixedValue;
        value           uniform 3.5;
    }
    F2_3
    {
        type            fixedValue;
        value           uniform 3.5;
    }
    F2_4
    {
        type            fixedValue;
        value           uniform 3.5;
    }
    defaultFaces
    {
        type            empty;
    }
}


// ************************************************************************* //
