/*--------------------------------*- C++ -*----------------------------------*\
| =========                 |                                                 |
| \\      /  F ield         | OpenFOAM: The Open Source CFD Toolbox           |
|  \\    /   O peration     | Version:  5.x                                   |
|   \\  /    A nd           | Web:      www.OpenFOAM.org                      |
|    \\/     M anipulation  |                                                 |
\*---------------------------------------------------------------------------*/
FoamFile
{
    version     2.0;
    format      ascii;
    class       volScalarField;
    location    "20";
    object      gradTy;
}
// * * * * * * * * * * * * * * * * * * * * * * * * * * * * * * * * * * * * * //

dimensions      [0 -1 0 1 0 0 0];

internalField   nonuniform List<scalar> 
2048
(
-26.4237
-26.3961
-26.3417
-26.2621
-26.1593
-26.0359
-25.8946
-25.7384
-25.5698
-25.3916
-25.2061
-25.0155
-24.8217
-24.6263
-24.431
-24.2369
-24.0453
-23.857
-23.6729
-23.4933
-23.319
-23.15
-22.9868
-22.8296
-22.6786
-22.534
-22.3961
-22.2653
-22.1419
-22.0264
-21.9194
-21.8216
-21.7335
-21.6562
-21.5905
-21.5374
-21.4981
-21.4737
-21.4654
-21.4746
-21.5024
-21.5501
-21.619
-21.7101
-21.8245
-21.963
-22.1258
-22.3129
-22.5237
-22.7567
-23.0097
-23.2793
-23.5613
-23.8505
-24.1406
-24.4253
-24.6977
-24.9511
-25.1796
-25.3778
-25.5412
-25.6667
-25.7515
-25.7944
-26.446
-26.4178
-26.3622
-26.2808
-26.176
-26.0503
-25.9068
-25.7483
-25.5776
-25.3975
-25.2103
-25.0181
-24.8229
-24.6263
-24.4299
-24.235
-24.0426
-23.8537
-23.6691
-23.4892
-23.3145
-23.1454
-22.982
-22.8246
-22.6734
-22.5285
-22.3904
-22.2593
-22.1355
-22.0196
-21.9121
-21.8136
-21.7249
-21.6468
-21.5802
-21.5263
-21.486
-21.4606
-21.4514
-21.4595
-21.4863
-21.533
-21.601
-21.6913
-21.8051
-21.9432
-22.1061
-22.2937
-22.5057
-22.7406
-22.9962
-23.2693
-23.5556
-23.8496
-24.1451
-24.4352
-24.7129
-24.9713
-25.2041
-25.4058
-25.5721
-25.6994
-25.7856
-25.829
-26.4887
-26.4592
-26.4012
-26.3165
-26.2077
-26.0777
-25.9297
-25.767
-25.5923
-25.4085
-25.218
-25.0229
-24.8251
-24.6262
-24.4278
-24.2312
-24.0374
-23.8474
-23.6618
-23.4813
-23.3061
-23.1366
-22.9729
-22.8151
-22.6635
-22.5183
-22.3796
-22.2479
-22.1234
-22.0067
-21.8982
-21.7986
-21.7086
-21.629
-21.5609
-21.5052
-21.4632
-21.4359
-21.4248
-21.4309
-21.4558
-21.5006
-21.5668
-21.6556
-21.7682
-21.9056
-22.0685
-22.2571
-22.4711
-22.7095
-22.9701
-23.2499
-23.5442
-23.8477
-24.1534
-24.4542
-24.7422
-25.0101
-25.2511
-25.4595
-25.6309
-25.762
-25.8504
-25.895
-26.55
-26.5186
-26.457
-26.3673
-26.2526
-26.1163
-25.962
-25.793
-25.6127
-25.4237
-25.2286
-25.0293
-24.8279
-24.6258
-24.4246
-24.2256
-24.0298
-23.8382
-23.6515
-23.47
-23.2942
-23.1242
-22.96
-22.8018
-22.6497
-22.5039
-22.3646
-22.232
-22.1066
-21.9886
-21.8788
-21.7776
-21.6857
-21.6041
-21.5338
-21.4757
-21.4311
-21.4012
-21.3873
-21.3907
-21.4127
-21.4548
-21.5184
-21.6049
-21.7157
-21.852
-22.0147
-22.2044
-22.4213
-22.6644
-22.932
-23.2211
-23.5272
-23.8442
-24.1649
-24.481
-24.7841
-25.0657
-25.3185
-25.5365
-25.7151
-25.8512
-25.9429
-25.9889
-26.6284
-26.5944
-26.528
-26.4317
-26.3093
-26.1647
-26.002
-25.8252
-25.6376
-25.4422
-25.2413
-25.0369
-24.8309
-24.6249
-24.4202
-24.2181
-24.0199
-23.8264
-23.6382
-23.4557
-23.2791
-23.1085
-22.9439
-22.7852
-22.6326
-22.486
-22.3458
-22.2123
-22.0856
-21.9663
-21.8547
-21.7515
-21.6574
-21.5732
-21.5
-21.439
-21.3912
-21.3579
-21.3405
-21.3404
-21.3588
-21.3974
-21.4577
-21.5412
-21.6494
-21.784
-21.9462
-22.137
-22.3569
-22.6057
-22.882
-23.1829
-23.5039
-23.8386
-24.1787
-24.5151
-24.8377
-25.137
-25.4049
-25.6349
-25.8225
-25.9647
-26.0601
-26.1079
-26.723
-26.6858
-26.6132
-26.5085
-26.3763
-26.2213
-26.0485
-25.8622
-25.666
-25.463
-25.2554
-25.0452
-24.8339
-24.6232
-24.4144
-24.2088
-24.0077
-23.812
-23.6221
-23.4386
-23.2613
-23.0902
-22.9251
-22.7659
-22.6126
-22.4653
-22.3241
-22.1894
-22.0614
-21.9404
-21.8269
-21.7213
-21.6245
-21.5373
-21.4608
-21.3961
-21.3445
-21.3073
-21.2858
-21.2815
-21.2957
-21.33
-21.3862
-21.4658
-21.5708
-21.703
-21.8641
-22.0556
-22.2788
-22.5338
-22.82
-23.1348
-23.4738
-23.83
-24.1942
-24.5556
-24.9023
-25.2234
-25.5095
-25.7536
-25.9513
-26.1003
-26.1997
-26.2493
-26.8331
-26.7918
-26.7115
-26.5965
-26.4524
-26.285
-26.1002
-25.9028
-25.6969
-25.4853
-25.2703
-25.0536
-24.8365
-24.6206
-24.4071
-24.1976
-23.9933
-23.795
-23.6035
-23.4188
-23.2409
-23.0694
-22.9039
-22.7442
-22.5903
-22.4421
-22.3
-22.164
-22.0345
-21.9117
-21.796
-21.6878
-21.588
-21.4973
-21.417
-21.3482
-21.2923
-21.2506
-21.2245
-21.2153
-21.2246
-21.254
-21.3053
-21.3804
-21.4813
-21.6103
-21.7695
-21.9612
-22.1871
-22.4486
-22.7455
-23.0761
-23.4359
-23.8176
-24.2106
-24.602
-24.9777
-25.3246
-25.6317
-25.8917
-26.1003
-26.2562
-26.3595
-26.4108
-26.9584
-26.912
-26.8223
-26.6948
-26.5363
-26.3543
-26.1556
-25.9458
-25.7291
-25.5084
-25.2855
-25.0618
-24.8385
-24.6168
-24.3983
-24.1844
-23.9765
-23.7756
-23.5824
-23.3967
-23.2183
-23.0466
-22.8809
-22.7208
-22.5662
-22.4171
-22.2738
-22.1366
-22.0055
-21.8808
-21.7628
-21.6518
-21.5486
-21.4541
-21.3695
-21.2961
-21.2355
-21.1888
-21.1576
-21.1431
-21.147
-21.1708
-21.2165
-21.2861
-21.3821
-21.5069
-21.6634
-21.8543
-22.0824
-22.3499
-22.6581
-23.0058
-23.3892
-23.8003
-24.227
-24.6539
-25.0638
-25.4405
-25.7714
-26.0484
-26.2683
-26.4307
-26.5374
-26.5901
-27.0987
-27.0461
-26.945
-26.8024
-26.627
-26.4281
-26.2136
-25.99
-25.7617
-25.5313
-25.3003
-25.0694
-24.8396
-24.6119
-24.3878
-24.1691
-23.9573
-23.7537
-23.5588
-23.3724
-23.1938
-23.0221
-22.8564
-22.6959
-22.5407
-22.3906
-22.2462
-22.1076
-21.975
-21.8484
-21.7279
-21.6139
-21.507
-21.4083
-21.3191
-21.2408
-21.1749
-21.1229
-21.0861
-21.0659
-21.0638
-21.0815
-21.1209
-21.1844
-21.2745
-21.3942
-21.5467
-21.7356
-21.9648
-22.2377
-22.557
-22.9229
-23.3323
-23.7769
-24.2427
-24.7111
-25.1606
-25.5715
-25.9286
-26.2236
-26.4542
-26.6223
-26.7314
-26.7849
-27.254
-27.194
-27.0792
-26.9185
-26.7233
-26.5049
-26.2728
-26.0342
-25.7938
-25.5536
-25.3144
-25.0764
-24.8398
-24.6057
-24.3756
-24.1517
-23.9357
-23.7293
-23.5328
-23.346
-23.1676
-22.9963
-22.8307
-22.6701
-22.5141
-22.363
-22.2174
-22.0774
-21.9433
-21.8149
-21.692
-21.5748
-21.464
-21.3607
-21.2664
-21.1828
-21.1114
-21.0537
-21.0111
-20.9848
-20.9763
-20.9873
-21.0198
-21.0763
-21.1596
-21.273
-21.4203
-21.6059
-21.8347
-22.1117
-22.4415
-22.8262
-23.2638
-23.7459
-24.2567
-24.7733
-25.2689
-25.7185
-26.1041
-26.4172
-26.6574
-26.8293
-26.9394
-26.9928
-27.4246
-27.3557
-27.2243
-27.0424
-26.8241
-26.5834
-26.3317
-26.0772
-25.8243
-25.5745
-25.3275
-25.0825
-24.8391
-24.5983
-24.3617
-24.132
-23.9116
-23.7022
-23.5044
-23.3175
-23.1399
-22.9695
-22.8044
-22.6437
-22.4869
-22.3347
-22.1877
-22.0464
-21.9109
-21.7808
-21.6554
-21.535
-21.42
-21.3118
-21.2121
-21.1228
-21.0456
-20.982
-20.9333
-20.9007
-20.8855
-20.8893
-20.9142
-20.963
-21.0386
-21.1446
-21.2853
-21.4659
-21.6924
-21.9717
-22.3108
-22.7142
-23.1818
-23.7058
-24.268
-24.8405
-25.3895
-25.8827
-26.2986
-26.6291
-26.8768
-27.0502
-27.1592
-27.2115
-27.6111
-27.5313
-27.3803
-27.1731
-26.928
-26.6621
-26.3891
-26.1178
-25.8525
-25.5936
-25.3394
-25.0877
-24.8376
-24.5897
-24.3461
-24.1101
-23.8848
-23.6724
-23.4736
-23.2872
-23.111
-22.942
-22.7778
-22.617
-22.4594
-22.3058
-22.1573
-22.0148
-21.8782
-21.7465
-21.6189
-21.4951
-21.3757
-21.2622
-21.1567
-21.0613
-20.9781
-20.9084
-20.8535
-20.8143
-20.7921
-20.7883
-20.8052
-20.8456
-20.9126
-21.0101
-21.1428
-21.3164
-21.5385
-21.8178
-22.164
-22.5854
-23.0845
-23.6545
-24.2753
-24.9129
-25.5235
-26.0657
-26.5135
-26.8597
-27.1117
-27.2833
-27.3885
-27.4383
-27.8141
-27.7212
-27.5467
-27.3099
-27.0338
-26.7397
-26.4435
-26.1548
-25.8775
-25.6105
-25.35
-25.0922
-24.8355
-24.5802
-24.3288
-24.0857
-23.8552
-23.6398
-23.4402
-23.2551
-23.0811
-22.9143
-22.7513
-22.5905
-22.4318
-22.2765
-22.1264
-21.9828
-21.8453
-21.7125
-21.5827
-21.4555
-21.3315
-21.2123
-21.1005
-20.9988
-20.9092
-20.8334
-20.7723
-20.7265
-20.6971
-20.6854
-20.6937
-20.725
-20.7827
-20.8707
-20.9938
-21.1586
-21.3736
-21.6498
-22.0006
-22.4383
-22.9697
-23.5898
-24.2771
-24.9903
-25.6727
-26.2699
-26.7502
-27.1094
-27.3613
-27.5267
-27.625
-27.6706
-28.0344
-27.9258
-27.7235
-27.4517
-27.14
-26.8146
-26.4934
-26.187
-25.8985
-25.6248
-25.3593
-25.0963
-24.833
-24.5699
-24.31
-24.0589
-23.8226
-23.6041
-23.4042
-23.2212
-23.0505
-22.8867
-22.7253
-22.5645
-22.4046
-22.2471
-22.0951
-21.9504
-21.8126
-21.679
-21.5474
-21.4168
-21.2879
-21.1625
-21.044
-20.9356
-20.8396
-20.7575
-20.6902
-20.638
-20.6012
-20.5813
-20.5806
-20.6023
-20.6499
-20.7273
-20.8395
-20.9934
-21.1986
-21.4682
-21.8197
-22.2712
-22.8348
-23.5091
-24.2716
-25.0731
-25.8394
-26.498
-27.0108
-27.3784
-27.6243
-27.7783
-27.8662
-27.9057
-28.273
-28.1458
-27.9104
-27.5978
-27.2452
-26.8851
-26.5375
-26.2131
-25.9148
-25.6363
-25.3676
-25.1002
-24.8306
-24.5593
-24.2897
-24.0295
-23.7868
-23.5652
-23.3655
-23.1856
-23.0195
-22.8596
-22.7002
-22.5394
-22.3778
-22.2176
-22.0632
-21.9178
-21.7802
-21.6466
-21.5133
-21.3793
-21.2452
-21.1132
-20.9873
-20.8719
-20.7694
-20.6811
-20.6079
-20.5492
-20.5052
-20.4768
-20.4666
-20.4781
-20.5152
-20.5812
-20.6812
-20.8222
-21.0146
-21.2734
-21.621
-22.0824
-22.6774
-23.4092
-24.2563
-25.1614
-26.0266
-26.7537
-27.2974
-27.667
-27.8997
-28.0362
-28.1094
-28.1408
-28.5312
-28.3816
-28.1074
-27.7469
-27.3476
-26.9496
-26.5741
-26.232
-25.9257
-25.645
-25.3753
-25.1044
-24.8287
-24.5488
-24.268
-23.9973
-23.7477
-23.5229
-23.3237
-23.1483
-22.9883
-22.8337
-22.6766
-22.5156
-22.3519
-22.188
-22.0305
-21.8847
-21.7482
-21.6154
-21.4809
-21.3434
-21.204
-21.0645
-20.9305
-20.8079
-20.6988
-20.6046
-20.5256
-20.4609
-20.4097
-20.3725
-20.3524
-20.3534
-20.3794
-20.4335
-20.52
-20.6464
-20.8229
-21.0661
-21.4041
-21.8704
-22.4947
-23.2865
-24.228
-25.2552
-26.2381
-27.0414
-27.6124
-27.9754
-28.1857
-28.2977
-28.3518
-28.373
-28.8104
-28.6339
-28.3144
-27.8979
-27.4452
-27.0065
-26.6019
-26.2424
-25.9306
-25.6509
-25.3829
-25.1094
-24.8277
-24.539
-24.2451
-23.9619
-23.7049
-23.4768
-23.2787
-23.1093
-22.9574
-22.8093
-22.6549
-22.4934
-22.3271
-22.1583
-21.9969
-21.851
-21.7169
-21.586
-21.4505
-21.3096
-21.1645
-21.0167
-20.8738
-20.7438
-20.6282
-20.5281
-20.4439
-20.3736
-20.3153
-20.2691
-20.2387
-20.2288
-20.2436
-20.2853
-20.3573
-20.4674
-20.6251
-20.8474
-21.1689
-21.6337
-22.2839
-23.137
-24.1826
-25.3545
-26.479
-27.3665
-27.9586
-28.3032
-28.4805
-28.5604
-28.5908
-28.5998
-29.1122
-28.9035
-28.5316
-28.0495
-27.5359
-27.0542
-26.6196
-26.243
-25.9289
-25.6543
-25.3912
-25.1159
-24.8282
-24.5305
-24.2212
-23.9228
-23.6583
-23.4268
-23.23
-23.0686
-22.927
-22.7873
-22.6355
-22.4732
-22.3039
-22.1284
-21.9616
-21.8164
-21.6863
-21.5588
-21.4225
-21.278
-21.1274
-20.97
-20.8171
-20.6796
-20.5576
-20.4517
-20.363
-20.2876
-20.2226
-20.1672
-20.1258
-20.1047
-20.1083
-20.1375
-20.1941
-20.2868
-20.4231
-20.6187
-20.9158
-21.3707
-22.0422
-22.9561
-24.1144
-25.4588
-26.7559
-27.7355
-28.3385
-28.6498
-28.7817
-28.8214
-28.8237
-28.8185
-29.4384
-29.1907
-28.7591
-28.2001
-27.617
-27.0914
-26.6261
-26.2322
-25.9202
-25.6555
-25.4013
-25.1242
-24.8304
-24.5245
-24.1963
-23.8794
-23.6078
-23.3728
-23.1771
-23.0261
-22.8975
-22.7685
-22.6188
-22.455
-22.2829
-22.0983
-21.924
-21.7807
-21.6566
-21.5344
-21.3972
-21.249
-21.093
-20.9246
-20.7601
-20.6155
-20.4872
-20.3756
-20.2832
-20.2036
-20.1322
-20.0671
-20.0142
-19.9816
-19.9743
-19.9912
-20.0316
-20.1062
-20.2193
-20.3815
-20.6452
-21.0802
-21.7675
-22.7391
-24.0158
-25.5672
-27.0779
-28.1563
-28.7543
-29.0136
-29.0865
-29.0779
-29.0479
-29.0267
-29.7912
-29.4956
-28.9977
-28.3483
-27.685
-27.1171
-26.6206
-26.2085
-25.9041
-25.6548
-25.4148
-25.135
-24.8346
-24.5223
-24.1706
-23.8305
-23.5534
-23.3147
-23.1191
-22.9818
-22.8695
-22.7538
-22.6051
-22.4391
-22.2648
-22.0678
-21.883
-21.7435
-21.6279
-21.5135
-21.3748
-21.2225
-21.0622
-20.8806
-20.7023
-20.5515
-20.417
-20.2997
-20.2048
-20.1219
-20.0447
-19.9693
-19.9042
-19.8596
-19.8421
-19.8474
-19.8705
-19.9272
-20.0161
-20.138
-20.3581
-20.7607
-21.4579
-22.4813
-23.8764
-25.6775
-27.4568
-28.6377
-29.2079
-29.3923
-29.3914
-29.3268
-29.2608
-29.2223
-30.1732
-29.8179
-29.2487
-28.492
-27.7359
-27.1308
-26.6026
-26.1696
-25.8805
-25.6528
-25.4336
-25.1483
-24.8404
-24.5262
-24.1443
-23.7742
-23.4956
-23.2526
-23.0549
-22.9357
-22.8431
-22.7448
-22.5947
-22.4251
-22.251
-22.0368
-21.837
-21.7042
-21.6002
-21.4972
-21.3555
-21.1984
-21.0358
-20.838
-20.6429
-20.4878
-20.3474
-20.2237
-20.128
-20.0428
-19.9608
-19.8743
-19.7959
-19.739
-19.7123
-19.7071
-19.7113
-19.7511
-19.8168
-19.8903
-20.056
-20.4108
-21.1126
-22.1787
-23.6822
-25.7865
-27.9091
-29.19
-29.6999
-29.7826
-29.6928
-29.565
-29.4603
-29.4037
-30.5874
-30.1556
-29.5146
-28.6294
-27.7638
-27.1333
-26.5722
-26.1126
-25.8493
-25.6497
-25.4607
-25.1643
-24.8469
-24.5392
-24.1175
-23.7079
-23.4354
-23.1869
-22.9828
-22.888
-22.8187
-22.7433
-22.5874
-22.4124
-22.2432
-22.0051
-21.7839
-21.6628
-21.5737
-21.4869
-21.3391
-21.1761
-21.0155
-20.7968
-20.5806
-20.4248
-20.2785
-20.1471
-20.0531
-19.9668
-19.8811
-19.7824
-19.6893
-19.6194
-19.5852
-19.5717
-19.5542
-19.579
-19.6251
-19.6406
-19.741
-20.0283
-20.7321
-21.8291
-23.4141
-25.8883
-28.4571
-29.8243
-30.2293
-30.1797
-29.9863
-29.7898
-29.6446
-29.5693
-31.0379
-30.505
-29.7996
-28.7585
-27.7611
-27.1268
-26.5303
-26.0334
-25.8115
-25.6454
-25.5
-25.1822
-24.8519
-24.5659
-24.0903
-23.6274
-23.3747
-23.1185
-22.9001
-22.8391
-22.7962
-22.7519
-22.5829
-22.3995
-22.2443
-21.9728
-21.7206
-21.6191
-21.5481
-21.4848
-21.3254
-21.1546
-21.0034
-20.7572
-20.5135
-20.3634
-20.2108
-20.0692
-19.9805
-19.894
-19.8066
-19.6937
-19.5844
-19.5006
-19.4611
-19.4426
-19.3987
-19.4118
-19.4454
-19.3911
-19.416
-19.6101
-20.3186
-21.4331
-23.0461
-25.974
-29.1321
-30.5521
-30.7931
-30.5777
-30.2675
-29.9983
-29.8119
-29.7182
-31.5301
-30.8592
-30.1106
-28.8769
-27.7168
-27.1162
-26.4787
-25.9262
-25.7689
-25.6389
-25.5574
-25.2007
-24.8516
-24.6131
-24.0629
-23.5262
-23.317
-23.0488
-22.803
-22.7902
-22.7749
-22.7745
-22.5803
-22.384
-22.2588
-21.9397
-21.6428
-21.5739
-21.5229
-21.4938
-21.3137
-21.1317
-21.0026
-20.719
-20.4386
-20.3049
-20.1447
-19.9887
-19.9107
-19.8244
-19.7382
-19.6085
-19.4813
-19.3819
-19.3399
-19.3221
-19.2434
-19.2495
-19.2837
-19.1434
-19.0856
-19.1509
-19.8762
-20.9967
-22.5434
-26.0297
-29.9771
-31.3839
-31.3852
-30.9695
-30.5318
-30.1881
-29.9613
-29.8499
-32.0715
-31.2065
-30.459
-28.9823
-27.6158
-27.1097
-26.4203
-25.7821
-25.7251
-25.6277
-25.6411
-25.2178
-24.8399
-24.6909
-24.0353
-23.3952
-23.2679
-22.9797
-22.6857
-22.7438
-22.7531
-22.8164
-22.5781
-22.3618
-22.2929
-21.9057
-21.5445
-21.5288
-21.4965
-21.5183
-21.3029
-21.1044
-21.0181
-20.6822
-20.3516
-20.2518
-20.081
-19.9035
-19.8449
-19.7579
-19.6774
-19.5267
-19.3797
-19.2623
-19.2215
-19.2132
-19.0861
-19.0914
-19.1472
-18.8977
-18.7566
-18.6424
-19.4112
-20.534
-21.8591
-26.0349
-31.0518
-32.3276
-31.9956
-31.3467
-30.7747
-30.3574
-30.0921
-29.964
-32.6723
-31.5279
-30.862
-29.0727
-27.4368
-27.1208
-26.3595
-25.5886
-25.687
-25.6064
-25.763
-25.2298
-24.8069
-24.8138
-24.0074
-23.2208
-23.2363
-22.9142
-22.5399
-22.704
-22.7271
-22.8855
-22.574
-22.3265
-22.356
-21.8707
-21.4176
-21.4873
-21.4664
-21.5645
-21.2909
-21.0677
-21.0568
-20.6464
-20.2464
-20.2078
-20.0208
-19.8106
-19.7846
-19.6937
-19.626
-19.4482
-19.2797
-19.1407
-19.1052
-19.1204
-18.9229
-18.9354
-19.046
-18.6525
-18.4391
-18.0713
-18.9322
-20.0713
-20.9312
-25.9595
-32.4384
-33.3852
-32.6103
-31.7002
-30.9922
-30.5047
-30.2038
-30.0608
-33.3475
-31.7937
-31.3459
-29.1455
-27.1499
-27.1701
-26.302
-25.3274
-25.6661
-25.5654
-25.94
-25.2318
-24.7379
-25.0026
-23.9789
-22.9837
-23.2356
-22.8562
-22.3534
-22.6783
-22.6907
-22.9928
-22.5645
-22.2685
-22.4614
-21.8345
-21.2505
-21.4557
-21.4273
-21.6415
-21.2752
-21.014
-21.1289
-20.6114
-20.1141
-20.1787
-19.9653
-19.7057
-19.7325
-19.6303
-19.5864
-19.3723
-19.1816
-19.0153
-18.9896
-19.0503
-18.7485
-18.7777
-18.9933
-18.4023
-18.1487
-17.4173
-18.4494
-19.6523
-19.678
-25.7605
-34.2498
-34.5489
-33.2105
-32.0207
-31.1808
-30.6291
-30.2968
-30.1407
-34.118
-31.9598
-31.9491
-29.1988
-26.7139
-27.2883
-26.2554
-24.9723
-25.681
-25.4884
-26.196
-25.2165
-24.6111
-25.2863
-23.9495
-22.6572
-23.2854
-22.8105
-22.1087
-22.6788
-22.6329
-23.154
-22.5449
-22.174
-22.6278
-21.7964
-21.0275
-21.4443
-21.3709
-21.7617
-21.252
-20.9326
-21.2485
-20.5763
-19.9426
-20.1731
-19.916
-19.5824
-19.6931
-19.5649
-19.5623
-19.2978
-19.0858
-18.8841
-18.8722
-19.0122
-18.5553
-18.6121
-19.0076
-18.1362
-17.9089
-16.6505
-17.9737
-19.3448
-17.9936
-25.3775
-36.639
-35.7946
-33.7731
-32.2991
-31.338
-30.7304
-30.3715
-30.2045
-35.0134
-31.9619
-32.7266
-29.2302
-26.0727
-27.5188
-26.2292
-24.4867
-25.7611
-25.3491
-26.5645
-25.1746
-24.3963
-25.7052
-23.9182
-22.2041
-23.4139
-22.7836
-21.7817
-22.7244
-22.5365
-23.3912
-22.5089
-22.0232
-22.8812
-21.7555
-20.7276
-21.4695
-21.2834
-21.943
-21.216
-20.8084
-21.4352
-20.54
-19.7154
-20.2036
-19.8745
-19.4319
-19.6727
-19.4933
-19.5584
-19.2229
-18.9934
-18.7449
-18.7488
-19.0196
-18.3328
-18.4289
-19.1141
-17.8348
-17.7549
-15.7278
-17.5152
-19.249
-15.7416
-24.7273
-39.812
-37.0742
-34.2714
-32.5277
-31.4623
-30.8089
-30.4288
-30.2532
-36.0745
-31.7087
-33.7558
-29.2374
-25.1508
-27.9223
-26.2344
-23.8201
-25.9504
-25.1071
-27.0917
-25.0937
-24.051
-26.3132
-23.8833
-21.5749
-23.66
-22.783
-21.3389
-22.8438
-22.3748
-23.7346
-22.448
-21.789
-23.2564
-21.71
-20.3223
-21.5559
-21.1436
-22.2097
-21.1605
-20.6204
-21.7159
-20.5006
-19.4102
-20.2876
-19.8425
-19.2423
-19.6814
-19.4084
-19.5815
-19.1441
-18.9064
-18.5948
-18.6131
-19.0908
-18.0676
-18.2144
-19.3478
-17.4666
-17.7378
-14.5896
-17.0803
-19.5075
-12.7493
-23.6968
-44.0422
-38.3045
-34.677
-32.7007
-31.5533
-30.8655
-30.4699
-30.288
-37.3573
-31.0741
-35.1424
-29.2177
-23.8485
-28.5813
-26.284
-22.9041
-26.3133
-24.7028
-27.84
-24.9577
-23.5185
-27.1825
-23.8427
-20.7038
-24.0769
-22.8173
-20.7348
-23.0791
-22.1088
-24.2255
-22.3514
-21.4348
-23.8
-21.6569
-19.7743
-21.7398
-20.9202
-22.5948
-21.0766
-20.3405
-22.126
-20.4554
-18.9977
-20.449
-19.8215
-18.9972
-19.7331
-19.3
-19.641
-19.0567
-18.8278
-18.4311
-18.4554
-19.2509
-17.7423
-17.949
-19.7561
-16.9831
-17.9306
-13.1553
-16.6685
-20.3166
-8.80049
-22.1353
-49.6881
-39.3544
-34.9637
-32.8151
-31.6121
-30.9017
-30.4959
-30.31
-38.9366
-29.8874
-37.0288
-29.1676
-22.0362
-29.6052
-26.3921
-21.647
-26.941
-24.0503
-28.8928
-24.7466
-22.723
-28.4066
-23.7924
-19.5051
-24.7348
-22.8958
-19.9078
-23.4884
-21.6805
-24.9176
-22.2051
-20.9123
-24.5733
-21.5913
-19.0327
-22.0696
-20.5651
-23.1402
-20.9516
-19.9314
-22.7121
-20.4
-18.4395
-20.7192
-19.8121
-18.6755
-19.8483
-19.1531
-19.75
-18.953
-18.7615
-18.2504
-18.261
-19.5331
-17.3348
-17.6054
-20.403
-16.3122
-18.4349
-11.3183
-16.2671
-21.9392
-3.62834
-19.8446
-57.2134
-40.028
-35.1115
-32.8709
-31.6402
-30.9189
-30.5083
-30.3203
)
;

boundaryField
{
    left
    {
        type            calculated;
        value           nonuniform List<scalar> 
32
(
-26.4237
-26.446
-26.4887
-26.55
-26.6284
-26.723
-26.8331
-26.9584
-27.0987
-27.254
-27.4246
-27.6111
-27.8141
-28.0344
-28.273
-28.5312
-28.8104
-29.1122
-29.4384
-29.7912
-30.1732
-30.5874
-31.0379
-31.5301
-32.0715
-32.6723
-33.3475
-34.118
-35.0134
-36.0745
-37.3573
-38.9366
)
;
    }
    right
    {
        type            calculated;
        value           nonuniform List<scalar> 
32
(
-25.7944
-25.829
-25.895
-25.9889
-26.1079
-26.2493
-26.4108
-26.5901
-26.7849
-26.9928
-27.2115
-27.4383
-27.6706
-27.9057
-28.1408
-28.373
-28.5998
-28.8185
-29.0267
-29.2223
-29.4037
-29.5693
-29.7182
-29.8499
-29.964
-30.0608
-30.1407
-30.2045
-30.2532
-30.288
-30.31
-30.3203
)
;
    }
    interface
    {
        type            calculated;
        value           nonuniform List<scalar> 
64
(
-39.8111
-29.1316
-38.1171
-29.1344
-20.9842
-30.224
-26.4625
-20.9201
-27.3343
-23.6494
-29.5073
-24.6194
-22.2488
-29.1206
-23.7643
-18.8117
-25.1339
-22.9472
-19.4297
-23.745
-21.4173
-25.3214
-22.1174
-20.6022
-25.026
-21.5546
-18.6061
-22.2777
-20.3473
-23.4587
-20.8769
-19.6892
-23.0557
-20.3691
-18.1185
-20.8859
-19.8102
-18.4924
-19.9246
-19.068
-19.8188
-18.896
-18.732
-18.1552
-18.1525
-19.7094
-17.1076
-17.4102
-20.7952
-15.9192
-18.7796
-10.2839
-16.0666
-22.9913
-0.699641
-18.4888
-61.5111
-40.2417
-35.1488
-32.8844
-31.6469
-30.9229
-30.5111
-30.3226
)
;
    }
    bottom
    {
        type            calculated;
        value           nonuniform List<scalar> 
64
(
-26.4179
-26.3905
-26.3364
-26.2572
-26.155
-26.0321
-25.8915
-25.7358
-25.5678
-25.3901
-25.205
-25.0148
-24.8213
-24.6263
-24.4313
-24.2375
-24.046
-23.8579
-23.6738
-23.4944
-23.3201
-23.1512
-22.9881
-22.8309
-22.6799
-22.5354
-22.3976
-22.2669
-22.1436
-22.0282
-21.9214
-21.8236
-21.7358
-21.6586
-21.5931
-21.5403
-21.5012
-21.4771
-21.4691
-21.4785
-21.5066
-21.5546
-21.6237
-21.715
-21.8296
-21.9681
-22.1309
-22.3179
-22.5283
-22.7609
-23.0132
-23.2819
-23.5628
-23.8507
-24.1395
-24.4227
-24.6937
-24.9459
-25.1732
-25.3705
-25.5332
-25.6581
-25.7427
-25.7853
)
;
    }
    defaultFaces
    {
        type            empty;
    }
}


// ************************************************************************* //
