/*--------------------------------*- C++ -*----------------------------------*\
| =========                 |                                                 |
| \\      /  F ield         | OpenFOAM: The Open Source CFD Toolbox           |
|  \\    /   O peration     | Version:  5.x                                   |
|   \\  /    A nd           | Web:      www.OpenFOAM.org                      |
|    \\/     M anipulation  |                                                 |
\*---------------------------------------------------------------------------*/
FoamFile
{
    version     2.0;
    format      ascii;
    class       volScalarField;
    location    "20";
    object      gradTx;
}
// * * * * * * * * * * * * * * * * * * * * * * * * * * * * * * * * * * * * * //

dimensions      [0 -1 0 1 0 0 0];

internalField   nonuniform List<scalar> 
2048
(
0.00630482
0.0187339
0.0306378
0.0417189
0.0517482
0.0605764
0.0681331
0.074416
0.079475
0.0833927
0.0862692
0.0882086
0.0893128
0.0896789
0.0893991
0.0885627
0.0872565
0.085564
0.083563
0.0813221
0.0788969
0.0763282
0.0736409
0.070845
0.0679383
0.0649087
0.0617367
0.0583967
0.0548577
0.0510839
0.047035
0.0426674
0.0379358
0.0327958
0.0272053
0.0211268
0.014528
0.00738291
-0.000328207
-0.00861695
-0.0174849
-0.0269196
-0.0368898
-0.0473381
-0.0581729
-0.0692594
-0.0804105
-0.0913791
-0.101854
-0.111462
-0.11978
-0.126358
-0.130752
-0.132568
-0.131511
-0.127415
-0.120276
-0.110247
-0.0976148
-0.0827645
-0.0661292
-0.04815
-0.0292467
-0.00980734
0.018788
0.0558166
0.0912541
0.124202
0.153975
0.180132
0.202473
0.221006
0.235893
0.247393
0.25581
0.261459
0.264643
0.265649
0.264748
0.262204
0.258273
0.253205
0.247233
0.240562
0.233359
0.225745
0.217792
0.209528
0.200945
0.192005
0.182649
0.172801
0.162368
0.151245
0.139312
0.126437
0.112486
0.0973255
0.0808296
0.0628866
0.0434007
0.0222939
-0.000492504
-0.024995
-0.051221
-0.0791387
-0.108661
-0.139624
-0.171766
-0.204696
-0.237866
-0.270549
-0.301824
-0.330578
-0.355542
-0.375354
-0.388669
-0.394285
-0.391293
-0.379189
-0.357959
-0.328071
-0.29041
-0.24615
-0.196607
-0.143108
-0.0869046
-0.0291381
0.0311394
0.0924808
0.151102
0.20548
0.254466
0.297344
0.333818
0.363943
0.388032
0.406551
0.420029
0.428996
0.433953
0.435365
0.433671
0.429299
0.42267
0.414199
0.404274
0.39324
0.381377
0.368883
0.355873
0.342388
0.328406
0.313858
0.298646
0.282643
0.265699
0.247639
0.228264
0.207357
0.184691
0.160043
0.133203
0.103987
0.0722366
0.0378232
0.000648289
-0.0393531
-0.0822023
-0.12786
-0.176202
-0.226983
-0.279796
-0.334027
-0.388803
-0.442949
-0.494955
-0.542979
-0.584889
-0.618376
-0.641129
-0.651069
-0.646604
-0.626857
-0.591796
-0.542249
-0.479765
-0.406386
-0.324371
-0.23596
-0.143223
-0.0480089
0.0435988
0.129423
0.211269
0.286932
0.354787
0.413861
0.46381
0.504804
0.537371
0.562236
0.580187
0.59198
0.598311
0.599807
0.59706
0.590648
0.581153
0.569157
0.555214
0.539815
0.523358
0.506117
0.488245
0.469782
0.450682
0.430842
0.410117
0.388332
0.365282
0.340727
0.314387
0.285955
0.25511
0.221533
0.18493
0.145043
0.101653
0.0545833
0.00369402
-0.0511135
-0.109886
-0.172595
-0.239103
-0.309116
-0.382121
-0.457325
-0.533575
-0.609288
-0.682395
-0.750319
-0.810032
-0.858193
-0.891409
-0.906584
-0.901321
-0.874284
-0.825426
-0.756007
-0.668376
-0.565588
-0.45097
-0.327743
-0.198792
-0.0666104
0.0563818
0.167265
0.272715
0.369762
0.456273
0.531053
0.593781
0.644834
0.68505
0.715487
0.737234
0.751292
0.758538
0.759742
0.755621
0.746889
0.734286
0.718569
0.700472
0.68065
0.659625
0.63775
0.615201
0.592006
0.56808
0.543269
0.517382
0.490199
0.461463
0.430871
0.398065
0.362642
0.324176
0.282247
0.236471
0.186517
0.13211
0.0730261
0.00908463
-0.0598519
-0.133869
-0.212971
-0.297037
-0.385763
-0.47858
-0.574568
-0.672355
-0.770002
-0.864914
-0.953786
-1.03264
-1.09698
-1.14216
-1.16385
-1.15867
-1.12469
-1.06184
-0.971936
-0.858323
-0.72531
-0.577479
-0.419131
-0.253973
-0.0850557
0.0696935
0.206594
0.336333
0.455062
0.560107
0.650091
0.72482
0.785008
0.831926
0.867061
0.89186
0.907577
0.915253
0.915762
0.909914
0.898537
0.882524
0.862824
0.840376
0.816022
0.790425
0.764015
0.736979
0.709308
0.680855
0.651402
0.620707
0.588508
0.554511
0.518354
0.479598
0.437735
0.392223
0.34253
0.288175
0.228754
0.163941
0.0934713
0.0171283
-0.06527
-0.153862
-0.248709
-0.349743
-0.456692
-0.568986
-0.685645
-0.805145
-0.925268
-1.04295
-1.15415
-1.25389
-1.3364
-1.39552
-1.42542
-1.42142
-1.38084
-1.30357
-1.19213
-1.05118
-0.886618
-0.704536
-0.510463
-0.308916
-0.103385
0.0837379
0.247991
0.402994
0.543868
0.667365
0.771991
0.85782
0.926071
0.97861
1.01747
1.04453
1.06128
1.0689
1.06832
1.06038
1.046
1.02623
1.00222
0.975169
0.946131
0.915936
0.885088
0.853768
0.821894
0.789226
0.755463
0.720308
0.68347
0.644631
0.603385
0.559208
0.511474
0.459506
0.402641
0.340296
0.271995
0.19737
0.116128
0.0280227
-0.0671757
-0.169672
-0.279611
-0.397015
-0.521692
-0.653129
-0.79036
-0.931799
-1.07504
-1.21661
-1.35181
-1.47459
-1.57772
-1.65325
-1.69347
-1.69202
-1.6452
-1.5528
-1.4183
-1.2481
-1.05013
-0.83238
-0.601752
-0.363562
-0.121567
0.0987267
0.292052
0.473571
0.637196
0.779059
0.897652
0.993503
1.06856
1.12549
1.16702
1.1955
1.21268
1.2198
1.21777
1.20739
1.18963
1.1657
1.137
1.10503
1.07111
1.03627
1.0011
0.965717
0.92994
0.893387
0.855648
0.816366
0.775247
0.731974
0.686114
0.637056
0.584036
0.526213
0.462774
0.393017
0.316404
0.232536
0.141114
0.0418706
-0.0654689
-0.181191
-0.305552
-0.438703
-0.58058
-0.73079
-0.88846
-1.05204
-1.21906
-1.38577
-1.54684
-1.69515
-1.82182
-1.91679
-1.96995
-1.97274
-1.92004
-1.81149
-1.65185
-1.44984
-1.21607
-0.960859
-0.692707
-0.417659
-0.139505
0.114885
0.339407
0.548976
0.736066
0.89616
1.02787
1.13245
1.21284
1.27276
1.3158
1.34486
1.36191
1.36816
1.36436
1.35123
1.32971
1.30117
1.26734
1.23006
1.19103
1.1515
1.11212
1.07295
1.0336
0.993518
0.952132
0.909036
0.863962
0.816641
0.766639
0.713252
0.655549
0.592487
0.523069
0.446465
0.362077
0.269506
0.168466
0.0586931
-0.0601298
-0.188385
-0.326471
-0.474708
-0.633208
-0.801755
-0.979654
-1.16551
-1.35692
-1.55002
-1.73899
-1.91563
-2.06927
-2.18731
-2.25661
-2.26573
-2.20756
-2.08147
-1.89393
-1.6568
-1.38423
-1.08944
-0.782733
-0.470763
-0.157036
0.132461
0.390738
0.630175
0.841531
1.01962
1.16338
1.2751
1.35909
1.42042
1.46373
1.49254
1.50897
1.51408
1.50833
1.49217
1.4665
1.43286
1.39337
1.35034
1.30591
1.26162
1.2182
1.17555
1.13304
1.0898
1.04509
0.998454
0.949705
0.89869
0.84501
0.787861
0.7261
0.658433
0.583633
0.500724
0.409062
0.308282
0.198154
0.0784394
-0.05121
-0.191288
-0.342371
-0.504987
-0.67947
-0.865834
-1.06364
-1.27177
-1.48807
-1.70875
-1.92771
-2.13577
-2.3203
-2.4657
-2.55506
-2.57312
-2.50996
-2.3645
-2.14547
-1.86904
-1.55401
-1.21723
-0.870949
-0.522255
-0.17394
0.151724
0.446793
0.718208
0.954688
1.15037
1.30481
1.42176
1.50733
1.56828
1.61056
1.63834
1.6538
1.65764
1.64985
1.63047
1.60025
1.56096
1.51519
1.46588
1.41571
1.36661
1.31936
1.27363
1.22839
1.18241
1.13469
1.08474
1.03253
0.978137
0.921237
0.860912
0.795749
0.724132
0.644547
0.555845
0.457363
0.348819
0.230087
0.100996
-0.0388238
-0.189995
-0.353311
-0.529554
-0.719315
-0.92288
-1.14013
-1.37037
-1.61186
-1.86118
-2.11221
-2.35498
-2.57482
-2.75265
-2.86684
-2.89709
-2.82959
-2.66235
-2.40723
-2.08628
-1.72442
-1.34294
-0.956199
-0.571355
-0.189944
0.172979
0.508395
0.814205
1.07669
1.28934
1.45273
1.57262
1.65741
1.71599
1.75588
1.78193
1.79622
1.79885
1.7891
1.76639
1.73122
1.68564
1.63289
1.57665
1.52035
1.46639
1.41558
1.36725
1.31981
1.27155
1.22113
1.16802
1.11248
1.05496
0.995287
0.932405
0.864535
0.789652
0.705879
0.611862
0.506955
0.391028
0.264127
0.126194
-0.0231409
-0.184652
-0.3594
-0.548474
-0.75275
-0.9728
-1.20889
-1.46085
-1.72759
-2.00637
-2.29144
-2.57236
-2.83243
-3.04856
-3.19338
-3.23995
-3.16896
-2.9769
-2.67982
-2.30784
-1.894
-1.46494
-1.03708
-0.617148
-0.204732
0.196563
0.576459
0.919401
1.20878
1.43747
1.60764
1.72774
1.80903
1.86302
1.89911
1.92288
1.93602
1.93772
1.92626
1.90022
1.85969
1.80709
1.74651
1.6826
1.6197
1.56082
1.50683
1.4565
1.4075
1.35747
1.30462
1.24841
1.18955
1.12908
1.06709
1.00231
0.932481
0.855055
0.767697
0.668797
0.557784
0.434785
0.300089
0.153815
-0.00437882
-0.175448
-0.360793
-0.561866
-0.779844
-1.01558
-1.26974
-1.54279
-1.83454
-2.14325
-2.46411
-2.78668
-3.09235
-3.35358
-3.53602
-3.60418
-3.53094
-3.31017
-2.96364
-2.53267
-2.06088
-1.58123
-1.11197
-0.658613
-0.217961
0.222858
0.651997
1.03514
1.35225
1.59568
1.76994
1.88705
1.96173
2.00869
2.03957
2.06066
2.07294
2.07424
2.06156
2.03229
1.98595
1.92549
1.85611
1.78362
1.71356
1.64975
1.59305
1.54146
1.49165
1.44042
1.38542
1.32603
1.2637
1.20038
1.13655
1.07059
0.999603
0.920406
0.830075
0.726666
0.60978
0.479934
0.337751
0.1836
0.0172033
-0.162612
-0.357677
-0.569892
-0.800732
-1.05127
-1.32258
-1.61586
-1.93201
-2.27072
-2.62875
-2.9964
-3.35348
-3.66754
-3.89598
-3.99247
-3.9188
-3.66443
-3.25893
-2.75921
-2.22268
-1.68949
-1.17909
-0.694672
-0.229272
0.25229
0.736124
1.1629
1.5085
1.76485
1.93992
2.05036
2.11493
2.15214
2.17641
2.19471
2.20672
2.2084
2.19522
2.16299
2.11034
2.04102
1.96172
1.87961
1.8017
1.73295
1.67418
1.62226
1.57249
1.52071
1.46381
1.40101
1.33487
1.2687
1.20352
1.13719
1.06591
0.985779
0.893105
0.78549
0.662851
0.526299
0.376861
0.215247
0.041311
-0.146393
-0.350263
-0.57275
-0.815612
-1.08004
-1.36742
-1.67983
-2.01939
-2.38761
-2.78371
-3.19968
-3.61432
-3.9899
-4.27434
-4.40777
-4.33644
-4.04228
-3.56566
-2.98536
-2.37654
-1.78712
-1.23655
-0.724237
-0.238317
0.285342
0.830064
1.30427
1.67901
1.94584
2.11775
2.21737
2.26791
2.29238
2.30869
2.32437
2.33708
2.34021
2.32754
2.29281
2.23323
2.15385
2.06338
1.9704
1.88382
1.81015
1.75013
1.69901
1.65026
1.59871
1.54017
1.47351
1.40292
1.3338
1.26783
1.20204
1.13142
1.05126
0.956912
0.845293
0.716892
0.573682
0.41714
0.248424
0.0676195
-0.127061
-0.338772
-0.570666
-0.824742
-1.10212
-1.40439
-1.73457
-2.09617
-2.4928
-2.92718
-3.39439
-3.87299
-4.31973
-4.67185
-4.85333
-4.78849
-4.44676
-3.88351
-3.20836
-2.51909
-1.8713
-1.28245
-0.746268
-0.244769
0.322561
0.935144
1.46097
1.86541
2.13944
2.30344
2.3877
2.41983
2.42825
2.43531
2.44901
2.46382
2.46967
2.45885
2.42233
2.35502
2.26414
2.16115
2.05583
1.95955
1.88103
1.82085
1.77189
1.72524
1.6748
1.61494
1.54369
1.46768
1.39537
1.32928
1.26511
1.19612
1.11694
1.02166
0.90611
0.771771
0.621876
0.458289
0.282763
0.0957775
-0.104892
-0.323419
-0.563877
-0.828435
-1.11784
-1.43371
-1.78012
-2.16202
-2.58523
-3.05729
-3.57812
-4.12723
-4.65558
-5.08888
-5.33268
-5.28066
-4.88145
-4.21164
-3.42467
-2.64642
-1.93906
-1.31496
-0.759836
-0.248353
0.364587
1.05278
1.63482
2.06944
2.34633
2.49677
2.56088
2.56979
2.55844
2.55509
2.56798
2.58679
2.59676
2.5895
2.55228
2.47615
2.372
2.25509
2.13574
2.02846
1.94519
1.88625
1.84113
1.79768
1.74943
1.68869
1.61173
1.52888
1.45302
1.38768
1.32637
1.26
1.18294
1.08759
0.967982
0.827325
0.67067
0.5
0.317865
0.125409
-0.0801625
-0.304402
-0.55262
-0.827054
-1.12765
-1.4557
-1.81667
-2.21681
-2.66396
-3.17205
-3.74822
-4.37445
-4.99555
-5.52514
-5.84955
-5.81995
-5.35064
-4.5486
-3.62979
-2.75418
-1.98738
-1.3324
-0.76418
-0.248858
0.412184
1.18447
1.82773
2.29307
2.56705
2.69726
2.73647
2.71686
2.6815
2.66669
2.68067
2.70599
2.72141
2.71985
2.68357
2.59705
2.47745
2.34536
2.20997
2.09002
2.00214
1.9463
1.90705
1.86783
1.82306
1.76214
1.67787
1.58614
1.50624
1.44279
1.38587
1.32303
1.24936
1.15502
1.03095
0.883343
0.719865
0.541959
0.353299
0.156116
-0.0531399
-0.281883
-0.537116
-0.821002
-1.13206
-1.47078
-1.84453
-2.26071
-2.72823
-3.26949
-3.90184
-4.61179
-5.3372
-5.97942
-6.40784
-6.41517
-5.85947
-4.89194
-3.81812
-2.83754
-2.01338
-1.33339
-0.758769
-0.246157
0.466312
1.33174
2.04162
2.53855
2.80188
2.90403
2.9141
2.86011
2.79577
2.76865
2.78656
2.82161
2.84341
2.85024
2.81744
2.71812
2.58036
2.43224
2.2784
2.14359
2.0513
2.00099
1.97007
1.93583
1.89613
1.83623
1.74234
1.63894
1.55442
1.49441
1.44375
1.3851
1.31629
1.22442
1.09506
0.939536
0.769295
0.583862
0.388591
0.187475
-0.0240784
-0.255968
-0.517553
-0.810721
-1.13171
-1.47941
-1.86416
-2.29421
-2.77749
-3.3476
-4.0359
-4.8362
-5.67765
-6.44919
-7.01133
-7.07746
-6.41415
-5.23783
-3.9828
-2.8914
-2.01439
-1.31692
-0.74334
-0.240216
0.528233
1.49608
2.27835
2.80863
3.05081
3.11567
3.09366
2.99866
2.89942
2.85934
2.88523
2.93417
2.96234
2.98092
2.9555
2.83971
2.68033
2.51617
2.34097
2.18838
2.09197
2.05035
2.03084
2.00168
1.96906
1.91222
1.80542
1.68657
1.59678
1.54237
1.50032
1.44599
1.38378
1.29646
1.16033
0.995497
0.818863
0.625421
0.423224
0.21904
0.00678539
-0.2267
-0.494072
-0.796685
-1.12733
-1.48206
-1.87608
-2.31819
-2.81147
-3.40442
-4.14716
-5.04457
-6.01379
-6.93007
-7.66344
-7.82108
-7.02214
-5.5805
-4.11554
-2.91048
-1.98821
-1.28244
-0.717932
-0.231104
0.599699
1.6789
2.53956
3.10673
3.31337
3.33007
3.27545
3.13173
2.99036
2.93695
2.97639
3.04469
3.0774
3.11196
3.10002
2.96201
2.77659
2.59796
2.39766
2.22344
2.12329
2.0945
2.0903
2.06512
2.04213
1.99178
1.86739
1.7281
1.63241
1.58652
1.55611
1.50531
1.45179
1.37209
1.2267
1.05065
0.868589
0.666375
0.456617
0.250338
0.0392323
-0.194028
-0.466747
-0.779386
-1.11981
-1.47917
-1.88084
-2.33405
-2.83018
-3.43805
-4.23218
-5.2339
-6.34255
-7.41521
-8.36663
-8.66444
-7.69241
-5.9114
-4.20653
-2.88963
-1.93325
-1.22993
-0.682894
-0.218986
0.683236
1.88136
2.82647
3.43738
3.58846
3.54412
3.46056
3.25869
3.0662
2.99942
3.05992
3.15487
3.1872
3.24315
3.25415
3.08495
2.86777
2.67891
2.44858
2.24761
2.14422
2.13362
2.14981
2.12552
2.11547
2.07722
1.92854
1.7623
1.66018
1.6268
1.61206
1.56238
1.52014
1.45272
1.29406
1.10414
0.918694
0.706495
0.48811
0.280876
0.0730579
-0.157799
-0.435572
-0.759331
-1.11022
-1.47105
-1.87886
-2.34378
-2.83395
-3.44665
-4.28722
-5.40142
-6.66147
-7.89447
-9.12171
-9.63148
-8.43566
-6.21821
-4.2445
-2.8241
-1.84868
-1.15996
-0.638877
-0.204117
0.782584
2.10422
3.13946
3.80674
3.87411
3.75333
3.65125
3.379
3.12418
3.04444
3.13582
3.26747
3.28946
3.3738
3.42238
3.20805
2.95169
2.7611
2.49388
2.25944
2.15351
2.16794
2.21141
2.18163
2.18884
2.17166
1.98901
1.78759
1.6788
1.66318
1.66961
1.61611
1.58842
1.54037
1.36208
1.15479
0.969708
0.745582
0.516939
0.310143
0.108063
-0.117735
-0.400446
-0.737015
-1.0999
-1.45785
-1.87038
-2.35018
-2.82339
-3.42853
-4.30822
-5.54476
-6.96958
-8.35343
-9.92672
-10.7534
-9.26452
-6.48341
-4.21682
-2.71
-1.73467
-1.07366
-0.586804
-0.18683
0.903335
2.34761
3.47767
4.22337
4.16717
3.95142
3.85158
3.49222
3.16112
3.06941
3.20414
3.38675
3.38065
3.50252
3.61104
3.33021
3.02497
2.8478
2.53372
2.25716
2.14969
2.19769
2.27808
2.23138
2.26157
2.27945
2.04881
1.80197
1.68676
1.69565
1.731
1.66478
1.65587
1.63795
1.43019
1.20087
1.02263
0.783447
0.542199
0.337627
0.144039
-0.0734139
-0.361168
-0.712892
-1.09055
-1.43945
-1.85515
-2.357
-2.79935
-3.38218
-4.29057
-5.66191
-7.26854
-8.77228
-10.7755
-12.0712
-10.1938
-6.68262
-4.11002
-2.54468
-1.59241
-0.972731
-0.52782
-0.167516
1.05384
2.61074
3.83825
4.6993
4.46283
4.12964
4.06825
3.59774
3.1733
3.07139
3.26485
3.51906
3.45549
3.62689
3.82909
3.44937
3.08265
2.94393
2.56819
2.23863
2.131
2.22304
2.35414
2.27152
2.33229
2.4065
2.10752
1.80298
1.68239
1.72416
1.79955
1.70581
1.72123
1.7496
1.4974
1.24001
1.07914
0.819867
0.562813
0.362842
0.18074
-0.024244
-0.317429
-0.687316
-1.08438
-1.4154
-1.83226
-2.36927
-2.76278
-3.30638
-4.22893
-5.75119
-7.56436
-9.12453
-11.6555
-13.638
-11.2403
-6.78237
-3.91051
-2.32732
-1.42422
-0.859315
-0.463234
-0.146601
1.24647
2.89147
4.21545
5.25146
4.7541
4.27603
4.31162
3.69458
3.15643
3.04716
3.31753
3.67368
3.50628
3.74309
4.08904
3.56216
3.11764
3.0568
2.59705
2.20129
2.0955
2.24384
2.4458
2.29725
2.3987
2.56095
2.16411
1.78767
1.66388
1.74849
1.8801
1.73541
1.7826
1.88117
1.56212
1.2689
1.1419
0.854518
0.577485
0.385368
0.217848
0.0305594
-0.268832
-0.660453
-1.08431
-1.3848
-1.79976
-2.39371
-2.71455
-3.20039
-4.11696
-5.81085
-7.86962
-9.37553
-12.5455
-15.5237
-12.4233
-6.73753
-3.60578
-2.05934
-1.23348
-0.735933
-0.394447
-0.124527
1.49922
3.18589
4.59944
5.90344
5.03108
4.37448
4.5971
3.7808
3.10563
2.99331
3.36098
3.86387
3.52217
3.84539
4.40818
3.66334
3.12006
3.19697
2.61946
2.14213
2.04102
2.25944
2.56182
2.30165
2.45726
2.75378
2.2165
1.75257
1.62935
1.768
1.97953
1.74826
1.83714
2.04073
1.62191
1.28311
1.2149
0.886842
0.584662
0.404913
0.254915
0.0920097
-0.214918
-0.632157
-1.09421
-1.34627
-1.7542
-2.43917
-2.65511
-3.06422
-3.94704
-5.83838
-8.20621
-9.48101
-13.4121
-17.8183
-13.7635
-6.48816
-3.18621
-1.74482
-1.02454
-0.605331
-0.32288
-0.101729
1.8379
3.48762
4.97473
6.68779
5.27998
4.40363
4.9469
3.85281
3.01543
2.90633
3.39254
4.10819
3.48821
3.92549
4.81002
3.74517
3.0765
3.37937
2.63346
2.05774
1.96532
2.26818
2.71441
2.27515
2.5028
2.99973
2.26109
1.69379
1.577
1.78132
2.10741
1.73693
1.88081
2.23931
1.67315
1.27669
1.30396
0.915875
0.58249
0.421394
0.291297
0.161394
-0.155226
-0.601782
-1.11918
-1.29789
-1.69016
-2.51733
-2.584
-2.89899
-3.70998
-5.82948
-8.60888
-9.38549
-14.2057
-20.6381
-15.2832
-5.95593
-2.64744
-1.39074
-0.802482
-0.47033
-0.249908
-0.0786154
2.29874
3.78714
5.31833
7.64884
5.48206
4.33551
5.3921
3.90432
2.87993
2.7829
3.40721
4.43213
3.38426
3.97184
5.32606
3.7966
2.96913
3.62466
2.63531
1.94435
1.86625
2.26691
2.92027
2.20476
2.52809
3.31835
2.29202
1.60707
1.50528
1.7859
2.27689
1.6914
1.90807
2.49168
1.71066
1.24192
1.41724
0.939987
0.568787
0.435046
0.32605
0.240332
-0.0893858
-0.567942
-1.16594
-1.23717
-1.59951
-2.6435
-2.49922
-2.70747
-3.39483
-5.77635
-9.12933
-9.02075
-14.8556
-24.1314
-17.005
-5.04007
-1.99351
-1.00696
-0.572819
-0.333681
-0.176801
-0.0555569
2.93165
4.07091
5.59748
8.84587
5.61222
4.13416
5.97511
3.92491
2.69303
2.62029
3.39648
4.87007
3.18376
3.96875
5.99778
3.80235
2.77474
3.96088
2.61858
1.79802
1.74194
2.25013
3.20184
2.07328
2.52334
3.73519
2.30033
1.48802
1.4131
1.77737
2.50563
1.59837
1.91147
2.81734
1.72718
1.16886
1.56596
0.956549
0.541033
0.446556
0.357812
0.330858
-0.0172582
-0.528193
-1.2432
-1.16109
-1.47069
-2.83764
-2.3964
-2.49471
-2.98871
-5.66547
-9.841
-8.30451
-15.2643
-28.486
-18.9507
-3.6129
-1.24082
-0.605809
-0.341145
-0.197924
-0.104683
-0.032874
3.80393
4.32037
5.76707
10.357
5.63742
3.75397
6.75261
3.89833
2.44877
2.4168
3.34681
5.4675
2.85232
3.89546
6.87892
3.74177
2.46363
4.42528
2.57303
1.61485
1.59122
2.20911
3.58883
1.85836
2.47565
4.28325
2.27289
1.3324
1.3002
1.74874
2.81699
1.44055
1.88122
3.24154
1.71287
1.045
1.76513
0.961503
0.496383
0.457219
0.384655
0.435526
0.0608754
-0.478639
-1.3621
-1.06615
-1.28773
-3.12554
-2.26759
-2.26891
-2.47695
-5.47469
-10.8445
-7.13924
-15.3012
-33.9367
-21.1392
-1.51515
-0.422852
-0.201266
-0.112736
-0.0652798
-0.0344997
-0.0108324
)
;

boundaryField
{
    left
    {
        type            calculated;
        value           uniform 0;
    }
    right
    {
        type            calculated;
        value           uniform 0;
    }
    interface
    {
        type            calculated;
        value           nonuniform List<scalar> 
64
(
3.80393
4.32037
5.76707
10.357
5.63742
3.75397
6.75261
3.89833
2.44877
2.4168
3.34681
5.4675
2.85232
3.89546
6.87892
3.74177
2.46363
4.42528
2.57303
1.61485
1.59122
2.20911
3.58883
1.85836
2.47565
4.28325
2.27289
1.3324
1.3002
1.74874
2.81699
1.44055
1.88122
3.24154
1.71287
1.045
1.76513
0.961503
0.496383
0.457219
0.384655
0.435526
0.0608754
-0.478639
-1.3621
-1.06615
-1.28773
-3.12554
-2.26759
-2.26891
-2.47695
-5.47469
-10.8445
-7.13924
-15.3012
-33.9367
-21.1392
-1.51515
-0.422852
-0.201266
-0.112736
-0.0652798
-0.0344997
-0.0108324
)
;
    }
    bottom
    {
        type            calculated;
        value           nonuniform List<scalar> 
64
(
0.00630482
0.0187339
0.0306378
0.0417189
0.0517482
0.0605764
0.0681331
0.074416
0.079475
0.0833927
0.0862692
0.0882086
0.0893128
0.0896789
0.0893991
0.0885627
0.0872565
0.085564
0.083563
0.0813221
0.0788969
0.0763282
0.0736409
0.070845
0.0679383
0.0649087
0.0617367
0.0583967
0.0548577
0.0510839
0.047035
0.0426674
0.0379358
0.0327958
0.0272053
0.0211268
0.014528
0.00738291
-0.000328207
-0.00861695
-0.0174849
-0.0269196
-0.0368898
-0.0473381
-0.0581729
-0.0692594
-0.0804105
-0.0913791
-0.101854
-0.111462
-0.11978
-0.126358
-0.130752
-0.132568
-0.131511
-0.127415
-0.120276
-0.110247
-0.0976148
-0.0827645
-0.0661292
-0.04815
-0.0292467
-0.00980734
)
;
    }
    defaultFaces
    {
        type            empty;
    }
}


// ************************************************************************* //
