/*--------------------------------*- C++ -*----------------------------------*\
| =========                 |                                                 |
| \\      /  F ield         | OpenFOAM: The Open Source CFD Toolbox           |
|  \\    /   O peration     | Version:  5.x                                   |
|   \\  /    A nd           | Web:      www.OpenFOAM.org                      |
|    \\/     M anipulation  |                                                 |
\*---------------------------------------------------------------------------*/
FoamFile
{
    version     2.0;
    format      ascii;
    class       volScalarField;
    location    "20";
    object      T;
}
// * * * * * * * * * * * * * * * * * * * * * * * * * * * * * * * * * * * * * //

dimensions      [0 0 0 1 0 0 0];

internalField   nonuniform List<scalar> 
2048
(
9.81021
9.8104
9.81079
9.81136
9.8121
9.81298
9.81399
9.81511
9.81631
9.81759
9.81892
9.82029
9.82168
9.82308
9.82448
9.82587
9.82725
9.8286
9.82992
9.83121
9.83246
9.83368
9.83485
9.83598
9.83706
9.8381
9.83909
9.84003
9.84091
9.84174
9.84251
9.84321
9.84384
9.8444
9.84487
9.84525
9.84553
9.8457
9.84576
9.84569
9.84549
9.84515
9.84465
9.84399
9.84317
9.84218
9.84101
9.83966
9.83815
9.83648
9.83467
9.83274
9.83072
9.82865
9.82658
9.82454
9.82259
9.82078
9.81915
9.81773
9.81656
9.81567
9.81506
9.81475
9.43876
9.43934
9.4405
9.4422
9.44438
9.44701
9.45001
9.45334
9.45692
9.46071
9.46465
9.4687
9.47282
9.47697
9.48112
9.48524
9.48932
9.49332
9.49723
9.50104
9.50475
9.50833
9.5118
9.51514
9.51835
9.52142
9.52435
9.52713
9.52975
9.5322
9.53447
9.53655
9.53843
9.54007
9.54147
9.5426
9.54343
9.54395
9.54413
9.54394
9.54335
9.54234
9.54087
9.53894
9.53651
9.53357
9.53011
9.52614
9.52166
9.51671
9.51133
9.5056
9.4996
9.49345
9.48728
9.48122
9.47543
9.47004
9.46518
9.46096
9.45748
9.45482
9.45301
9.4521
9.08311
9.08408
9.086
9.0888
9.09242
9.09676
9.10171
9.10719
9.11309
9.11931
9.12579
9.13244
9.1392
9.146
9.1528
9.15955
9.16622
9.17276
9.17916
9.1854
9.19145
9.19731
9.20298
9.20843
9.21368
9.2187
9.22348
9.22803
9.23232
9.23633
9.24006
9.24347
9.24654
9.24924
9.25154
9.2534
9.25479
9.25566
9.25597
9.25568
9.25474
9.25311
9.25074
9.2476
9.24365
9.23886
9.23321
9.22671
9.21937
9.21124
9.2024
9.19296
9.18308
9.17293
9.16273
9.15272
9.14314
9.13423
9.1262
9.11924
9.1135
9.1091
9.10612
9.10462
8.74234
8.7437
8.74639
8.75031
8.75535
8.76139
8.76829
8.77589
8.78406
8.79268
8.80163
8.81081
8.82013
8.82951
8.83887
8.84817
8.85733
8.86633
8.87512
8.88368
8.89199
8.90003
8.9078
8.91529
8.92248
8.92937
8.93595
8.94219
8.94808
8.95361
8.95873
8.96343
8.96767
8.9714
8.97459
8.97718
8.97912
8.98036
8.98083
8.98047
8.97923
8.97704
8.97384
8.96957
8.96418
8.95763
8.94989
8.94095
8.93085
8.91963
8.9074
8.89431
8.88058
8.86646
8.85225
8.83829
8.82493
8.8125
8.8013
8.79161
8.78363
8.77752
8.77339
8.7713
8.41562
8.41738
8.42084
8.4259
8.4324
8.44016
8.44899
8.45871
8.46914
8.48012
8.4915
8.50316
8.51498
8.52686
8.53872
8.55048
8.56206
8.57342
8.58452
8.59531
8.60579
8.61593
8.62572
8.63515
8.64422
8.6529
8.6612
8.66907
8.67651
8.68349
8.68998
8.69593
8.70131
8.70606
8.71013
8.71345
8.71596
8.71758
8.71824
8.71787
8.71637
8.71368
8.70972
8.7044
8.69766
8.68944
8.67971
8.66843
8.65564
8.6414
8.62584
8.60913
8.59156
8.57344
8.55519
8.53723
8.52004
8.50405
8.48967
8.47723
8.467
8.45918
8.4539
8.45125
8.10216
8.10434
8.10862
8.11485
8.12284
8.13235
8.14315
8.155
8.16768
8.181
8.19478
8.20887
8.22314
8.23747
8.25176
8.26591
8.27984
8.29348
8.3068
8.31975
8.3323
8.34445
8.35618
8.36748
8.37834
8.38875
8.3987
8.40815
8.41709
8.42548
8.43329
8.44047
8.44697
8.45272
8.45767
8.46173
8.46482
8.46685
8.46774
8.46739
8.4657
8.46258
8.45793
8.45165
8.44366
8.43387
8.42223
8.40871
8.39332
8.37612
8.35725
8.33693
8.31549
8.29332
8.27094
8.2489
8.22779
8.20817
8.19054
8.17532
8.16283
8.1533
8.14688
8.14365
7.80126
7.80388
7.80901
7.81647
7.82601
7.83733
7.85013
7.86413
7.87907
7.89471
7.91087
7.92735
7.94403
7.96076
7.97742
7.9939
8.0101
8.02596
8.04142
8.05644
8.07099
8.08506
8.09865
8.11174
8.12433
8.13641
8.14794
8.15892
8.1693
8.17906
8.18816
8.19654
8.20414
8.21089
8.21672
8.22153
8.22522
8.2277
8.22885
8.22857
8.22675
8.22327
8.21801
8.21086
8.20171
8.19045
8.17701
8.16133
8.14342
8.12332
8.10117
8.07723
8.05187
8.02557
7.99895
7.97269
7.94754
7.92417
7.90321
7.88517
7.8704
7.85915
7.85159
7.84779
7.51225
7.51534
7.52138
7.53014
7.54129
7.55448
7.56934
7.58553
7.60274
7.6207
7.63921
7.65806
7.6771
7.69618
7.71516
7.73391
7.75233
7.77034
7.78787
7.80487
7.82134
7.83726
7.85262
7.86743
7.88168
7.89535
7.90842
7.92086
7.93265
7.94374
7.95409
7.96365
7.97234
7.98009
7.9868
7.99237
7.99669
7.99964
8.0011
8.00095
7.99905
7.99528
7.9895
7.98158
7.97136
7.95874
7.9436
7.92586
7.9055
7.88256
7.85716
7.82958
7.80023
7.76968
7.73867
7.70804
7.67867
7.65143
7.62705
7.60612
7.58905
7.57609
7.5674
7.56304
7.23452
7.23811
7.24513
7.25527
7.26813
7.28327
7.30025
7.31866
7.33815
7.35844
7.37927
7.40046
7.42183
7.44322
7.46447
7.48544
7.50602
7.52611
7.54563
7.56455
7.58285
7.60053
7.6176
7.63406
7.6499
7.66511
7.67965
7.69351
7.70665
7.71903
7.73061
7.74132
7.7511
7.75984
7.76744
7.77379
7.77876
7.78221
7.78402
7.78405
7.78214
7.77816
7.77194
7.76333
7.75215
7.73827
7.72154
7.70185
7.67914
7.65341
7.62479
7.59355
7.56013
7.52519
7.48961
7.45439
7.42062
7.38934
7.36144
7.33757
7.31818
7.30352
7.29372
7.28881
6.96749
6.97163
6.9797
6.99132
7.006
7.02318
7.04235
7.06303
7.08482
7.10742
7.13056
7.15406
7.17772
7.20137
7.22486
7.248
7.27068
7.29278
7.31423
7.33498
7.35504
7.37441
7.3931
7.41114
7.42851
7.4452
7.46117
7.4764
7.49085
7.50448
7.51726
7.5291
7.53995
7.54968
7.55819
7.56533
7.57097
7.57496
7.57716
7.57741
7.57556
7.57144
7.56486
7.55565
7.54363
7.5286
7.51039
7.48885
7.46389
7.43546
7.40365
7.36871
7.33114
7.29166
7.25129
7.21125
7.17285
7.13736
7.10581
7.07895
7.05725
7.04091
7.03003
7.02459
6.7106
6.71534
6.72456
6.73778
6.75439
6.77373
6.79517
6.81816
6.84227
6.86717
6.8926
6.91837
6.94429
6.97017
6.99584
7.02112
7.04585
7.0699
7.0932
7.11571
7.13744
7.15842
7.17867
7.19822
7.21706
7.23517
7.25252
7.26907
7.28478
7.29963
7.31357
7.32654
7.33844
7.34917
7.35858
7.36654
7.37288
7.37744
7.38007
7.38059
7.37885
7.37466
7.36781
7.35811
7.34533
7.32927
7.3097
7.28644
7.25933
7.22828
7.19333
7.15469
7.11286
7.06867
7.02327
6.97813
6.93485
6.89494
6.85962
6.82974
6.80574
6.78777
6.77585
6.76992
6.46334
6.46875
6.47923
6.49419
6.51288
6.53448
6.55827
6.58363
6.61007
6.63725
6.66494
6.69294
6.72107
6.74915
6.77698
6.80435
6.83108
6.85703
6.88211
6.9063
6.92962
6.95212
6.97386
6.99485
7.0151
7.03458
7.05326
7.07109
7.08803
7.10405
7.11913
7.13319
7.14615
7.15787
7.1682
7.17699
7.18405
7.18921
7.1923
7.19315
7.19158
7.18738
7.18035
7.17024
7.15682
7.13984
7.11904
7.09419
7.06506
7.03149
6.99345
6.9511
6.90494
6.85584
6.80514
6.75459
6.70611
6.66156
6.62237
6.58944
6.56318
6.54366
6.53077
6.52437
6.22523
6.23137
6.24324
6.2601
6.28101
6.30502
6.33125
6.35901
6.38779
6.41723
6.44713
6.47732
6.50763
6.53788
6.56783
6.59726
6.62594
6.65373
6.68052
6.70631
6.73114
6.75509
6.77823
6.8006
6.82221
6.84302
6.86298
6.88204
6.90015
6.91732
6.9335
6.94864
6.96264
6.97536
6.98663
6.99626
7.00406
7.00985
7.01344
7.01466
7.0133
7.00917
7.00203
6.99161
6.97766
6.95988
6.93798
6.91167
6.88065
6.84469
6.80365
6.7576
6.70701
6.65281
6.59651
6.54017
6.48617
6.43673
6.39355
6.35759
6.32915
6.30817
6.2944
6.28759
5.99579
6.00275
6.01616
6.0351
6.05842
6.08496
6.11373
6.14393
6.17503
6.20671
6.23877
6.2711
6.30355
6.33592
6.36797
6.39943
6.43003
6.4596
6.48804
6.51534
6.54159
6.5669
6.59137
6.61507
6.63798
6.66008
6.68128
6.70152
6.72077
6.73903
6.75629
6.77249
6.78752
6.80125
6.81346
6.82396
6.83252
6.83895
6.84307
6.84469
6.84361
6.83961
6.83243
6.8218
6.80741
6.78895
6.76608
6.73845
6.70571
6.66749
6.62356
6.57386
6.51876
6.45925
6.39701
6.33448
6.27455
6.21997
6.17271
6.13374
6.10325
6.08095
6.0664
6.05924
5.77458
5.78247
5.79759
5.81881
5.84473
5.87396
5.90535
5.93803
5.97144
6.00529
6.03945
6.07387
6.10841
6.14288
6.17701
6.21048
6.24296
6.27426
6.30427
6.333
6.36057
6.38715
6.41289
6.43785
6.46203
6.48537
6.50777
6.52915
6.54949
6.5688
6.5871
6.60433
6.6204
6.63514
6.64831
6.65969
6.66903
6.67613
6.68081
6.68286
6.6821
6.67828
6.67115
6.66039
6.64566
6.62664
6.60293
6.57414
6.53982
6.49953
6.45283
6.39954
6.33989
6.27485
6.20631
6.13711
6.0708
6.01079
5.95937
5.9175
5.88511
5.86165
5.84646
5.83902
5.56119
5.5701
5.58713
5.61086
5.63959
5.67167
5.70577
5.74096
5.77665
5.8126
5.84879
5.88524
5.92183
5.95837
5.99456
6.03002
6.06435
6.09732
6.12883
6.1589
6.1877
6.21547
6.24239
6.26856
6.29396
6.31852
6.34209
6.36457
6.38593
6.40625
6.42555
6.44381
6.46091
6.47666
6.49081
6.50308
6.51322
6.52101
6.52625
6.52877
6.52837
6.5248
6.51778
6.50697
6.49201
6.47253
6.44812
6.41832
6.38261
6.34042
6.29114
6.23435
6.17011
6.09935
6.02411
5.94769
5.87447
5.80873
5.75311
5.70847
5.67439
5.64999
5.63432
5.62667
5.35519
5.36527
5.38442
5.41093
5.44271
5.47779
5.51469
5.5524
5.59031
5.62829
5.66642
5.70482
5.74341
5.78199
5.82025
5.85769
5.89385
5.92845
5.96138
5.99269
6.02262
6.05147
6.07952
6.10685
6.13343
6.15918
6.1839
6.20742
6.22976
6.25103
6.2713
6.29056
6.30868
6.32547
6.34061
6.35378
6.36473
6.37322
6.37905
6.38205
6.38204
6.37878
6.37194
6.36115
6.34605
6.32622
6.30124
6.27059
6.23368
6.1898
6.13814
6.07799
6.00916
5.9325
5.85014
5.76586
5.68512
5.61331
5.5535
5.50629
5.4708
5.44569
5.42971
5.42195
5.15622
5.16761
5.18912
5.2187
5.25379
5.29202
5.33181
5.37205
5.41212
5.452
5.49196
5.53225
5.5728
5.6134
5.65372
5.69316
5.7311
5.76728
5.80158
5.83403
5.86496
5.89481
5.92391
5.95235
5.98009
6.00702
6.03286
6.05738
6.08064
6.10279
6.124
6.14424
6.16338
6.18121
6.19736
6.21146
6.22322
6.23242
6.23884
6.24235
6.24276
6.23984
6.23325
6.22257
6.2074
6.18734
6.16191
6.13056
6.09264
6.04732
5.99351
5.93018
5.85681
5.77407
5.68415
5.59127
5.50228
5.42407
5.36013
5.31064
5.27406
5.24853
5.23243
5.22465
4.96388
4.97677
5.0009
5.03388
5.07256
5.1141
5.15685
5.19962
5.24175
5.28341
5.32508
5.36718
5.40965
5.45223
5.49464
5.53609
5.5758
5.61351
5.64909
5.68257
5.7144
5.74514
5.77523
5.80473
5.8336
5.86171
5.88866
5.91414
5.93823
5.96121
5.98332
6.00452
6.02466
6.04356
6.06076
6.07578
6.08836
6.09827
6.1053
6.10931
6.11018
6.10765
6.10137
6.09087
6.07571
6.05549
6.02975
5.99785
5.9591
5.91259
5.85693
5.79066
5.71281
5.62387
5.52595
5.42363
5.32548
5.24052
5.17261
5.1212
5.08393
5.05828
5.04227
5.03457
4.77783
4.7924
4.81945
4.85621
4.89878
4.94376
4.98953
5.03483
5.07891
5.1222
5.16543
5.20928
5.2536
5.29813
5.34267
5.38618
5.42762
5.46682
5.50362
5.53802
5.57061
5.60212
5.63314
5.66368
5.69364
5.72294
5.75102
5.77739
5.80223
5.82596
5.84893
5.87108
5.89222
5.91221
5.93048
5.94643
5.95984
5.97047
5.97809
5.98262
5.98395
5.98186
5.97595
5.96569
5.95061
5.93033
5.90438
5.87207
5.83269
5.78527
5.72807
5.65915
5.57694
5.48172
5.37541
5.26262
5.15424
5.06218
4.99055
4.93772
4.9002
4.87477
4.85904
4.85154
4.59771
4.61422
4.64447
4.68542
4.73224
4.78076
4.8296
4.87743
4.92331
4.96804
5.01266
5.0582
5.10436
5.15078
5.19751
5.24314
5.28625
5.3269
5.36488
5.40005
5.43327
5.46543
5.49734
5.52889
5.55989
5.59042
5.61965
5.64684
5.67236
5.69674
5.72056
5.74363
5.76574
5.78687
5.80626
5.82313
5.83737
5.84872
5.85691
5.86195
5.86376
5.86216
5.85667
5.84672
5.83177
5.81149
5.78546
5.75286
5.71302
5.665
5.60663
5.5354
5.44899
5.34747
5.23242
5.10799
4.98801
4.88855
4.81362
4.75994
4.72267
4.69781
4.68259
4.67537
4.42319
4.44193
4.47566
4.52129
4.57274
4.62483
4.67681
4.72719
4.77467
4.82064
4.86645
4.91365
4.9616
5.00982
5.05885
5.1067
5.15141
5.19347
5.2326
5.26839
5.30208
5.33475
5.36753
5.40007
5.43207
5.46388
5.49431
5.52224
5.54831
5.57325
5.59789
5.62188
5.64493
5.66725
5.68781
5.70558
5.72064
5.73273
5.74147
5.747
5.74929
5.74822
5.74323
5.73364
5.71887
5.69864
5.67265
5.63987
5.59971
5.55142
5.49227
5.41917
5.32871
5.22096
5.09699
4.95951
4.82622
4.71912
4.64149
4.58766
4.55119
4.52725
4.51275
4.50591
4.25393
4.27528
4.31272
4.36361
4.42014
4.47575
4.53089
4.58389
4.63273
4.67971
4.72646
4.77533
4.82505
4.87493
4.9264
4.97662
5.0228
5.06624
5.10652
5.14276
5.17676
5.20977
5.24343
5.27695
5.30985
5.34306
5.37477
5.40332
5.42984
5.4552
5.48068
5.50558
5.5295
5.55308
5.5749
5.59352
5.6094
5.62223
5.63148
5.63749
5.64026
5.63977
5.63533
5.62616
5.6116
5.59146
5.56563
5.53275
5.49238
5.44419
5.38468
5.31021
5.21588
5.10204
4.96918
4.81699
4.6682
4.55337
4.47388
4.42073
4.38562
4.36296
4.34937
4.343
4.0896
4.11406
4.15536
4.21217
4.27432
4.33323
4.39161
4.44733
4.4972
4.54496
4.59234
4.64296
4.69445
4.74575
4.79988
4.8527
4.90013
4.94494
4.98642
5.02288
5.05703
5.09017
5.12477
5.15928
5.19295
5.22768
5.26081
5.28984
5.31668
5.3423
5.36865
5.39448
5.41915
5.44411
5.46729
5.48668
5.50338
5.51698
5.52668
5.53314
5.53637
5.53651
5.53269
5.524
5.50966
5.48963
5.4641
5.43118
5.39066
5.34295
5.28352
5.20832
5.11024
4.99052
4.8492
4.68031
4.51315
4.39079
4.31055
4.25901
4.22586
4.20481
4.19231
4.18647
3.92988
3.9581
4.00324
4.06678
4.13522
4.19701
4.2587
4.31737
4.36783
4.41615
4.46375
4.51628
4.56959
4.62193
4.67904
4.73477
4.78311
4.8293
4.8721
4.90848
4.94264
4.97566
5.01132
5.04685
5.08105
5.11752
5.15228
5.18155
5.20859
5.23426
5.26158
5.28835
5.31361
5.3401
5.36479
5.38479
5.40232
5.41675
5.4268
5.43369
5.43735
5.43819
5.43506
5.42691
5.41278
5.39283
5.3678
5.33486
5.29414
5.24738
5.18845
5.1133
5.01151
4.88615
4.73738
4.54942
4.36016
4.23087
4.15132
4.10243
4.0718
4.05266
4.0414
4.03617
3.77441
3.80734
3.85599
3.92728
4.00284
4.06675
4.13189
4.19388
4.24432
4.29304
4.34031
4.39507
4.45028
4.50306
4.56362
4.62271
4.67141
4.71905
4.76341
4.7993
4.83336
4.8659
4.90283
4.93946
4.97382
5.01235
5.04902
5.07821
5.10537
5.13078
5.15925
5.18702
5.21255
5.24081
5.26723
5.2876
5.30598
5.32132
5.3316
5.33891
5.34294
5.34456
5.34218
5.33464
5.3207
5.30075
5.27647
5.2435
5.20243
5.15716
5.09911
5.025
4.91938
4.78862
4.63424
4.42438
4.20805
4.07312
3.9961
3.95092
3.92337
3.90641
3.89652
3.89194
3.62282
3.66177
3.71318
3.79351
3.87729
3.94207
4.01092
4.07681
4.12637
4.17545
4.22159
4.27912
4.3364
4.38869
4.45337
4.51648
4.56469
4.6139
4.66021
4.69506
4.729
4.76054
4.79912
4.83698
4.87091
4.91194
4.95094
4.97956
5.0068
5.03156
5.06145
5.09031
5.11568
5.14602
5.17446
5.19484
5.21412
5.23052
5.24082
5.24857
5.25286
5.25537
5.25382
5.24697
5.23318
5.21309
5.1899
5.15685
5.1151
5.07202
5.01509
4.94336
4.8335
4.69744
4.54051
4.30539
4.0554
3.91716
3.84485
3.80448
3.7805
3.76593
3.7575
3.75361
3.47472
3.52157
3.57428
3.6653
3.75876
3.82252
3.89546
3.96618
4.01361
4.06323
4.10715
4.16827
4.2279
4.27833
4.34807
4.41609
4.46255
4.51359
4.56245
4.59545
4.6294
4.65923
4.7
4.73929
4.77193
4.81608
4.85799
4.88534
4.91275
4.93626
4.968
4.99812
5.02264
5.05553
5.08641
5.10621
5.12651
5.14418
5.15422
5.16245
5.16687
5.17042
5.16975
5.1637
5.14999
5.12951
5.10792
5.07469
5.0317
4.99172
4.93594
4.86837
4.75349
4.61193
4.45721
4.1928
3.90039
3.76269
3.69763
3.66312
3.64311
3.6311
3.62419
3.62101
3.32963
3.38707
3.43862
3.54253
3.64761
3.70752
3.78523
3.86212
3.90563
3.95635
3.99645
4.06236
4.12483
4.17137
4.2475
4.32168
4.36454
4.41782
4.47014
4.50012
4.53445
4.56154
4.60533
4.64636
4.67643
4.72457
4.77017
4.79523
4.8231
4.84452
4.87877
4.91037
4.93304
4.96915
5.00302
5.02143
5.04292
5.06218
5.07154
5.08038
5.08471
5.08949
5.08975
5.08464
5.07095
5.04966
5.03039
4.99684
4.95172
4.91609
4.86113
4.80016
4.67896
4.53113
4.38566
4.0872
3.74072
3.6096
3.5546
3.52687
3.51114
3.50179
3.49644
3.49398
3.187
3.25884
3.30535
3.42504
3.54438
3.59635
3.67986
3.76485
3.80187
3.85485
3.88884
3.96133
4.02734
4.06709
4.15146
4.23353
4.27011
4.32631
4.38338
4.40866
4.44414
4.46698
4.51498
4.55824
4.58388
4.63725
4.68758
4.70887
4.7378
4.75591
4.79361
4.82706
4.84646
4.88669
4.92433
4.94015
4.96314
4.98444
4.99251
5.00221
5.00611
5.0124
5.01362
5.00961
4.99587
4.97317
4.95721
4.92319
4.8746
4.84509
4.78999
4.739
4.60948
4.45371
4.32758
3.98947
3.57347
3.45806
3.41597
3.39577
3.3845
3.37787
3.37408
3.37234
3.04617
3.13779
3.17339
3.31271
3.44982
3.48809
3.57902
3.67481
3.70167
3.75897
3.78355
3.86511
3.93574
3.9646
4.05977
4.15203
4.17859
4.23874
4.30237
4.32057
4.35856
4.37501
4.42887
4.47507
4.49366
4.55392
4.61039
4.62581
4.65689
4.66997
4.71243
4.74827
4.76238
4.808
4.85042
4.86198
4.88695
4.91091
4.91684
4.92782
4.93079
4.939
4.94113
4.93846
4.92463
4.89961
4.88834
4.85365
4.79967
4.77876
4.72171
4.68537
4.54466
4.37784
4.28515
3.90083
3.39496
3.30862
3.28205
3.26984
3.26312
3.25918
3.25694
3.25591
2.90632
3.0252
3.04133
3.20542
3.36499
3.38159
3.4823
3.59261
3.60413
3.66913
3.67965
3.77372
3.85051
3.86285
3.97224
4.07782
4.08917
4.15481
4.22746
4.23521
4.27793
4.28494
4.34696
4.39709
4.40504
4.47445
4.53889
4.54548
4.58053
4.58611
4.63517
4.67414
4.68019
4.73293
4.78149
4.78646
4.81415
4.84162
4.84419
4.85713
4.85848
4.86915
4.87209
4.87105
4.85713
4.82849
4.82382
4.78825
4.72614
4.71739
4.65524
4.63998
4.48416
4.30109
4.26105
3.82293
3.20053
3.16233
3.15318
3.14912
3.14689
3.14559
3.14485
3.14451
)
;

boundaryField
{
    left
    {
        type            zeroGradient;
    }
    right
    {
        type            zeroGradient;
    }
    interface
    {
        type            fixedValue;
        value           nonuniform List<scalar> 
64
(
2.83482
2.97287
2.97287
3.15309
3.3273
3.3273
3.43477
3.55503
3.55503
3.62665
3.62665
3.7295
3.81055
3.81055
3.92956
4.04403
4.04403
4.11359
4.19257
4.19257
4.23946
4.23946
4.30724
4.36009
4.36009
4.43574
4.50547
4.50547
4.54398
4.54398
4.59768
4.63878
4.63878
4.69635
4.74895
4.74895
4.77857
4.80841
4.80841
4.82288
4.82288
4.83521
4.83845
4.83845
4.82453
4.79309
4.79309
4.75698
4.68879
4.68879
4.62151
4.62151
4.4553
4.2598
4.2598
3.78972
3.09005
3.09005
3.09005
3.09005
3.09005
3.09005
3.09005
3.09005
)
;
    }
    bottom
    {
        type            fixedValue;
        value           uniform 10;
    }
    defaultFaces
    {
        type            empty;
    }
}


// ************************************************************************* //
