/*--------------------------------*- C++ -*----------------------------------*\
| =========                 |                                                 |
| \\      /  F ield         | OpenFOAM: The Open Source CFD Toolbox           |
|  \\    /   O peration     | Version:  5.x                                   |
|   \\  /    A nd           | Web:      www.OpenFOAM.org                      |
|    \\/     M anipulation  |                                                 |
\*---------------------------------------------------------------------------*/
FoamFile
{
    version     2.0;
    format      ascii;
    class       volScalarField;
    location    "0.9";
    object      gradTy;
}
// * * * * * * * * * * * * * * * * * * * * * * * * * * * * * * * * * * * * * //

dimensions      [0 -1 0 1 0 0 0];

internalField   nonuniform List<scalar> 
2048
(
-26.5803
-26.5542
-26.5028
-26.4276
-26.3306
-26.2145
-26.0819
-25.9356
-25.7784
-25.6128
-25.4413
-25.2659
-25.0885
-24.9108
-24.7343
-24.5602
-24.3896
-24.2235
-24.0625
-23.9071
-23.7578
-23.615
-23.4787
-23.3492
-23.2267
-23.1114
-23.0033
-22.9027
-22.8099
-22.7252
-22.6489
-22.5816
-22.5236
-22.4757
-22.4386
-22.4129
-22.3995
-22.3994
-22.4135
-22.4429
-22.4885
-22.5515
-22.6328
-22.7334
-22.8541
-22.9957
-23.1583
-23.342
-23.5461
-23.7695
-24.01
-24.2646
-24.5297
-24.8003
-25.0712
-25.3362
-25.5894
-25.8247
-26.0365
-26.2201
-26.3715
-26.4875
-26.566
-26.6056
-26.6014
-26.5746
-26.522
-26.4451
-26.3461
-26.2277
-26.0928
-25.9443
-25.785
-25.6175
-25.4443
-25.2673
-25.0886
-24.9097
-24.7321
-24.5572
-24.3859
-24.2191
-24.0576
-23.9019
-23.7524
-23.6093
-23.4729
-23.3433
-23.2207
-23.1051
-22.9968
-22.8961
-22.803
-22.718
-22.6413
-22.5735
-22.5151
-22.4666
-22.4288
-22.4024
-22.3883
-22.3874
-22.4007
-22.4292
-22.474
-22.5361
-22.6166
-22.7166
-22.8368
-22.9781
-23.1408
-23.3249
-23.5301
-23.7551
-23.998
-24.2558
-24.5246
-24.7997
-25.0754
-25.3454
-25.6034
-25.8432
-26.0589
-26.2458
-26.3996
-26.5174
-26.5971
-26.6372
-26.6416
-26.6136
-26.5586
-26.4783
-26.3754
-26.2527
-26.1134
-25.9607
-25.7974
-25.6263
-25.4498
-25.2699
-25.0886
-24.9074
-24.7279
-24.5513
-24.3786
-24.2107
-24.0484
-23.892
-23.742
-23.5986
-23.4619
-23.3321
-23.2092
-23.0933
-22.9847
-22.8835
-22.7899
-22.7043
-22.627
-22.5583
-22.499
-22.4494
-22.4104
-22.3827
-22.3672
-22.3648
-22.3765
-22.4033
-22.4465
-22.507
-22.586
-22.6846
-22.8038
-22.9445
-23.1072
-23.2922
-23.4993
-23.7274
-23.9747
-24.2384
-24.5146
-24.7982
-25.0832
-25.3628
-25.6302
-25.8786
-26.1018
-26.2948
-26.4533
-26.5745
-26.6562
-26.6974
-26.6994
-26.6695
-26.6109
-26.5257
-26.417
-26.288
-26.1424
-25.9835
-25.8146
-25.6383
-25.4572
-25.2732
-25.0883
-24.904
-24.7217
-24.5427
-24.3681
-24.1987
-24.0352
-23.878
-23.7274
-23.5835
-23.4464
-23.3162
-23.193
-23.0767
-22.9676
-22.8658
-22.7716
-22.6851
-22.6068
-22.537
-22.4763
-22.4252
-22.3845
-22.3549
-22.3374
-22.3329
-22.3423
-22.3669
-22.4076
-22.4658
-22.5427
-22.6393
-22.757
-22.8967
-23.0592
-23.2453
-23.4548
-23.6871
-23.9407
-24.2128
-24.4995
-24.7954
-25.0939
-25.3875
-25.6685
-25.9294
-26.1634
-26.3651
-26.5302
-26.656
-26.7406
-26.7832
-26.7734
-26.741
-26.6776
-26.5859
-26.4694
-26.3322
-26.1784
-26.0117
-25.8355
-25.6528
-25.4659
-25.2769
-25.0875
-24.8993
-24.7135
-24.5316
-24.3546
-24.1833
-24.0184
-23.8601
-23.7088
-23.5644
-23.427
-23.2964
-23.1727
-23.056
-22.9463
-22.8439
-22.7488
-22.6613
-22.5818
-22.5106
-22.4482
-22.3952
-22.3523
-22.3204
-22.3003
-22.2931
-22.2997
-22.3213
-22.359
-22.4143
-22.4882
-22.5822
-22.6977
-22.836
-22.9981
-23.1851
-23.3973
-23.6347
-23.896
-24.1787
-24.4789
-24.7906
-25.1068
-25.4187
-25.7176
-25.9946
-26.2424
-26.455
-26.6282
-26.7596
-26.8475
-26.8917
-26.8629
-26.8272
-26.7577
-26.6577
-26.5315
-26.3841
-26.2201
-26.0439
-25.8592
-25.6689
-25.4754
-25.2806
-25.086
-24.8931
-24.7034
-24.518
-24.3382
-24.1647
-23.9982
-23.8389
-23.6868
-23.542
-23.4042
-23.2733
-23.1491
-23.0319
-22.9215
-22.8183
-22.7222
-22.6336
-22.5527
-22.4798
-22.4154
-22.3602
-22.3148
-22.2801
-22.257
-22.2466
-22.2498
-22.2679
-22.3021
-22.3537
-22.4241
-22.5149
-22.6275
-22.7637
-22.9249
-23.1125
-23.3275
-23.5704
-23.8405
-24.1357
-24.452
-24.7833
-25.1212
-25.4558
-25.7767
-26.0735
-26.3379
-26.5633
-26.7458
-26.8833
-26.9749
-27.0208
-26.9672
-26.9275
-26.8504
-26.7401
-26.6021
-26.4423
-26.2664
-26.0792
-25.8848
-25.686
-25.4851
-25.2838
-25.0835
-24.8855
-24.6912
-24.502
-24.319
-24.1431
-23.9749
-23.8145
-23.6619
-23.5166
-23.3785
-23.2473
-23.1227
-23.0049
-22.8938
-22.7897
-22.6927
-22.6028
-22.5203
-22.4456
-22.379
-22.3212
-22.2729
-22.2351
-22.2086
-22.1945
-22.1939
-22.208
-22.238
-22.2854
-22.3517
-22.4385
-22.5476
-22.681
-22.8405
-23.0282
-23.2456
-23.4941
-23.7738
-24.083
-24.4181
-24.7723
-25.1363
-25.4983
-25.8455
-26.1658
-26.4494
-26.6893
-26.8818
-27.0256
-27.1207
-27.1682
-27.0861
-27.0414
-26.955
-26.8322
-26.68
-26.5057
-26.316
-26.1164
-25.9112
-25.7033
-25.4945
-25.2863
-25.0798
-24.8763
-24.677
-24.4835
-24.2971
-24.1186
-23.9487
-23.7873
-23.6342
-23.4888
-23.3505
-23.219
-23.094
-22.9755
-22.8637
-22.7587
-22.6606
-22.5695
-22.4854
-22.4087
-22.3396
-22.279
-22.2276
-22.1862
-22.156
-22.1379
-22.133
-22.1427
-22.168
-22.2106
-22.2721
-22.3542
-22.4591
-22.5888
-22.7459
-22.9328
-23.1521
-23.4059
-23.6954
-24.02
-24.3761
-24.7569
-25.1515
-25.5457
-25.924
-26.2716
-26.5768
-26.8324
-27.0351
-27.1849
-27.2831
-27.3318
-27.2195
-27.1686
-27.0709
-26.9333
-26.7643
-26.5731
-26.3678
-26.1545
-25.9377
-25.7201
-25.5032
-25.2879
-25.0749
-24.8654
-24.6608
-24.4627
-24.2725
-24.0913
-23.9197
-23.7575
-23.6042
-23.4588
-23.3205
-23.1888
-23.0634
-22.9444
-22.8318
-22.7259
-22.6267
-22.5342
-22.4485
-22.3696
-22.298
-22.2344
-22.1795
-22.1343
-22.1
-22.0776
-22.0681
-22.0729
-22.0932
-22.1305
-22.1866
-22.2634
-22.3631
-22.4884
-22.6419
-22.827
-23.047
-23.3054
-23.6047
-23.9454
-24.3249
-24.7359
-25.1659
-25.5979
-26.0124
-26.3912
-26.7204
-26.9923
-27.2049
-27.3598
-27.4602
-27.5096
-27.3674
-27.3093
-27.198
-27.0425
-26.8539
-26.6433
-26.4204
-26.1922
-25.9633
-25.7359
-25.5109
-25.2884
-25.0688
-24.853
-24.6426
-24.4394
-24.2452
-24.0612
-23.888
-23.7253
-23.5721
-23.4271
-23.2891
-23.1573
-23.0315
-22.9117
-22.7983
-22.6915
-22.5914
-22.4977
-22.4102
-22.3292
-22.2548
-22.1879
-22.1293
-22.0801
-22.0414
-22.0144
-22.0001
-21.9997
-22.0144
-22.046
-22.0961
-22.1669
-22.2608
-22.3806
-22.5295
-22.7114
-22.9308
-23.1926
-23.501
-23.8583
-24.263
-24.7079
-25.1786
-25.6546
-26.1111
-26.5253
-26.8805
-27.169
-27.3903
-27.5488
-27.65
-27.6994
-27.5304
-27.4633
-27.3357
-27.1591
-26.9476
-26.715
-26.4727
-26.2285
-25.9871
-25.7501
-25.5172
-25.2877
-25.0614
-24.8391
-24.6225
-24.4137
-24.2152
-24.0284
-23.8538
-23.6909
-23.5383
-23.394
-23.2566
-23.1248
-22.9986
-22.8781
-22.7637
-22.6561
-22.555
-22.4602
-22.3711
-22.2878
-22.2106
-22.1401
-22.0776
-22.0241
-21.9809
-21.9491
-21.9297
-21.9238
-21.9327
-21.9581
-22.0018
-22.0659
-22.1532
-22.2665
-22.4095
-22.5868
-22.8039
-23.0673
-23.3835
-23.7572
-24.1888
-24.6714
-25.1888
-25.7157
-26.221
-26.6751
-27.0582
-27.3626
-27.5908
-27.7505
-27.8507
-27.899
-27.7088
-27.631
-27.4839
-27.2824
-27.0444
-26.7869
-26.5233
-26.2623
-26.0085
-25.7622
-25.522
-25.2859
-25.053
-24.8239
-24.6005
-24.3857
-24.1825
-23.9928
-23.8171
-23.6545
-23.503
-23.3601
-23.2234
-23.0919
-22.9651
-22.8436
-22.7283
-22.6198
-22.518
-22.4222
-22.3317
-22.2461
-22.1658
-22.0917
-22.0249
-21.9669
-21.919
-21.8822
-21.8576
-21.8461
-21.8489
-21.8677
-21.9044
-21.9614
-22.0413
-22.1472
-22.2831
-22.454
-22.6667
-22.9295
-23.2516
-23.641
-24.1006
-24.6246
-25.1952
-25.7814
-26.3431
-26.8422
-27.2544
-27.5733
-27.8054
-27.9634
-28.0602
-28.1061
-27.9035
-27.8127
-27.6425
-27.4116
-27.143
-26.8575
-26.5708
-26.2925
-26.0265
-25.7719
-25.5253
-25.2831
-25.0437
-24.8075
-24.5767
-24.3553
-24.1471
-23.9544
-23.7778
-23.6162
-23.4666
-23.3256
-23.1901
-23.0587
-22.9313
-22.8087
-22.6923
-22.583
-22.4807
-22.3842
-22.2923
-22.2045
-22.121
-22.0429
-21.9717
-21.909
-21.8563
-21.8144
-21.7844
-21.7671
-21.7636
-21.7755
-21.8049
-21.8542
-21.9261
-22.0238
-22.1512
-22.3139
-22.5199
-22.7793
-23.1047
-23.508
-23.9962
-24.5654
-25.1964
-25.8517
-26.4791
-27.0286
-27.4707
-27.8015
-28.0335
-28.1858
-28.2763
-28.3183
-28.1151
-28.009
-27.8112
-27.5458
-27.242
-26.9254
-26.614
-26.3178
-26.0405
-25.779
-25.5272
-25.2796
-25.0339
-24.7902
-24.5513
-24.3224
-24.1087
-23.9131
-23.7361
-23.5761
-23.4294
-23.2909
-23.157
-23.0259
-22.8976
-22.7735
-22.6557
-22.5458
-22.4433
-22.3464
-22.2534
-22.1633
-22.0766
-21.9943
-21.9184
-21.8508
-21.7931
-21.7462
-21.7108
-21.6877
-21.6777
-21.6824
-21.704
-21.7452
-21.8086
-21.8972
-22.0149
-22.1677
-22.3643
-22.6169
-22.9421
-23.3569
-23.8736
-24.4914
-25.1906
-25.9266
-26.631
-27.237
-27.709
-28.0475
-28.274
-28.4159
-28.4966
-28.5331
-28.3449
-28.2203
-27.9899
-27.6842
-27.3399
-26.989
-26.6513
-26.3372
-26.0498
-25.7832
-25.5279
-25.2759
-25.0239
-24.7725
-24.5245
-24.287
-24.0674
-23.8687
-23.6917
-23.5344
-23.3916
-23.2566
-23.1246
-22.9937
-22.8643
-22.7382
-22.6187
-22.5082
-22.4061
-22.3093
-22.2153
-22.1231
-22.033
-21.9461
-21.8651
-21.7925
-21.7298
-21.6779
-21.6372
-21.6082
-21.5916
-21.5889
-21.6024
-21.6351
-21.6897
-21.7686
-21.8755
-22.0165
-22.2009
-22.4429
-22.7634
-23.1861
-23.7302
-24.3996
-25.1757
-26.0064
-26.8017
-27.4707
-27.9712
-28.3116
-28.5259
-28.6516
-28.7189
-28.7479
-28.5941
-28.4473
-28.1786
-27.8256
-27.4352
-27.0469
-26.6814
-26.3496
-26.0538
-25.7845
-25.5278
-25.2722
-25.0143
-24.7547
-24.4963
-24.249
-24.023
-23.8212
-23.6446
-23.4911
-23.3535
-23.2231
-23.0933
-22.9625
-22.8317
-22.7029
-22.5811
-22.4703
-22.3691
-22.2732
-22.1785
-22.0841
-21.9904
-21.8986
-21.8122
-21.7344
-21.6668
-21.6099
-21.564
-21.5293
-21.506
-21.4956
-21.5007
-21.5246
-21.5701
-21.639
-21.734
-21.8616
-22.031
-22.2579
-22.5683
-22.9941
-23.5635
-24.2867
-25.1486
-26.0911
-26.9946
-27.7338
-28.2597
-28.594
-28.7877
-28.8909
-28.9406
-28.9602
-28.864
-28.6907
-28.3772
-27.9689
-27.5259
-27.0973
-26.7029
-26.3536
-26.0519
-25.7831
-25.5276
-25.2692
-25.0054
-24.7374
-24.4669
-24.2081
-23.9752
-23.7704
-23.5945
-23.4462
-23.3156
-23.191
-23.0636
-22.9327
-22.8001
-22.6676
-22.5428
-22.432
-22.3327
-22.2384
-22.1432
-22.0466
-21.9493
-21.8521
-21.7596
-21.6767
-21.6042
-21.5424
-21.4917
-21.4514
-21.4214
-21.4031
-21.3994
-21.4143
-21.4508
-21.5094
-21.5917
-21.7044
-21.8562
-22.0629
-22.3569
-22.7796
-23.371
-24.1489
-25.1053
-26.1805
-27.2144
-28.0315
-28.5769
-28.8944
-29.0577
-29.1313
-29.1593
-29.1675
-29.1563
-28.9511
-28.5859
-28.1129
-27.6099
-27.1387
-26.7147
-26.3481
-26.0436
-25.7791
-25.5278
-25.2674
-24.9978
-24.7213
-24.4365
-24.1639
-23.924
-23.7161
-23.5413
-23.3998
-23.2781
-23.1609
-23.0358
-22.9045
-22.7699
-22.6323
-22.5034
-22.3932
-22.2969
-22.2053
-22.1098
-22.011
-21.9101
-21.8067
-21.7076
-21.6195
-21.5423
-21.4758
-21.4205
-21.3748
-21.3382
-21.3117
-21.2989
-21.3045
-21.3323
-21.3809
-21.4497
-21.5464
-21.6781
-21.8593
-22.1294
-22.5413
-23.1502
-23.982
-25.0408
-26.2742
-27.4673
-28.3696
-28.9252
-29.2121
-29.3338
-29.3703
-29.3724
-29.3675
-29.4729
-29.2291
-28.8049
-28.2562
-27.6845
-27.17
-26.7155
-26.3317
-26.0286
-25.7729
-25.5297
-25.2673
-24.9917
-24.7075
-24.4053
-24.1157
-23.8693
-23.6583
-23.4843
-23.3519
-23.2415
-23.1334
-23.0105
-22.8783
-22.7416
-22.5971
-22.4625
-22.3537
-22.2619
-22.1744
-22.0786
-21.9773
-21.873
-21.7626
-21.6559
-21.563
-21.4812
-21.4102
-21.3508
-21.3
-21.2568
-21.222
-21.1996
-21.1957
-21.2154
-21.2544
-21.3089
-21.3891
-21.4989
-21.6485
-21.8863
-22.2779
-22.8989
-23.7815
-24.9478
-26.3712
-27.7614
-28.7554
-29.3068
-29.5459
-29.6132
-29.6052
-29.5776
-29.5579
-29.8158
-29.5246
-29.0349
-28.397
-27.7465
-27.19
-26.7048
-26.3028
-26.0064
-25.7649
-25.5347
-25.2694
-24.9874
-24.6972
-24.3735
-24.0626
-23.8112
-23.5969
-23.4231
-23.3026
-23.2062
-23.1097
-22.9879
-22.8539
-22.7158
-22.5618
-22.4191
-22.3131
-22.2278
-22.1462
-22.0496
-21.9457
-21.8387
-21.7198
-21.6043
-21.5071
-21.4211
-21.3456
-21.2827
-21.2274
-21.1778
-21.1341
-21.1016
-21.0878
-21.1004
-21.1309
-21.1701
-21.2338
-21.3211
-21.4324
-21.6286
-21.9882
-22.6156
-23.5432
-24.8168
-26.4695
-28.108
-29.1972
-29.7234
-29.8937
-29.893
-29.8333
-29.7726
-29.737
-30.1876
-29.8373
-29.2772
-28.5336
-27.7917
-27.1984
-26.6819
-26.2592
-25.9769
-25.7555
-25.5448
-25.274
-24.9845
-24.6925
-24.3411
-24.0029
-23.7501
-23.5321
-23.3566
-23.2518
-23.1725
-23.0908
-22.9681
-22.8313
-22.6936
-22.5265
-22.3722
-22.2713
-22.1947
-22.1216
-22.0231
-21.916
-21.8078
-21.6785
-21.5523
-21.4521
-21.3622
-21.282
-21.2166
-21.1572
-21.1013
-21.0486
-21.0052
-20.9807
-20.9879
-21.0115
-21.0337
-21.0818
-21.1474
-21.213
-21.3575
-21.671
-22.2995
-23.2633
-24.6347
-26.5659
-28.522
-29.7045
-30.1755
-30.2522
-30.1696
-30.0517
-29.9554
-29.9029
-30.5915
-30.1654
-29.5341
-28.6641
-27.8145
-27.1959
-26.6471
-26.1983
-25.9403
-25.7452
-25.5627
-25.281
-24.9822
-24.6961
-24.3083
-23.9342
-23.6869
-23.4644
-23.2833
-23.1997
-23.1406
-23.0785
-22.9512
-22.81
-22.6765
-22.491
-22.3201
-22.228
-22.1627
-22.1017
-21.9991
-21.8878
-21.7811
-21.6387
-21.499
-21.3982
-21.3045
-21.2192
-21.1526
-21.0896
-21.028
-20.9656
-20.9105
-20.8741
-20.8782
-20.8977
-20.8998
-20.9342
-20.9814
-20.9923
-21.075
-21.3243
-21.951
-22.9395
-24.3839
-26.6549
-29.0244
-30.2877
-30.6625
-30.6172
-30.4391
-30.2578
-30.1242
-30.0546
-31.0314
-30.5051
-29.8099
-28.7865
-27.8074
-27.1847
-26.6012
-26.1162
-25.8973
-25.7337
-25.5922
-25.29
-24.9785
-24.7122
-24.2752
-23.8525
-23.6232
-23.3944
-23.201
-23.1469
-23.1105
-23.075
-22.9368
-22.7887
-22.6668
-22.4552
-22.2605
-22.1833
-22.1316
-22.0879
-21.9773
-21.8605
-21.7602
-21.6003
-21.4434
-21.3458
-21.2485
-21.157
-21.0911
-21.0249
-20.958
-20.8855
-20.8176
-20.7672
-20.7714
-20.7911
-20.7679
-20.7915
-20.8272
-20.7723
-20.7839
-20.9452
-21.5722
-22.5723
-24.0404
-26.7279
-29.6437
-30.9573
-31.1814
-30.9833
-30.6975
-30.449
-30.2775
-30.1909
-31.5126
-30.8498
-30.1113
-28.8984
-27.7598
-27.1692
-26.546
-26.0071
-25.8498
-25.7203
-25.6389
-25.2996
-24.9699
-24.7473
-24.242
-23.7524
-23.5623
-23.3234
-23.1064
-23.0944
-23.0818
-23.0834
-22.9243
-22.7654
-22.6677
-22.4192
-22.19
-22.1377
-22.101
-22.0824
-21.9573
-21.8325
-21.7472
-21.5634
-21.3835
-21.2958
-21.1943
-21.0946
-21.0325
-20.9633
-20.8918
-20.8084
-20.7269
-20.6588
-20.6676
-20.6941
-20.6365
-20.6537
-20.6903
-20.5544
-20.4882
-20.5293
-21.1668
-22.1671
-23.5722
-26.7718
-30.4199
-31.7234
-31.7267
-31.3438
-30.9404
-30.6233
-30.4144
-30.3114
-32.0427
-31.1877
-30.4493
-28.9977
-27.6568
-27.1578
-26.4842
-25.8627
-25.8014
-25.7025
-25.7106
-25.308
-24.9506
-24.8104
-24.2087
-23.6253
-23.5091
-23.2531
-22.9945
-23.0443
-23.0528
-23.1084
-22.9125
-22.7368
-22.6845
-22.3828
-22.1042
-22.0925
-22.07
-22.0885
-21.9383
-21.8018
-21.7451
-21.5278
-21.3167
-21.2494
-21.1424
-21.0312
-20.9772
-20.9047
-20.8298
-20.7347
-20.6389
-20.5473
-20.5666
-20.6103
-20.5031
-20.5201
-20.5774
-20.3388
-20.1941
-20.0689
-20.7409
-21.7367
-22.9362
-26.7671
-31.4084
-32.593
-32.2892
-31.6911
-31.1637
-30.7787
-30.5342
-30.4159
-32.6318
-31.5001
-30.8409
-29.082
-27.4777
-27.1633
-26.42
-25.6709
-25.7585
-25.6753
-25.8185
-25.3117
-24.9114
-24.9151
-24.1751
-23.459
-23.4716
-23.1862
-22.8579
-23.0003
-23.0208
-23.1564
-22.8993
-22.6978
-22.7245
-22.3458
-21.9967
-22.0503
-22.0366
-22.1105
-21.9188
-21.7649
-21.7586
-21.4933
-21.2391
-21.209
-21.0933
-20.9652
-20.9262
-20.8491
-20.7726
-20.6643
-20.5544
-20.43
-20.4678
-20.5448
-20.3638
-20.3885
-20.4979
-20.1236
-19.9108
-19.5521
-20.3022
-21.3048
-22.0756
-26.6852
-32.6854
-33.5685
-32.8559
-32.0166
-31.3636
-30.9139
-30.6366
-30.5045
-33.2947
-31.7579
-31.3119
-29.1491
-27.1933
-27.2059
-26.3591
-25.4141
-25.7324
-25.6296
-25.9786
-25.306
-24.8387
-25.0803
-24.1409
-23.2361
-23.4617
-23.126
-22.6861
-22.9688
-22.9802
-23.2368
-22.8819
-22.6407
-22.7984
-22.3079
-21.8586
-22.0158
-21.997
-22.1549
-21.8971
-21.7168
-21.7944
-21.4595
-21.1453
-21.1779
-21.0475
-20.8943
-20.8809
-20.796
-20.7208
-20.5973
-20.475
-20.3038
-20.37
-20.5047
-20.2128
-20.2555
-20.4644
-19.904
-19.6526
-18.9607
-19.8603
-20.9113
-20.9158
-26.4853
-34.3557
-34.6425
-33.4096
-32.3119
-31.537
-31.0281
-30.7218
-30.5776
-34.0521
-31.9177
-31.8998
-29.1967
-26.7635
-27.3153
-26.3086
-25.0673
-25.7408
-25.55
-26.2137
-25.2843
-24.7125
-25.333
-24.1055
-22.9325
-23.4972
-23.0768
-22.4639
-22.9604
-22.922
-23.3628
-22.8563
-22.5542
-22.921
-22.2684
-21.678
-21.997
-21.9452
-22.2309
-21.8702
-21.6503
-21.8617
-21.4255
-21.028
-21.1613
-21.0057
-20.8155
-20.8434
-20.7445
-20.6753
-20.5333
-20.403
-20.1642
-20.2711
-20.5008
-20.0416
-20.1152
-20.4941
-19.6694
-19.4407
-18.2674
-19.4254
-20.618
-19.3601
-26.1101
-36.5614
-35.793
-33.9288
-32.5685
-31.6815
-31.1211
-30.7902
-30.636
-34.9332
-31.9159
-32.6589
-29.2223
-26.1337
-27.5338
-26.2774
-24.5953
-25.812
-25.4114
-26.5553
-25.2373
-24.5046
-25.71
-24.0676
-22.5147
-23.6032
-23.0438
-22.1702
-22.9915
-22.8313
-23.5528
-22.8169
-22.4226
-23.113
-22.2262
-21.4387
-22.006
-21.8712
-22.3509
-21.8343
-21.5552
-21.9736
-21.3903
-20.877
-21.1666
-20.9684
-20.7242
-20.8169
-20.6933
-20.6372
-20.4713
-20.3423
-20.0054
-20.1677
-20.5475
-19.839
-19.9588
-20.6108
-19.4016
-19.307
-17.4336
-19.0068
-20.516
-17.2847
-25.4803
-39.494
-36.9754
-34.3887
-32.7792
-31.7957
-31.1931
-30.8426
-30.6805
-35.9784
-31.6627
-33.6649
-29.2233
-25.2304
-27.9205
-26.2761
-23.9496
-25.9882
-25.1757
-27.047
-25.1532
-24.176
-26.2616
-24.0255
-21.9382
-23.8148
-23.0334
-21.7757
-23.0868
-22.6858
-23.8322
-22.7565
-22.2242
-23.4024
-22.1793
-21.119
-22.0616
-21.7593
-22.5326
-21.7841
-21.4176
-22.1478
-21.3521
-20.6789
-21.2044
-20.9359
-20.6144
-20.8062
-20.6399
-20.6083
-20.4097
-20.2981
-19.8202
-20.0544
-20.6653
-19.5899
-19.7738
-20.8472
-19.0713
-19.2981
-16.4052
-18.6109
-20.7351
-14.5328
-24.4882
-43.4076
-38.113
-34.7632
-32.9387
-31.8793
-31.2449
-30.8801
-30.7122
-37.2428
-31.0339
-35.0219
-29.1967
-23.9567
-28.5558
-26.3167
-23.0644
-26.3309
-24.7863
-27.7481
-25.0167
-23.6742
-27.0541
-23.9762
-21.1438
-24.1801
-23.0527
-21.241
-23.2827
-22.4521
-24.2357
-22.6654
-21.9297
-23.8265
-22.1245
-20.6905
-22.191
-21.5867
-22.7997
-21.7128
-21.219
-22.4081
-21.3082
-20.416
-21.2894
-20.9082
-20.4781
-20.818
-20.5807
-20.591
-20.3456
-20.2785
-19.5994
-19.9232
-20.8814
-19.2745
-19.5426
-21.2482
-18.6332
-19.4805
-15.109
-18.2375
-21.454
-10.9091
-22.9901
-48.6362
-39.0842
-35.0279
-33.0442
-31.9332
-31.2779
-30.9039
-30.7322
-38.8005
-29.8615
-36.8699
-29.1384
-22.1866
-29.5465
-26.4124
-21.8523
-26.928
-24.1617
-28.7378
-24.8083
-22.9296
-28.1742
-23.9153
-20.0549
-24.7629
-23.1097
-20.5137
-23.6308
-22.0824
-24.8098
-22.5316
-21.5006
-24.4339
-22.0572
-20.1162
-22.4326
-21.3201
-23.1842
-21.6115
-20.9348
-22.7856
-21.2547
-20.0656
-21.441
-20.8845
-20.3047
-20.8616
-20.5104
-20.5889
-20.2745
-20.294
-19.3321
-19.7623
-21.232
-18.8679
-19.2411
-21.874
-18.0207
-19.9472
-13.4487
-17.8759
-22.9121
-6.17294
-20.7968
-55.6117
-39.7078
-35.1643
-33.0958
-31.9591
-31.2935
-30.9152
-30.7418
)
;

boundaryField
{
    left
    {
        type            calculated;
        value           nonuniform List<scalar> 
32
(
-26.5803
-26.6014
-26.6416
-26.6994
-26.7734
-26.8629
-26.9672
-27.0861
-27.2195
-27.3674
-27.5304
-27.7088
-27.9035
-28.1151
-28.3449
-28.5941
-28.864
-29.1563
-29.4729
-29.8158
-30.1876
-30.5915
-31.0314
-31.5126
-32.0427
-32.6318
-33.2947
-34.0521
-34.9332
-35.9784
-37.2428
-38.8005
)
;
    }
    right
    {
        type            calculated;
        value           nonuniform List<scalar> 
32
(
-26.6056
-26.6372
-26.6974
-26.7832
-26.8917
-27.0208
-27.1682
-27.3318
-27.5096
-27.6994
-27.899
-28.1061
-28.3183
-28.5331
-28.7479
-28.9602
-29.1675
-29.3675
-29.5579
-29.737
-29.9029
-30.0546
-30.1909
-30.3114
-30.4159
-30.5045
-30.5776
-30.636
-30.6805
-30.7122
-30.7322
-30.7418
)
;
    }
    interface
    {
        type            calculated;
        value           nonuniform List<scalar> 
64
(
-39.6633
-29.1153
-37.9366
-29.1007
-21.1598
-30.1459
-26.4758
-21.1521
-27.3029
-23.7786
-29.3161
-24.6834
-22.4868
-28.8284
-23.8813
-19.4261
-25.1177
-23.1486
-20.0943
-23.8505
-21.8565
-25.146
-22.4523
-21.2469
-24.7904
-22.0197
-19.7873
-22.587
-21.1584
-23.4103
-21.5521
-20.7678
-23.0079
-21.2249
-19.8654
-21.5363
-20.8736
-20.2072
-20.8928
-20.4717
-20.5921
-20.2365
-20.3121
-19.1853
-19.6727
-21.4461
-18.6382
-19.0693
-22.2518
-17.661
-20.265
-12.514
-17.6959
-23.86
-3.49369
-19.4997
-59.597
-39.9057
-35.1988
-33.1084
-31.9654
-31.2972
-30.9179
-30.7441
)
;
    }
    bottom
    {
        type            calculated;
        value           nonuniform List<scalar> 
64
(
-26.5749
-26.5489
-26.4979
-26.4231
-26.3266
-26.2111
-26.079
-25.9333
-25.7767
-25.6116
-25.4405
-25.2655
-25.0885
-24.9111
-24.7348
-24.561
-24.3906
-24.2246
-24.0637
-23.9084
-23.7592
-23.6164
-23.4802
-23.3508
-23.2283
-23.113
-23.005
-22.9044
-22.8117
-22.7271
-22.6509
-22.5837
-22.5259
-22.4781
-22.4411
-22.4156
-22.4025
-22.4026
-22.4169
-22.4465
-22.4923
-22.5555
-22.637
-22.7378
-22.8586
-23.0002
-23.1629
-23.3464
-23.5503
-23.7732
-24.013
-24.2669
-24.5309
-24.8005
-25.0701
-25.3338
-25.5858
-25.8199
-26.0307
-26.2135
-26.3641
-26.4797
-26.5579
-26.5974
)
;
    }
    defaultFaces
    {
        type            empty;
    }
}


// ************************************************************************* //
