/*--------------------------------*- C++ -*----------------------------------*\
| =========                 |                                                 |
| \\      /  F ield         | OpenFOAM: The Open Source CFD Toolbox           |
|  \\    /   O peration     | Version:  5.x                                   |
|   \\  /    A nd           | Web:      www.OpenFOAM.org                      |
|    \\/     M anipulation  |                                                 |
\*---------------------------------------------------------------------------*/
FoamFile
{
    version     2.0;
    format      ascii;
    class       volScalarField;
    location    "0.9";
    object      gradTx;
}
// * * * * * * * * * * * * * * * * * * * * * * * * * * * * * * * * * * * * * //

dimensions      [0 -1 0 1 0 0 0];

internalField   nonuniform List<scalar> 
2048
(
0.00596596
0.0177029
0.028937
0.0393686
0.0487384
0.0569228
0.0638498
0.0695127
0.0739616
0.0772802
0.0795691
0.0809335
0.0814765
0.0812962
0.080486
0.0791355
0.0773311
0.0751561
0.0726877
0.0699947
0.0671339
0.0641487
0.0610679
0.0579072
0.0546706
0.0513534
0.0479438
0.0444247
0.040774
0.0369652
0.0329675
0.0287466
0.0242656
0.0194869
0.014373
0.0088886
0.00300116
-0.00331783
-0.0100917
-0.0173371
-0.0250615
-0.0332594
-0.0419083
-0.0509621
-0.0603444
-0.0699402
-0.0795874
-0.0890698
-0.0981124
-0.106383
-0.113502
-0.119063
-0.122662
-0.12394
-0.122623
-0.118559
-0.111736
-0.102291
-0.0904818
-0.0766568
-0.0612107
-0.0445467
-0.0270482
-0.00906821
0.0177903
0.0527773
0.0862217
0.117241
0.145071
0.169325
0.189804
0.206504
0.219588
0.229316
0.235996
0.239945
0.241469
0.240859
0.23839
0.234326
0.228924
0.22243
0.215076
0.207068
0.198575
0.189726
0.180606
0.171258
0.161694
0.151897
0.141832
0.131447
0.120676
0.109442
0.0976517
0.0852037
0.0719878
0.0578912
0.0428023
0.0266155
0.00923382
-0.00942787
-0.02944
-0.0508538
-0.0736938
-0.0979484
-0.123555
-0.150385
-0.178217
-0.206719
-0.235419
-0.263679
-0.290687
-0.315452
-0.336835
-0.353607
-0.364544
-0.36855
-0.364784
-0.352775
-0.332495
-0.304357
-0.269158
-0.227961
-0.181965
-0.132385
-0.0803663
-0.026942
0.0295144
0.0875239
0.142873
0.194088
0.239906
0.27968
0.313113
0.340246
0.361393
0.377019
0.387659
0.393847
0.396091
0.394864
0.390609
0.383757
0.374727
0.363929
0.351749
0.338529
0.324554
0.310034
0.295105
0.279834
0.264231
0.248265
0.231874
0.214972
0.197453
0.179186
0.160022
0.139789
0.118305
0.0953816
0.0708331
0.0444842
0.0161745
-0.0142379
-0.046872
-0.081817
-0.119122
-0.158779
-0.200703
-0.244698
-0.290427
-0.337368
-0.384769
-0.431603
-0.476541
-0.517942
-0.553895
-0.582315
-0.601102
-0.608352
-0.602598
-0.583016
-0.549551
-0.502935
-0.444564
-0.376285
-0.300156
-0.218231
-0.132428
-0.0443926
0.0413662
0.122617
0.199961
0.271276
0.334789
0.38961
0.435395
0.472291
0.500827
0.521728
0.535785
0.543765
0.546372
0.544247
0.53799
0.528181
0.515401
0.500221
0.483188
0.46479
0.445427
0.42539
0.404861
0.383918
0.362563
0.34074
0.318359
0.2953
0.271415
0.246528
0.220429
0.192878
0.163617
0.13238
0.0989051
0.0629483
0.0242849
-0.0172838
-0.0619279
-0.109781
-0.160925
-0.215374
-0.273036
-0.333682
-0.396889
-0.461986
-0.527982
-0.593501
-0.656721
-0.715355
-0.766686
-0.807699
-0.835308
-0.846677
-0.839594
-0.812804
-0.766225
-0.700972
-0.619162
-0.523564
-0.417204
-0.303028
-0.183765
-0.0615941
0.0535589
0.158667
0.258432
0.349989
0.431037
0.500467
0.55796
0.603864
0.63901
0.664457
0.681298
0.690547
0.693098
0.689738
0.681199
0.668198
0.65147
0.631756
0.609775
0.586173
0.561473
0.536048
0.510113
0.483746
0.456925
0.42956
0.401527
0.372671
0.342812
0.311726
0.279145
0.244759
0.208228
0.169204
0.127348
0.0823428
0.0339024
-0.0182295
-0.0742764
-0.134422
-0.198797
-0.267449
-0.340312
-0.41715
-0.497499
-0.580586
-0.665239
-0.74978
-0.831933
-0.908766
-0.976713
-1.03172
-1.06956
-1.08627
-1.07871
-1.04508
-0.985253
-0.900837
-0.794857
-0.671223
-0.534099
-0.387404
-0.23471
-0.0786468
0.0662956
0.196256
0.319164
0.431306
0.529811
0.613402
0.681882
0.735921
0.77678
0.805945
0.824864
0.834813
0.836855
0.831894
0.820758
0.804282
0.78335
0.758885
0.731801
0.702921
0.672903
0.642201
0.611052
0.579513
0.547516
0.514924
0.481573
0.447281
0.411836
0.374977
0.336377
0.29565
0.252367
0.206091
0.1564
0.102907
0.0452626
-0.0168441
-0.0836914
-0.155521
-0.232521
-0.314799
-0.402336
-0.494931
-0.592122
-0.693096
-0.796563
-0.900614
-1.00257
-1.09887
-1.18506
-1.2559
-1.30582
-1.32945
-1.32247
-1.28237
-1.20895
-1.10445
-0.973097
-0.82024
-0.651428
-0.471674
-0.285404
-0.0955858
0.0797778
0.235953
0.383013
0.516244
0.632174
0.729415
0.808034
0.869193
0.914734
0.946689
0.966924
0.976981
0.97806
0.971132
0.957074
0.936809
0.911369
0.881881
0.849483
0.815206
0.779866
0.743993
0.707828
0.671379
0.634505
0.597003
0.558663
0.519283
0.478634
0.436426
0.392275
0.345707
0.296198
0.243209
0.186229
0.124801
0.0585172
-0.0129837
-0.0900347
-0.17294
-0.26196
-0.357282
-0.458963
-0.566873
-0.680604
-0.799368
-0.921841
-1.04597
-1.16875
-1.28604
-1.39242
-1.48137
-1.54566
-1.57821
-1.57313
-1.52692
-1.43931
-1.31339
-1.15494
-0.97119
-0.769414
-0.555856
-0.335796
-0.112383
0.0942137
0.278346
0.45084
0.6058
0.739117
0.849388
0.937129
1.00421
1.05325
1.08697
1.10773
1.1173
1.117
1.10776
1.09047
1.06608
1.03579
1.00095
0.962971
0.923141
0.882455
0.841521
0.800557
0.759482
0.718042
0.675945
0.632934
0.588797
0.543314
0.496176
0.446941
0.395043
0.339839
0.280674
0.216944
0.148121
0.0737487
-0.0065779
-0.0932427
-0.186616
-0.287046
-0.394815
-0.51009
-0.632846
-0.762781
-0.899201
-1.04085
-1.18563
-1.33034
-1.47031
-1.59918
-1.70893
-1.79041
-1.83431
-1.83274
-1.78084
-1.67817
-1.52894
-1.34108
-1.12427
-0.887921
-0.639686
-0.385658
-0.12895
0.109825
0.324055
0.52354
0.700978
0.851593
0.974106
1.06973
1.14132
1.19251
1.22689
1.24734
1.2559
1.25384
1.24203
1.2212
1.19236
1.15682
1.11624
1.07236
1.02678
0.980714
0.934845
0.88933
0.843942
0.798267
0.751889
0.704504
0.655917
0.605945
0.554287
0.500443
0.44373
0.383366
0.318562
0.248609
0.172912
0.090982
0.00238195
-0.0933155
-0.19655
-0.307767
-0.427372
-0.555661
-0.692751
-0.838493
-0.992361
-1.15326
-1.31923
-1.48698
-1.65146
-1.80536
-1.93907
-2.04109
-2.09936
-2.10328
-2.04614
-1.92719
-1.75218
-1.53191
-1.27932
-1.00647
-0.722625
-0.434587
-0.145138
0.126854
0.373749
0.602061
0.802809
0.970534
1.10427
1.20627
1.28069
1.33251
1.36635
1.38569
1.39275
1.38869
1.37409
1.34951
1.31586
1.27465
1.22787
1.1777
1.12613
1.07465
1.02399
0.97422
0.924875
0.875318
0.824972
0.773482
0.720712
0.66657
0.610791
0.552812
0.491812
0.426831
0.356919
0.281251
0.199178
0.110194
0.0138517
-0.0903087
-0.202797
-0.324171
-0.454976
-0.595668
-0.74653
-0.907604
-1.0786
-1.25872
-1.44627
-1.63811
-1.82897
-2.01073
-2.17199
-2.29854
-2.37484
-2.38671
-2.32486
-2.18801
-1.98399
-1.72751
-1.4358
-1.12424
-0.803869
-0.482015
-0.160744
0.145567
0.428162
0.687425
0.91237
1.09686
1.24052
1.34705
1.42236
1.47307
1.50509
1.52256
1.52778
1.52157
1.50412
1.47559
1.43679
1.38942
1.33592
1.279
1.22116
1.16421
1.10897
1.05529
1.0024
0.949341
0.895331
0.839967
0.78323
0.725199
0.665686
0.604057
0.539308
0.470262
0.395769
0.314875
0.22689
0.131322
0.0277423
-0.0843255
-0.205461
-0.336348
-0.477701
-0.630153
-0.794174
-0.97002
-1.15771
-1.35683
-1.56618
-1.78301
-2.00212
-2.21471
-2.40759
-2.56335
-2.66212
-2.68505
-2.61916
-2.4623
-2.22508
-1.92762
-1.59279
-1.24007
-0.88236
-0.527229
-0.175518
0.166263
0.488105
0.780741
1.03079
1.23147
1.3834
1.49224
1.56615
1.61384
1.64272
1.65763
1.66078
1.65248
1.63224
1.59968
1.55538
1.50129
1.44044
1.37622
1.31177
1.24932
1.18975
1.13259
1.07663
1.0205
0.963121
0.904058
0.843501
0.781814
0.718943
0.654163
0.586226
0.51368
0.435127
0.349465
0.25599
0.154268
0.0439265
-0.0755099
-0.204687
-0.344435
-0.495662
-0.659207
-0.835727
-1.0257
-1.22948
-1.4472
-1.67833
-1.92082
-2.16991
-2.41647
-2.64547
-2.83588
-2.96253
-3.00041
-2.93138
-2.75178
-2.47604
-2.13166
-1.74899
-1.35245
-0.956812
-0.569388
-0.189168
0.189275
0.554476
0.883223
1.15929
1.37529
1.53339
1.6419
1.71179
1.75429
1.77866
1.79046
1.79155
1.78139
1.7586
1.72201
1.67184
1.6104
1.54147
1.4693
1.39784
1.32988
1.26629
1.20619
1.14773
1.08898
1.02852
0.965856
0.901533
0.836365
0.770508
0.703098
0.632562
0.557098
0.475002
0.384997
0.286403
0.178911
0.0622445
-0.0640409
-0.200655
-0.348599
-0.509014
-0.682966
-0.871297
-1.07467
-1.29381
-1.52949
-1.78207
-2.05057
-2.33118
-2.61485
-2.88491
-3.11625
-3.27728
-3.33507
-3.26416
-3.05837
-2.73726
-2.33865
-1.90267
-1.45956
-1.02574
-0.607558
-0.201378
0.214978
0.628271
0.996192
1.29913
1.52919
1.69087
1.79596
1.85882
1.89375
1.91225
1.92053
1.9198
1.90827
1.88337
1.84286
1.78644
1.7169
1.63904
1.55814
1.47921
1.40571
1.33854
1.27616
1.21583
1.15499
1.09172
1.02547
0.957311
0.88877
0.8203
0.75082
0.678306
0.600531
0.515409
0.42144
0.318035
0.205101
0.0825091
-0.050127
-0.193574
-0.349035
-0.517938
-0.70161
-0.90105
-1.11705
-1.35065
-1.6034
-1.87678
-2.17124
-2.48454
-2.80843
-3.12485
-3.40426
-3.60749
-3.69152
-3.62056
-3.38417
-3.00901
-2.54721
-2.05167
-1.55927
-1.08752
-0.640747
-0.211819
0.243794
0.710587
1.12109
1.45167
1.69406
1.85612
1.95421
2.00664
2.0314
2.04265
2.04727
2.04527
2.03309
2.00674
1.96257
1.89945
1.82093
1.73317
1.64264
1.55564
1.47663
1.40644
1.34257
1.28114
1.21879
1.15297
1.083
1.01079
0.938907
0.868216
0.797281
0.723449
0.644003
0.556372
0.458764
0.35078
0.232673
0.104511
-0.0340019
-0.183676
-0.34596
-0.52264
-0.71535
-0.925215
-1.15301
-1.40005
-1.66875
-1.9619
-2.28177
-2.62849
-2.99549
-3.36389
-3.69941
-3.95412
-4.07249
-4.00418
-3.73164
-3.29129
-2.75541
-2.19336
-1.6492
-1.1404
-0.667955
-0.220164
0.276197
0.802631
1.25949
1.61839
1.87072
2.0293
2.11636
2.15456
2.16625
2.16893
2.17006
2.16769
2.15583
2.12897
2.08155
2.0112
1.92263
1.82386
1.72264
1.62689
1.5424
1.46992
1.40553
1.34385
1.28065
1.21256
1.13859
1.0619
0.986608
0.914131
0.842431
0.767982
0.687543
0.597936
0.49694
0.384515
0.261445
0.128021
-0.0159203
-0.171209
-0.3396
-0.523333
-0.724424
-0.944076
-1.18285
-1.44217
-1.72546
-2.037
-2.38114
-2.76136
-3.17406
-3.60028
-4.00078
-4.31786
-4.48098
-4.41935
-4.1036
-3.58383
-2.96075
-2.32465
-1.72674
-1.18265
-0.688223
-0.226115
0.312732
0.90571
1.41307
1.80086
2.05994
2.21039
2.282
2.30174
2.29717
2.29005
2.28825
2.28682
2.27648
2.25032
2.20033
2.12202
2.02212
1.91116
1.79798
1.69262
1.60272
1.5289
1.4652
1.40418
1.3409
1.27084
1.19238
1.1105
1.03165
0.957904
0.886237
0.811895
0.731193
0.640175
0.535946
0.419102
0.291223
0.152798
0.0038451
-0.156438
-0.330186
-0.520231
-0.729079
-0.957973
-1.20695
-1.47727
-1.77359
-2.10177
-2.46837
-2.88141
-3.34191
-3.83192
-4.30703
-4.69901
-4.92022
-4.87133
-4.50343
-3.88592
-3.15998
-2.44196
-1.78915
-1.21257
-0.700698
-0.229414
0.35403
1.02123
1.58363
2.00078
2.26236
2.39918
2.45066
2.44731
2.42288
2.40484
2.40123
2.40253
2.39499
2.37111
2.31953
2.23229
2.11948
1.9951
1.86852
1.75244
1.65726
1.58333
1.52175
1.46235
1.39988
1.32828
1.24453
1.1564
1.07375
0.999381
0.928686
0.855175
0.775002
0.683208
0.575767
0.454381
0.321809
0.178592
0.025005
-0.139633
-0.317949
-0.513535
-0.72956
-0.967286
-1.22577
-1.50569
-1.81332
-2.15613
-2.54261
-2.98684
-3.49661
-4.0564
-4.61635
-5.09729
-5.39369
-5.36665
-4.93513
-4.19626
-3.34897
-2.54126
-1.83368
-1.22863
-0.704678
-0.229866
0.400848
1.15066
1.77303
2.22008
2.4785
2.59515
2.62189
2.59031
2.54197
2.51201
2.5084
2.5148
2.5113
2.49164
2.43998
2.34239
2.21469
2.0758
1.93409
1.8059
1.70561
1.63317
1.57547
1.51857
1.45797
1.38543
1.29521
1.19934
1.11254
1.03841
0.969816
0.897794
0.81902
0.727213
0.616391
0.490161
0.353003
0.20515
0.0472543
-0.121076
-0.303113
-0.503428
-0.726088
-0.972436
-1.23988
-1.52787
-1.84495
-2.20022
-2.60317
-3.07582
-3.63551
-4.27104
-4.92645
-5.51154
-5.90495
-5.91347
-5.40354
-4.51264
-3.52259
-2.61812
-1.85763
-1.22953
-0.699674
-0.227354
0.454139
1.29552
1.98318
2.46098
2.70864
2.79743
2.79528
2.72984
2.65284
2.61014
2.60924
2.62381
2.62521
2.61221
2.56279
2.45267
2.30761
2.15346
1.99459
1.85243
1.74725
1.67842
1.62672
1.57296
1.51551
1.44304
1.34463
1.23893
1.14756
1.07483
1.00974
0.93969
0.86329
0.772459
0.657808
0.526199
0.384622
0.232221
0.0702703
-0.101052
-0.285894
-0.490059
-0.718844
-0.97387
-1.24998
-1.54427
-1.86889
-2.2345
-2.64957
-3.14652
-3.75581
-4.47302
-5.23463
-5.93939
-6.45752
-6.52212
-5.91446
-4.83159
-3.67451
-2.66783
-1.85857
-1.21436
-0.685443
-0.221848
0.515154
1.45731
2.2159
2.72613
2.95274
3.00461
2.97068
2.865
2.75369
2.69768
2.70334
2.73006
2.73634
2.73303
2.68942
2.56343
2.39785
2.22846
2.04993
1.89136
1.78161
1.71911
1.67607
1.62556
1.57282
1.50207
1.39301
1.27463
1.17825
1.10853
1.04869
0.980735
0.907823
0.819347
0.699997
0.562182
0.416513
0.259564
0.0937089
-0.0798465
-0.266499
-0.473545
-0.707945
-0.972051
-1.25688
-1.55537
-1.88559
-2.2598
-2.68157
-3.19716
-3.85454
-4.65947
-5.53795
-6.37677
-7.05451
-7.20582
-6.47488
-5.14782
-3.79709
-2.68552
-1.83445
-1.18258
-0.662018
-0.213411
0.585632
1.63742
2.47282
3.01889
3.21033
3.21461
3.14835
2.99504
2.84249
2.77287
2.79043
2.83449
2.84395
2.85415
2.82192
2.67484
2.48469
2.30146
2.10011
1.92185
1.80794
1.75536
1.72432
1.67619
1.63014
1.56384
1.44059
1.30575
1.20394
1.13941
1.08707
1.02069
0.952577
0.86847
0.74291
0.597689
0.448584
0.286953
0.117197
-0.0577476
-0.245125
-0.453966
-0.693408
-0.967444
-1.2616
-1.56159
-1.89548
-2.27743
-2.6992
-3.22599
-3.92856
-4.82761
-5.83349
-6.81731
-7.69819
-7.98163
-7.09322
-5.45351
-3.88129
-2.66642
-1.78378
-1.13419
-0.629719
-0.202199
0.66808
1.83703
2.7551
3.34368
3.48034
3.42433
3.32927
3.11928
2.91694
2.83376
2.87038
2.93875
2.94677
2.97534
2.96316
2.78684
2.56686
2.37357
2.14519
1.94288
1.82539
1.78731
1.77262
1.72436
1.68752
1.63012
1.48757
1.33135
1.22381
1.16741
1.12556
1.05914
0.997408
0.920699
0.786448
0.632143
0.480849
0.314182
0.140322
-0.0350341
-0.221966
-0.431369
-0.675129
-0.960494
-1.26537
-1.56326
-1.89886
-2.28927
-2.70279
-3.23134
-3.97451
-4.9749
-6.11891
-7.25162
-8.38928
-8.87169
-7.77949
-5.73729
-3.91667
-2.60613
-1.70582
-1.0697
-0.589144
-0.18845
0.766201
2.05693
3.06315
3.70652
3.76082
3.6294
3.51559
3.23721
2.97436
2.87813
2.94316
3.04542
3.04274
3.09596
3.11721
2.89901
2.64236
2.44661
2.18529
1.9532
1.83291
1.81517
1.82271
1.76912
1.74479
1.70337
1.53408
1.35022
1.23691
1.19252
1.16523
1.09537
1.04202
0.977307
0.830414
0.664749
0.513491
0.34106
0.162615
-0.0119678
-0.197217
-0.405784
-0.652835
-0.951591
-1.26979
-1.56049
-1.89575
-2.29791
-2.69293
-3.21165
-3.98871
-5.09915
-6.39316
-7.66636
-9.12592
-9.90491
-8.54558
-5.98305
-3.89157
-2.50104
-1.6007
-0.990142
-0.541139
-0.172474
0.885534
2.2973
3.39612
4.11577
4.04868
3.82364
3.71117
3.34833
3.01167
2.90352
3.00884
3.15854
3.1286
3.21469
3.28985
3.01034
2.70813
2.52339
2.22056
1.95126
1.82927
1.83916
1.87708
1.80883
1.80136
1.78694
1.58012
1.3608
1.24216
1.21473
1.20766
1.12828
1.0859
1.04014
0.874453
0.694413
0.546954
0.367405
0.18353
0.0112238
-0.17108
-0.377246
-0.626046
-0.941021
-1.27691
-1.55314
-1.88572
-2.30693
-2.67043
-3.16551
-3.96705
-5.19857
-6.65762
-8.04328
-9.9023
-11.119
-9.40536
-6.16827
-3.79352
-2.34868
-1.46951
-0.897076
-0.486758
-0.154632
1.03434
2.55744
3.75119
4.58318
4.33923
3.9985
3.92241
3.45207
3.02526
2.90717
3.06736
3.28408
3.19949
3.3293
3.48923
3.11901
2.75968
2.60824
2.25106
1.93516
1.81305
1.85939
1.93934
1.84095
1.85614
1.88547
1.62536
1.3612
1.23837
1.23402
1.25525
1.15619
1.12819
1.11182
0.917965
0.719634
0.582063
0.393023
0.202417
0.034373
-0.143775
-0.345832
-0.594026
-0.92889
-1.2895
-1.54065
-1.86755
-2.32114
-2.63619
-3.09176
-3.90478
-5.27164
-6.91761
-8.35796
-10.7068
-12.5634
-10.3748
-6.26201
-3.6099
-2.14826
-1.31438
-0.792488
-0.427203
-0.13532
1.22484
2.83532
4.12274
5.12527
4.62564
4.1423
4.15928
3.54741
3.01097
2.88605
3.11833
3.43078
3.24834
3.43624
3.72677
3.22198
2.79059
2.70757
2.27658
1.90264
1.78265
1.87578
2.01466
1.86163
1.90728
2.00529
1.669
1.34909
1.22429
1.2502
1.31139
1.17661
1.1676
1.19607
0.959977
0.738384
0.620193
0.417665
0.218485
0.0574072
-0.115548
-0.311711
-0.555742
-0.915013
-1.31121
-1.52202
-1.83898
-2.34698
-2.59103
-2.98964
-3.79626
-5.31685
-7.18442
-8.57855
-11.5197
-14.3023
-11.472
-6.2225
-3.32913
-1.90107
-1.13843
-0.678702
-0.363765
-0.114941
1.47482
3.12718
4.50108
5.76509
4.89821
4.23937
4.43664
3.63248
2.96403
2.83699
3.16059
3.61107
3.26511
3.5302
4.01822
3.31451
2.792
2.8307
2.29638
1.85102
1.73635
1.88776
2.11028
1.86536
1.95196
2.15498
1.70941
1.32174
1.19864
1.26284
1.38092
1.18597
1.20227
1.29802
0.998986
0.747958
0.663478
0.440962
0.230772
0.0803975
-0.0866755
-0.275211
-0.509812
-0.898757
-1.34696
-1.49562
-1.79622
-2.39303
-2.53535
-2.859
-3.63476
-5.33204
-7.47783
-8.66442
-12.3099
-16.419
-12.7167
-5.99422
-2.94222
-1.61086
-0.945662
-0.558253
-0.297753
-0.0938943
1.80975
3.42686
4.871
6.53448
5.14349
4.26889
4.77592
3.70381
2.87913
2.75675
3.19163
3.84236
3.23598
3.60358
4.38504
3.38961
2.75185
2.99082
2.30874
1.77721
1.67241
1.89396
2.23629
1.84441
1.98609
2.34608
1.74377
1.27603
1.16026
1.27094
1.47055
1.17931
1.22956
1.42471
1.03274
0.744803
0.715078
0.462332
0.238102
0.103619
-0.0574771
-0.2369
-0.454479
-0.878831
-1.40329
-1.45914
-1.73343
-2.47067
-2.4687
-2.70065
-3.4122
-5.3134
-7.82934
-8.56476
-13.0312
-19.0206
-14.1303
-5.50455
-2.44509
-1.28405
-0.740759
-0.433749
-0.230439
-0.0725556
2.26538
3.72513
5.20993
7.47671
5.34313
4.20371
5.20712
3.75528
2.75046
2.64234
3.20672
4.14853
3.14228
3.64578
4.85595
3.43724
2.65419
3.2062
2.31038
1.67778
1.5892
1.89173
2.40642
1.78831
2.00396
2.59389
1.76754
1.20853
1.10826
1.27268
1.58946
1.14986
1.24586
1.58555
1.058
0.724331
0.779502
0.480843
0.239046
0.127626
-0.0283149
-0.197685
-0.387586
-0.853007
-1.48884
-1.40949
-1.64209
-2.59489
-2.38915
-2.5168
-3.11894
-5.25403
-8.28584
-8.21721
-13.618
-22.244
-15.7345
-4.65996
-1.84142
-0.92976
-0.528807
-0.307728
-0.163002
-0.0512658
2.89093
4.00881
5.48569
8.64978
5.47259
4.0089
5.77126
3.77686
2.57198
2.49137
3.19782
4.56175
2.95933
3.64244
5.46879
3.4435
2.47826
3.50167
2.29568
1.54906
1.48546
1.87648
2.63915
1.68312
1.99792
2.91842
1.77375
1.11562
1.04218
1.26493
1.74993
1.08858
1.24638
1.79297
1.07016
0.680716
0.862984
0.49503
0.231889
0.153336
0.000403331
-0.158916
-0.306583
-0.817778
-1.61486
-1.34273
-1.51021
-2.7853
-2.29247
-2.31167
-2.74373
-5.14181
-8.91407
-7.54672
-13.9798
-26.2621
-17.5509
-3.34188
-1.1463
-0.55938
-0.314962
-0.182532
-0.0964895
-0.0303245
3.75279
4.25979
5.654
10.13
5.49951
3.64023
6.52312
3.75287
2.33775
2.3025
3.15214
5.12459
2.65518
3.57462
6.27257
3.38955
2.1976
3.91026
2.25566
1.38737
1.36055
1.84089
2.95886
1.51069
1.9579
3.34551
1.75218
0.993717
0.962237
1.24269
1.96818
0.983677
1.22491
2.06308
1.06295
0.606689
0.973922
0.502672
0.21461
0.182127
0.0282274
-0.122501
-0.208571
-0.767927
-1.79582
-1.25403
-1.32149
-3.06733
-2.17108
-2.09216
-2.27379
-4.95682
-9.80537
-6.46458
-13.9951
-31.2914
-19.5986
-1.40226
-0.390674
-0.185841
-0.104095
-0.0602046
-0.0317885
-0.00998638
)
;

boundaryField
{
    left
    {
        type            calculated;
        value           uniform 0;
    }
    right
    {
        type            calculated;
        value           uniform 0;
    }
    interface
    {
        type            calculated;
        value           nonuniform List<scalar> 
64
(
3.75279
4.25979
5.654
10.13
5.49951
3.64023
6.52312
3.75287
2.33775
2.3025
3.15214
5.12459
2.65518
3.57462
6.27257
3.38955
2.1976
3.91026
2.25566
1.38737
1.36055
1.84089
2.95886
1.51069
1.9579
3.34551
1.75218
0.993717
0.962237
1.24269
1.96818
0.983677
1.22491
2.06308
1.06295
0.606689
0.973922
0.502672
0.21461
0.182127
0.0282274
-0.122501
-0.208571
-0.767927
-1.79582
-1.25403
-1.32149
-3.06733
-2.17108
-2.09216
-2.27379
-4.95682
-9.80537
-6.46458
-13.9951
-31.2914
-19.5986
-1.40226
-0.390674
-0.185841
-0.104095
-0.0602046
-0.0317885
-0.00998638
)
;
    }
    bottom
    {
        type            calculated;
        value           nonuniform List<scalar> 
64
(
0.00596596
0.0177029
0.028937
0.0393686
0.0487384
0.0569228
0.0638498
0.0695127
0.0739616
0.0772802
0.0795691
0.0809335
0.0814765
0.0812962
0.080486
0.0791355
0.0773311
0.0751561
0.0726877
0.0699947
0.0671339
0.0641487
0.0610679
0.0579072
0.0546706
0.0513534
0.0479438
0.0444247
0.040774
0.0369652
0.0329675
0.0287466
0.0242656
0.0194869
0.014373
0.0088886
0.00300116
-0.00331783
-0.0100917
-0.0173371
-0.0250615
-0.0332594
-0.0419083
-0.0509621
-0.0603444
-0.0699402
-0.0795874
-0.0890698
-0.0981124
-0.106383
-0.113502
-0.119063
-0.122662
-0.12394
-0.122623
-0.118559
-0.111736
-0.102291
-0.0904818
-0.0766568
-0.0612107
-0.0445467
-0.0270482
-0.00906821
)
;
    }
    defaultFaces
    {
        type            empty;
    }
}


// ************************************************************************* //
