/*--------------------------------*- C++ -*----------------------------------*\
| =========                 |                                                 |
| \\      /  F ield         | OpenFOAM: The Open Source CFD Toolbox           |
|  \\    /   O peration     | Version:  5.x                                   |
|   \\  /    A nd           | Web:      www.OpenFOAM.org                      |
|    \\/     M anipulation  |                                                 |
\*---------------------------------------------------------------------------*/
FoamFile
{
    version     2.0;
    format      ascii;
    class       volScalarField;
    location    "0.9";
    object      T;
}
// * * * * * * * * * * * * * * * * * * * * * * * * * * * * * * * * * * * * * //

dimensions      [0 0 0 1 0 0 0];

internalField   nonuniform List<scalar> 
2048
(
9.80908
9.80927
9.80963
9.81017
9.81086
9.81169
9.81264
9.81369
9.81481
9.816
9.81723
9.81849
9.81976
9.82103
9.8223
9.82355
9.82477
9.82596
9.82712
9.82824
9.82931
9.83033
9.83131
9.83224
9.83312
9.83395
9.83473
9.83545
9.83611
9.83672
9.83727
9.83775
9.83817
9.83851
9.83878
9.83896
9.83905
9.83905
9.83895
9.83874
9.83841
9.83796
9.83737
9.83665
9.83578
9.83476
9.83359
9.83227
9.83081
9.82921
9.82748
9.82566
9.82376
9.82183
9.81989
9.81799
9.81618
9.8145
9.81299
9.81168
9.81059
9.80976
9.8092
9.80892
9.43543
9.43599
9.43708
9.43868
9.44075
9.44322
9.44604
9.44915
9.45249
9.45601
9.45966
9.46339
9.46716
9.47093
9.47468
9.47838
9.482
9.48553
9.48896
9.49226
9.49543
9.49846
9.50136
9.50411
9.50671
9.50916
9.51145
9.51359
9.51556
9.51736
9.51898
9.52041
9.52164
9.52266
9.52345
9.524
9.52429
9.52429
9.52399
9.52337
9.5224
9.52107
9.51934
9.5172
9.51464
9.51164
9.50818
9.50428
9.49994
9.49519
9.49008
9.48467
9.47903
9.47328
9.46752
9.46188
9.45649
9.45149
9.44698
9.44308
9.43986
9.43739
9.43572
9.43488
9.07771
9.07863
9.08044
9.0831
9.08651
9.09059
9.09525
9.10038
9.10588
9.11167
9.11766
9.12379
9.12997
9.13616
9.14231
9.14837
9.1543
9.16008
9.16568
9.17107
9.17626
9.18122
9.18594
9.19044
9.19469
9.19869
9.20245
9.20594
9.20917
9.21211
9.21476
9.21711
9.21913
9.22081
9.22211
9.22302
9.2235
9.22353
9.22306
9.22206
9.2205
9.21834
9.21554
9.21207
9.20789
9.20299
9.19735
9.19097
9.18386
9.17608
9.16768
9.15877
9.14948
9.13998
9.13047
9.12115
9.11225
9.10398
9.09653
9.09009
9.08477
9.08071
9.07795
9.07657
8.735
8.73629
8.73883
8.74254
8.74731
8.753
8.75948
8.76661
8.77424
8.78226
8.79054
8.799
8.80754
8.81607
8.82454
8.83289
8.84105
8.84899
8.85668
8.86409
8.87121
8.87801
8.8845
8.89066
8.8965
8.90199
8.90715
8.91194
8.91637
8.92042
8.92408
8.92731
8.9301
8.93243
8.93424
8.93552
8.93621
8.93628
8.93567
8.93434
8.93224
8.92931
8.92551
8.92078
8.91508
8.90838
8.90064
8.89188
8.8821
8.87135
8.85974
8.84739
8.8345
8.82129
8.80804
8.79505
8.78264
8.77111
8.76074
8.75176
8.74438
8.73872
8.73491
8.73298
8.40646
8.40813
8.41142
8.41621
8.42235
8.42968
8.43799
8.44711
8.45686
8.46708
8.47763
8.48837
8.49921
8.51003
8.52076
8.53132
8.54164
8.55168
8.56139
8.57073
8.5797
8.58828
8.59645
8.60422
8.61157
8.6185
8.625
8.63105
8.63664
8.64176
8.64638
8.65048
8.65403
8.65699
8.65932
8.66097
8.66189
8.66203
8.66132
8.65971
8.65712
8.6535
8.64876
8.64286
8.63573
8.62731
8.61759
8.60653
8.59415
8.58053
8.56576
8.55001
8.53351
8.51658
8.49957
8.48287
8.46691
8.45208
8.43876
8.42724
8.41778
8.41055
8.40568
8.40322
8.09132
8.0934
8.09746
8.10337
8.11094
8.11993
8.13011
8.14124
8.1531
8.16551
8.17829
8.19129
8.20438
8.21744
8.23037
8.24309
8.25551
8.26757
8.27922
8.29044
8.30119
8.31146
8.32126
8.33056
8.33937
8.34767
8.35546
8.36272
8.36944
8.37559
8.38115
8.3861
8.39039
8.39399
8.39683
8.39887
8.40005
8.40029
8.39952
8.39767
8.39466
8.39041
8.38483
8.37783
8.36936
8.35933
8.3477
8.33444
8.31956
8.30311
8.28522
8.26607
8.24597
8.22527
8.20442
8.18394
8.16435
8.14616
8.12984
8.11575
8.1042
8.09539
8.08946
8.08648
7.78888
7.79138
7.79626
7.80335
7.81239
7.8231
7.83518
7.84835
7.86235
7.87694
7.89193
7.90715
7.92246
7.93772
7.95281
7.96763
7.98208
7.99611
8.00964
8.02265
8.03512
8.04703
8.05837
8.06914
8.07935
8.08897
8.09801
8.10643
8.11423
8.12139
8.12787
8.13365
8.13867
8.1429
8.14627
8.14872
8.15017
8.15055
8.14977
8.14774
8.14436
8.13955
8.1332
8.12521
8.11549
8.10394
8.0905
8.07513
8.05782
8.03861
8.01763
7.9951
7.97134
7.94679
7.92202
7.89763
7.8743
7.85266
7.83326
7.81656
7.80291
7.79252
7.78554
7.78203
7.49847
7.50141
7.50717
7.5155
7.5261
7.5386
7.55264
7.56789
7.58403
7.6008
7.61799
7.63542
7.65291
7.67032
7.68753
7.7044
7.72084
7.73677
7.75212
7.76686
7.78097
7.79444
7.80727
7.81946
7.831
7.84189
7.85212
7.86167
7.87052
7.87865
7.88603
7.89262
7.89837
7.90324
7.90715
7.91002
7.91177
7.91232
7.91157
7.90941
7.90574
7.90044
7.8934
7.8845
7.87362
7.86066
7.84552
7.82814
7.80847
7.78656
7.76252
7.73659
7.70912
7.68064
7.6518
7.62336
7.59615
7.57092
7.54837
7.52901
7.51323
7.50127
7.49324
7.48921
7.21946
7.22289
7.22959
7.23925
7.25149
7.26587
7.28194
7.2993
7.3176
7.33656
7.35594
7.37554
7.39519
7.41472
7.434
7.45289
7.47126
7.48904
7.50615
7.52255
7.53823
7.5532
7.56745
7.58099
7.59382
7.60593
7.61732
7.62795
7.63781
7.64689
7.65513
7.66252
7.669
7.6745
7.67896
7.68227
7.68436
7.68512
7.68443
7.6822
7.67829
7.67258
7.66494
7.65522
7.64329
7.62902
7.61228
7.59298
7.57105
7.54651
7.51944
7.49009
7.45885
7.42631
7.39324
7.36058
7.3293
7.30035
7.27454
7.25248
7.23457
7.22103
7.21198
7.20745
6.95127
6.95524
6.96295
6.97405
6.98804
7.00438
7.02255
7.04208
7.06257
7.08372
7.10527
7.12702
7.14879
7.17042
7.19173
7.21259
7.23285
7.25242
7.27123
7.28923
7.30642
7.32281
7.33842
7.35325
7.36732
7.38061
7.3931
7.40478
7.41562
7.42561
7.43471
7.44288
7.45008
7.45622
7.46123
7.46501
7.46746
7.46845
7.46789
7.46563
7.46155
7.4555
7.44733
7.43689
7.424
7.40852
7.3903
7.36919
7.3451
7.318
7.28795
7.25516
7.22007
7.18333
7.14586
7.10875
7.07321
7.04037
7.01121
6.98639
6.96634
6.95126
6.94122
6.93619
6.69335
6.6979
6.70673
6.71939
6.73525
6.75366
6.77401
6.79576
6.81846
6.84179
6.86549
6.88937
6.91324
6.93692
6.96024
6.98303
7.00514
7.02645
7.04689
7.06642
7.08505
7.1028
7.11971
7.13578
7.15103
7.16545
7.17901
7.1917
7.20349
7.21436
7.22429
7.23323
7.24114
7.24793
7.25351
7.25777
7.2606
7.26187
7.26147
7.25924
7.25505
7.24873
7.24012
7.22904
7.2153
7.19872
7.17912
7.15632
7.13018
7.1006
7.06761
7.03139
6.99237
6.95129
6.90918
6.86738
6.82733
6.79043
6.7578
6.7302
6.70803
6.69144
6.68045
6.67497
6.44518
6.45038
6.46044
6.47478
6.49265
6.51326
6.53588
6.55989
6.58482
6.61032
6.63616
6.66213
6.68806
6.71377
6.73906
6.76376
6.78767
6.81067
6.83268
6.85368
6.87367
6.89272
6.91085
6.92811
6.9445
6.96
6.9746
6.98825
7.00096
7.01269
7.02342
7.03313
7.04174
7.04918
7.05534
7.0601
7.06334
7.06492
7.06471
7.06256
7.05832
7.0518
7.04283
7.0312
7.01671
6.99915
6.97829
6.95392
6.92584
6.8939
6.85803
6.81838
6.77536
6.72976
6.68278
6.636
6.59118
6.55
6.5138
6.48339
6.45914
6.44113
6.42924
6.42333
6.20626
6.21218
6.22359
6.23978
6.25982
6.28276
6.30774
6.33406
6.36123
6.38889
6.41681
6.44484
6.4728
6.50051
6.52775
6.55432
6.58
6.60464
6.62817
6.65056
6.67185
6.69212
6.71142
6.72981
6.74729
6.76384
6.77943
6.79403
6.8076
6.82016
6.83168
6.84213
6.85145
6.85954
6.86629
6.87157
6.87524
6.87717
6.87719
6.87516
6.87092
6.86427
6.85501
6.84293
6.82778
6.80934
6.78735
6.76155
6.73166
6.69747
6.65881
6.61575
6.56866
6.51837
6.46625
6.41415
6.36424
6.31858
6.2787
6.24549
6.21924
6.19988
6.18719
6.1809
5.97612
5.98284
5.99576
6.01397
6.03635
6.06176
6.08919
6.11788
6.14728
6.17706
6.20704
6.23708
6.26703
6.29671
6.32589
6.3543
6.38172
6.40796
6.43294
6.45665
6.47916
6.50058
6.52099
6.54046
6.55898
6.57655
6.5931
6.6086
6.62302
6.63637
6.64865
6.65983
6.66985
6.6786
6.68595
6.69177
6.69589
6.69818
6.69847
6.69661
6.69242
6.6857
6.67624
6.66378
6.64808
6.62887
6.60587
6.57877
6.54722
6.51091
6.46958
6.42315
6.37193
6.31677
6.25919
6.20141
6.14605
6.09565
6.05202
6.01605
5.98791
5.96733
5.95392
5.9473
5.75432
5.76194
5.77652
5.79697
5.82189
5.84991
5.87989
5.91098
5.9426
5.97446
6.00643
6.03844
6.07035
6.10197
6.13306
6.1633
6.19242
6.22021
6.24658
6.27154
6.29519
6.31768
6.33914
6.35964
6.37918
6.39773
6.41521
6.43157
6.4468
6.46091
6.47393
6.48582
6.49654
6.50595
6.51392
6.52029
6.52488
6.52756
6.52815
6.52649
6.52241
6.51568
6.50608
6.49333
6.47716
6.4573
6.43341
6.40515
6.3721
6.33384
6.28996
6.24023
6.18484
6.12463
6.06127
5.99736
5.93614
5.88075
5.83329
5.79464
5.76475
5.7431
5.72911
5.72223
5.54041
5.54905
5.5655
5.58841
5.61607
5.64687
5.67949
5.713
5.74682
5.7807
5.8146
5.84851
5.88234
5.91588
5.94887
5.98093
6.01172
6.04101
6.06871
6.09484
6.11955
6.14304
6.16549
6.18697
6.20748
6.22699
6.24538
6.26257
6.27856
6.2934
6.30713
6.31973
6.33113
6.34121
6.34981
6.35674
6.36183
6.36491
6.36583
6.36441
6.36048
6.3538
6.34412
6.33116
6.31462
6.2942
6.26955
6.24028
6.2059
6.16587
6.1196
6.06668
6.0071
5.94165
5.87216
5.80162
5.73406
5.67339
5.62206
5.58086
5.54942
5.5269
5.51246
5.50539
5.334
5.34378
5.36231
5.38794
5.41858
5.45231
5.48766
5.52362
5.55959
5.59541
5.63115
5.66692
5.70262
5.73806
5.77294
5.80682
5.83925
5.87001
5.89898
5.92619
5.95187
5.97628
5.99965
6.02207
6.04353
6.06397
6.08324
6.10123
6.11795
6.13347
6.14788
6.16117
6.17325
6.18402
6.19326
6.20076
6.20635
6.20986
6.21113
6.20998
6.20624
6.19967
6.18998
6.17688
6.16005
6.13917
6.11388
6.08374
6.0482
6.0066
5.95816
5.90217
5.83841
5.76757
5.69157
5.61382
5.53934
5.47309
5.4179
5.37434
5.34159
5.31843
5.3037
5.29653
5.13469
5.14576
5.16661
5.19524
5.22913
5.26594
5.3041
5.34253
5.38058
5.41824
5.45573
5.49328
5.53081
5.56812
5.60491
5.64061
5.67467
5.70684
5.73702
5.76523
5.79178
5.81702
5.84126
5.86458
5.88696
5.90832
5.92847
5.94722
5.9646
5.98077
5.99583
6.00979
6.02256
6.03401
6.04391
6.052
6.05811
6.06206
6.06369
6.06284
6.05933
6.05291
6.04328
6.03011
6.01305
5.9918
5.966
5.93513
5.89862
5.85568
5.80528
5.74641
5.67852
5.60215
5.51923
5.4336
5.35152
5.27937
5.22039
5.17472
5.14097
5.11742
5.10258
5.09539
4.9421
4.95463
4.97806
5.01003
5.04744
5.08749
5.12853
5.16942
5.20948
5.24886
5.28798
5.32724
5.36657
5.40572
5.44443
5.48197
5.51763
5.55118
5.5825
5.61162
5.63894
5.66492
5.68997
5.71416
5.73743
5.75972
5.78072
5.80019
5.8182
5.83496
5.85065
5.86527
5.87871
5.89086
5.90143
5.91012
5.91675
5.92115
5.92316
5.92263
5.91938
5.91316
5.90365
5.89047
5.87326
5.85172
5.82551
5.79407
5.75675
5.71272
5.66064
5.59911
5.52717
5.44516
5.35493
5.26063
5.17013
5.09177
5.02911
4.98169
4.9473
4.92363
4.90887
4.90177
4.75586
4.77005
4.79635
4.83203
4.87325
4.91667
4.96067
5.00403
5.04598
5.08693
5.12755
5.16847
5.20954
5.2505
5.29117
5.33059
5.36782
5.4027
5.43511
5.46503
5.493
5.51964
5.54545
5.57047
5.59461
5.61783
5.6397
5.65985
5.67842
5.69571
5.71201
5.72727
5.74137
5.75424
5.76551
5.7748
5.78196
5.78682
5.78921
5.78902
5.78606
5.78008
5.77074
5.75762
5.74031
5.71856
5.69205
5.66015
5.62222
5.57735
5.52389
5.45998
5.38411
5.2964
5.1985
5.09461
4.99469
4.90978
4.8437
4.79495
4.76033
4.73687
4.72238
4.71545
4.57563
4.59172
4.62117
4.66097
4.70636
4.75324
4.80025
4.84608
4.88978
4.93213
4.97409
5.01661
5.0594
5.10212
5.14481
5.18617
5.22491
5.2611
5.29455
5.32516
5.35366
5.38083
5.40738
5.43321
5.45818
5.48236
5.50512
5.52589
5.54495
5.56271
5.57959
5.59549
5.61024
5.62385
5.63585
5.64573
5.65341
5.65875
5.66153
5.66167
5.65903
5.65335
5.64423
5.63122
5.61386
5.59194
5.56525
5.53302
5.49463
5.44922
5.39472
5.32877
5.24911
5.15571
5.04984
4.93525
4.82466
4.73291
4.66379
4.61425
4.57986
4.55693
4.54291
4.53624
4.40105
4.41935
4.45222
4.49662
4.54656
4.59695
4.64701
4.69533
4.74061
4.78416
4.82726
4.87136
4.91584
4.96024
5.00503
5.04842
5.08862
5.12607
5.16054
5.1917
5.2206
5.24819
5.27545
5.30208
5.32783
5.35302
5.3767
5.39804
5.41751
5.43566
5.45312
5.46963
5.48501
5.4994
5.51215
5.52262
5.53083
5.53664
5.5398
5.5403
5.53799
5.53264
5.52381
5.51097
5.49357
5.47154
5.44477
5.41231
5.3736
5.32796
5.27279
5.20519
5.12193
5.0229
4.90889
4.78233
4.65946
4.56066
4.48904
4.43937
4.40571
4.38363
4.37027
4.36395
4.23179
4.25267
4.2892
4.33877
4.39369
4.44753
4.5007
4.55157
4.59818
4.64272
4.68673
4.73242
4.77857
4.82451
4.87155
4.91711
4.95864
4.99732
5.03281
5.06436
5.09353
5.1214
5.14938
5.1768
5.20327
5.22953
5.25421
5.27602
5.29581
5.31426
5.33229
5.34944
5.36539
5.38061
5.39416
5.40518
5.41392
5.42021
5.42374
5.42459
5.42264
5.41766
5.40916
5.39656
5.37915
5.35702
5.33029
5.29768
5.25876
5.21321
5.15778
5.08901
5.00231
4.8978
4.7757
4.63563
4.49846
4.39252
4.31917
4.27013
4.23772
4.21682
4.2043
4.19841
4.06753
4.09147
4.13181
4.1872
4.24764
4.30472
4.36106
4.41458
4.46222
4.50753
4.55216
4.59951
4.64733
4.69459
4.74408
4.79201
4.83467
4.87458
4.91113
4.94287
4.97217
5.00015
5.02889
5.05711
5.08418
5.11163
5.13741
5.15957
5.1796
5.19823
5.21687
5.23464
5.2511
5.2672
5.28164
5.29315
5.30241
5.3092
5.31307
5.31428
5.3127
5.30812
5.30001
5.28772
5.27028
5.24804
5.22151
5.18879
5.1497
5.10464
5.04934
4.97999
4.88999
4.78021
4.65042
4.49502
4.34089
4.22797
4.15392
4.10636
4.07576
4.05634
4.04482
4.03943
3.90792
3.93559
3.97971
4.04172
4.10833
4.16824
4.22782
4.28422
4.33245
4.37833
4.42319
4.47236
4.52189
4.57013
4.62235
4.67293
4.71642
4.75756
4.79528
4.82695
4.85626
4.88412
4.91373
4.94278
4.97026
4.99907
5.0261
5.04845
5.06862
5.08727
5.10658
5.12501
5.14184
5.15894
5.17435
5.18627
5.19605
5.20336
5.20753
5.20909
5.20788
5.20375
5.19609
5.18418
5.16668
5.14428
5.11815
5.08535
5.04606
5.0019
4.94713
4.87793
4.78468
4.66988
4.53333
4.36043
4.18586
4.06652
3.9931
3.94797
3.9197
3.90205
3.89167
3.88684
3.75261
3.78494
3.83253
3.90216
3.97576
4.03776
4.10071
4.16034
4.20859
4.25488
4.29944
4.35073
4.40207
4.45072
4.50611
4.55976
4.60358
4.646
4.68508
4.71634
4.74556
4.773
4.80366
4.8336
4.86119
4.89161
4.92011
4.9424
4.96265
4.9811
5.00121
5.02033
5.03734
5.05558
5.07209
5.08427
5.09458
5.10246
5.10686
5.10878
5.10793
5.10429
5.09713
5.08573
5.0681
5.04543
5.01995
4.98707
4.94742
4.90469
4.8508
4.78266
4.68606
4.56649
4.42488
4.2319
4.03227
3.90769
3.83658
3.79488
3.76945
3.7538
3.74468
3.74045
3.60125
3.63952
3.68985
3.76836
3.85001
3.91291
3.97946
4.04289
4.09032
4.13698
4.18051
4.23443
4.28772
4.33594
4.3951
4.4524
4.49579
4.5396
4.5804
4.61075
4.63986
4.66646
4.69848
4.72941
4.75665
4.78902
4.81932
4.84117
4.86148
4.87943
4.90054
4.92041
4.93731
4.9569
4.97469
4.9869
4.99777
5.00628
5.01082
5.01311
5.01261
5.0095
5.00287
4.99213
4.97428
4.95115
4.92671
4.89369
4.85337
4.81272
4.75994
4.69408
4.59379
4.46957
4.32571
4.10958
3.87876
3.75108
3.68431
3.64705
3.6249
3.61147
3.60369
3.6001
3.4534
3.49949
3.55113
3.64015
3.73129
3.79322
3.86377
3.93186
3.97728
4.02449
4.06594
4.12326
4.17878
4.22529
4.2891
4.35086
4.39268
4.43811
4.48114
4.50987
4.53898
4.56414
4.59798
4.63008
4.65627
4.69108
4.72361
4.7445
4.76492
4.78196
4.80438
4.82511
4.84144
4.86268
4.88201
4.8939
4.90538
4.91463
4.91916
4.92185
4.92167
4.91914
4.91307
4.90321
4.88499
4.86111
4.83825
4.80498
4.76346
4.72575
4.67412
4.61216
4.5075
4.37848
4.23673
3.9938
3.72364
3.5964
3.53632
3.50446
3.48598
3.47491
3.46853
3.4656
3.30862
3.36517
3.41571
3.51739
3.61991
3.67813
3.75331
3.82737
3.86906
3.91735
3.95521
4.01709
4.07528
4.11821
4.18789
4.25524
4.29382
4.34124
4.38728
4.41339
4.44282
4.46565
4.502
4.53553
4.55964
4.5976
4.63296
4.65209
4.67283
4.68835
4.71255
4.7343
4.7494
4.77273
4.79393
4.805
4.8172
4.82735
4.83165
4.83479
4.83489
4.83299
4.82748
4.81879
4.80002
4.77494
4.75442
4.72077
4.67721
4.64362
4.59282
4.53699
4.42677
4.29232
4.15913
3.8851
3.56473
3.44353
3.39272
3.36712
3.35259
3.34397
3.33903
3.33677
3.16635
3.23714
3.28276
3.39995
3.5164
3.56692
3.64777
3.72964
3.76512
3.8156
3.84769
3.91581
3.97734
4.014
4.09127
4.16575
4.19868
4.24869
4.29887
4.32089
4.3513
4.37056
4.41042
4.44576
4.46631
4.50838
4.54737
4.56362
4.58513
4.59825
4.6249
4.64792
4.66084
4.68685
4.71038
4.71992
4.73302
4.74428
4.74805
4.75175
4.75203
4.75086
4.74586
4.73875
4.7192
4.69222
4.67515
4.64091
4.59406
4.56625
4.51541
4.46878
4.35122
4.20985
4.09444
3.78428
3.39931
3.29258
3.25369
3.23503
3.22463
3.21851
3.21502
3.21342
3.02592
3.11626
3.15119
3.28769
3.4215
3.4587
3.54678
3.63906
3.6648
3.71943
3.74266
3.81936
3.88521
3.91184
3.99904
4.08274
4.10665
4.16019
4.21608
4.23193
4.26448
4.27835
4.32312
4.36082
4.37572
4.42326
4.46692
4.47869
4.50179
4.51125
4.54131
4.56594
4.57533
4.60489
4.63136
4.63833
4.65264
4.6653
4.6681
4.67255
4.6729
4.67256
4.66793
4.66298
4.64237
4.61251
4.60041
4.56532
4.51337
4.49368
4.44113
4.40794
4.28045
4.12937
4.04462
3.6925
3.22393
3.14404
3.11949
3.10822
3.10201
3.09838
3.09631
3.09536
2.88652
3.0038
3.01964
3.18049
3.33621
3.35235
3.44996
3.55619
3.56724
3.62925
3.63919
3.72775
3.79934
3.81073
3.91104
4.00674
4.01697
4.07542
4.13916
4.14591
4.18252
4.18843
4.24005
4.28089
4.28725
4.34207
4.3918
4.39683
4.42286
4.4269
4.46169
4.48841
4.49243
4.52668
4.5569
4.5599
4.57586
4.59034
4.59157
4.59704
4.59726
4.59793
4.59343
4.59141
4.56943
4.53529
4.53024
4.49399
4.43439
4.42615
4.36901
4.35509
4.21411
4.04867
4.01209
3.61133
3.03424
2.99887
2.99042
2.98666
2.98461
2.98341
2.98273
2.98241
)
;

boundaryField
{
    left
    {
        type            zeroGradient;
    }
    right
    {
        type            zeroGradient;
    }
    interface
    {
        type            fixedValue;
        value           nonuniform List<scalar> 
64
(
2.81567
2.95192
2.95192
3.12871
3.29877
3.29877
3.40304
3.51892
3.51892
3.58732
3.58732
3.68431
3.75995
3.75995
3.86933
3.97323
3.97323
4.03535
4.10475
4.10475
4.14505
4.14505
4.20169
4.24486
4.24486
4.30489
4.35886
4.35886
4.38759
4.38759
4.42592
4.4542
4.4542
4.49188
4.52476
4.52476
4.54203
4.55784
4.55784
4.56414
4.56414
4.56554
4.56097
4.56097
4.53818
4.50089
4.50089
4.46385
4.3985
4.3985
4.33662
4.33662
4.18616
4.00944
4.00944
3.57945
2.92971
2.92971
2.92971
2.92971
2.92971
2.92971
2.92971
2.92971
)
;
    }
    bottom
    {
        type            fixedValue;
        value           uniform 10;
    }
    defaultFaces
    {
        type            empty;
    }
}


// ************************************************************************* //
