/*--------------------------------*- C++ -*----------------------------------*\
| =========                 |                                                 |
| \\      /  F ield         | OpenFOAM: The Open Source CFD Toolbox           |
|  \\    /   O peration     | Version:  5.x                                   |
|   \\  /    A nd           | Web:      www.OpenFOAM.org                      |
|    \\/     M anipulation  |                                                 |
\*---------------------------------------------------------------------------*/
FoamFile
{
    version     2.0;
    format      ascii;
    class       volScalarField;
    location    "8.7";
    object      gradTx;
}
// * * * * * * * * * * * * * * * * * * * * * * * * * * * * * * * * * * * * * //

dimensions      [0 -1 0 1 0 0 0];

internalField   nonuniform List<scalar> 
6300
(
-31.8658
-31.9367
-32.0779
-32.2879
-32.5644
-32.9042
-33.3032
-33.7558
-34.2553
-34.7936
-35.3614
-35.9481
-36.5426
-37.1339
-37.711
-31.7949
-31.8665
-32.0091
-32.2213
-32.501
-32.8451
-33.2496
-33.7089
-34.2165
-34.7642
-35.3424
-35.9402
-36.546
-37.1479
-37.7344
-31.6524
-31.7253
-31.8707
-32.0873
-32.3732
-32.7257
-33.141
-33.6138
-34.1377
-34.7043
-35.3037
-35.9243
-36.5533
-37.1773
-37.7832
-31.4369
-31.5118
-31.6611
-31.8839
-32.1789
-32.5436
-32.9748
-33.4677
-34.0161
-34.6117
-35.2439
-35.9001
-36.5657
-37.2248
-37.8616
-31.1466
-31.2238
-31.3779
-31.6085
-31.9148
-32.295
-32.7468
-33.2662
-33.8474
-34.4824
-35.1601
-35.8665
-36.5845
-37.2947
-37.9765
-30.7792
-30.8588
-31.0183
-31.2575
-31.5766
-31.9749
-32.4512
-33.0028
-33.625
-34.3103
-35.0476
-35.8213
-36.6113
-37.3928
-38.1385
-30.332
-30.4141
-30.5788
-30.8268
-31.1592
-31.5769
-32.0804
-32.6689
-33.3395
-34.0863
-34.8986
-35.76
-36.6464
-37.5267
-38.3629
-29.8028
-29.8869
-30.0559
-30.3116
-30.6564
-31.0931
-31.6246
-32.2527
-32.9778
-33.7967
-34.7007
-35.6734
-36.6879
-37.7046
-38.6712
-29.1895
-29.2747
-29.4464
-29.7074
-30.0618
-30.5147
-31.072
-31.7397
-32.5224
-33.422
-34.4341
-35.5451
-36.727
-37.9328
-39.0914
-28.4911
-28.5759
-28.7475
-29.0098
-29.3686
-29.8318
-30.4091
-31.1115
-31.9502
-32.9347
-34.0687
-35.3458
-36.7423
-38.2082
-39.6554
-27.7078
-27.7904
-27.958
-28.2157
-28.571
-29.0348
-29.621
-30.347
-31.2324
-32.2977
-33.5602
-35.0273
-36.688
-38.5024
-40.384
-26.8419
-26.9198
-27.0786
-27.3239
-27.665
-28.1154
-28.6933
-29.423
-30.3346
-31.4637
-32.8473
-34.5154
-36.4804
-38.7298
-41.2342
-25.898
-25.9685
-26.1125
-26.3362
-26.6498
-27.0684
-27.6139
-28.317
-29.2194
-30.3754
-31.8498
-33.7073
-35.9895
-38.7036
-41.9391
-24.8836
-24.9437
-25.0668
-25.2587
-25.5295
-25.8944
-26.3769
-27.0117
-27.8505
-28.9688
-30.47
-32.476
-35.0703
-38.163
-41.5862
-23.809
-23.856
-23.9522
-24.1025
-24.315
-24.603
-24.9875
-25.5023
-26.2024
-27.1797
-28.5868
-30.6604
-33.6636
-37.3173
-37.954
-38.2208
-38.6612
-39.0775
-39.4676
-39.8307
-40.1667
-40.4759
-40.7591
-41.0163
-41.2474
-41.452
-41.6289
-41.7773
-41.8963
-41.986
-42.0471
-42.0816
-42.0924
-42.0834
-42.0588
-42.0229
-41.9795
-41.9314
-41.8805
-41.8273
-41.7711
-41.7105
-41.6436
-41.5685
-41.4835
-41.3882
-41.2829
-41.1689
-41.0485
-40.9246
-40.8
-40.6773
-40.5583
-40.4438
-40.3336
-40.2265
-40.1205
-40.0132
-39.9024
-39.7864
-39.6641
-39.5357
-39.4022
-39.2655
-39.1282
-38.9928
-38.8614
-38.7359
-38.6167
-38.5036
-38.3952
-38.2898
-38.1848
-38.0782
-37.9681
-37.8537
-37.735
-37.6129
-37.4893
-37.3666
-37.247
-37.1329
-37.0259
-36.9265
-36.8347
-36.7494
-36.669
-36.5917
-36.5159
-36.4406
-36.3656
-36.292
-36.222
-36.1589
-36.1062
-36.0683
-36.0486
-36.0503
-36.0749
-36.1227
-36.192
-36.2794
-36.38
-36.4875
-36.5951
-38.2511
-38.6961
-39.1151
-39.5065
-39.8697
-40.2051
-40.5137
-40.7964
-41.0538
-41.2858
-41.4917
-41.6701
-41.8195
-41.9387
-42.0271
-42.0854
-42.1156
-42.121
-42.1059
-42.0752
-42.0338
-41.9862
-41.9355
-41.8839
-41.8315
-41.7775
-41.7197
-41.6555
-41.5825
-41.4985
-41.4027
-41.2953
-41.178
-41.0537
-40.9256
-40.7974
-40.672
-40.5518
-40.4376
-40.3292
-40.2249
-40.1222
-40.0182
-39.91
-39.7953
-39.673
-39.543
-39.4067
-39.2665
-39.1255
-38.9868
-38.8532
-38.7266
-38.6079
-38.4966
-38.3911
-38.289
-38.1872
-38.0831
-37.9744
-37.86
-37.7398
-37.6151
-37.4882
-37.3619
-37.2392
-37.1228
-37.0147
-36.9157
-36.8253
-36.7423
-36.6646
-36.5896
-36.5153
-36.44
-36.3635
-36.2868
-36.2123
-36.1436
-36.0852
-36.0418
-36.0179
-36.0171
-36.0416
-36.0917
-36.1659
-36.2605
-36.3699
-36.4873
-36.605
-38.3142
-38.7682
-39.1927
-39.5861
-39.9487
-40.2822
-40.5887
-40.8701
-41.1278
-41.3619
-41.571
-41.7531
-41.9053
-42.0253
-42.1116
-42.1643
-42.1855
-42.1791
-42.1508
-42.1068
-42.0537
-41.9971
-41.9412
-41.8882
-41.8381
-41.7892
-41.738
-41.6803
-41.6122
-41.5306
-41.4337
-41.3219
-41.1975
-41.0642
-40.9269
-40.7905
-40.6593
-40.5365
-40.4232
-40.3188
-40.221
-40.126
-40.0293
-39.9269
-39.8153
-39.6928
-39.5593
-39.4168
-39.2688
-39.1194
-38.9734
-38.8347
-38.7061
-38.5885
-38.4814
-38.3823
-38.2876
-38.193
-38.0946
-37.989
-37.8745
-37.7511
-37.6205
-37.4861
-37.3519
-37.2222
-37.1009
-36.9905
-36.8922
-36.8053
-36.7277
-36.656
-36.5866
-36.5159
-36.4412
-36.3618
-36.2784
-36.1941
-36.1135
-36.0425
-35.9873
-35.954
-35.9476
-35.9713
-36.0261
-36.1104
-36.2201
-36.3484
-36.4869
-36.6258
-38.4151
-38.883
-39.3149
-39.7099
-40.0698
-40.3982
-40.6997
-40.9781
-41.236
-41.4738
-41.6894
-41.8789
-42.0375
-42.1604
-42.2444
-42.2885
-42.2949
-42.2689
-42.2182
-42.1517
-42.0786
-42.0071
-41.9427
-41.8882
-41.8432
-41.8042
-41.7654
-41.7201
-41.6616
-41.5845
-41.4862
-41.3668
-41.2296
-41.0805
-40.9268
-40.776
-40.6347
-40.5074
-40.3959
-40.2991
-40.213
-40.1319
-40.0488
-39.957
-39.8511
-39.7283
-39.5887
-39.435
-39.2727
-39.1086
-38.9496
-38.8018
-38.6695
-38.5541
-38.4546
-38.367
-38.2859
-38.2044
-38.1163
-38.0163
-37.9018
-37.7726
-37.6315
-37.4837
-37.3353
-37.1933
-37.0632
-36.949
-36.8523
-36.772
-36.7044
-36.6443
-36.5855
-36.522
-36.4494
-36.3656
-36.2714
-36.1707
-36.0697
-35.9769
-35.9012
-35.8514
-35.8347
-35.8562
-35.918
-36.0185
-36.1528
-36.3123
-36.4857
-36.6601
-38.5626
-39.0496
-39.4902
-39.8843
-40.2362
-40.5532
-40.8438
-41.1156
-41.3733
-41.6177
-41.8453
-42.0494
-42.2211
-42.3518
-42.4346
-42.467
-42.4512
-42.3945
-42.3082
-42.2059
-42.1014
-42.0067
-41.9299
-41.8747
-41.8397
-41.8188
-41.8024
-41.779
-41.7376
-41.6692
-41.569
-41.4371
-41.2789
-41.1035
-40.9225
-40.7479
-40.5899
-40.4555
-40.3474
-40.2637
-40.198
-40.1408
-40.0808
-40.0072
-39.9113
-39.7882
-39.6381
-39.4656
-39.2794
-39.0903
-38.9096
-38.7467
-38.6084
-38.4969
-38.4104
-38.3427
-38.2846
-38.2255
-38.155
-38.0647
-37.9502
-37.8112
-37.6524
-37.4818
-37.3099
-37.147
-37.0024
-36.8823
-36.7889
-36.7202
-36.6704
-36.6308
-36.591
-36.5413
-36.4738
-36.3845
-36.2739
-36.1474
-36.0142
-35.8867
-35.778
-35.701
-35.6668
-35.6832
-35.754
-35.878
-36.0492
-36.2561
-36.4832
-36.712
-38.7706
-39.2831
-39.7324
-40.1196
-40.4529
-40.7462
-41.0151
-41.2734
-41.5297
-41.7856
-42.0351
-42.2665
-42.464
-42.6119
-42.6975
-42.7149
-42.6663
-42.5626
-42.4212
-42.2633
-42.1103
-41.9804
-41.886
-41.8322
-41.8159
-41.827
-41.8493
-41.864
-41.8524
-41.7996
-41.6973
-41.5456
-41.353
-41.1345
-40.9091
-40.6958
-40.511
-40.3657
-40.264
-40.2025
-40.1708
-40.1536
-40.1325
-40.0895
-40.0104
-39.8872
-39.7197
-39.516
-39.2902
-39.0601
-38.8437
-38.6564
-38.5085
-38.4039
-38.3391
-38.3044
-38.2848
-38.2631
-38.2221
-38.1481
-38.0336
-37.8784
-37.6901
-37.4821
-37.2712
-37.0745
-36.9065
-36.7771
-36.6898
-36.6412
-36.6219
-36.6174
-36.611
-36.5861
-36.5296
-36.4339
-36.2993
-36.1335
-35.9507
-35.7692
-35.609
-35.4891
-35.4261
-35.4319
-35.5132
-35.6697
-35.894
-36.171
-36.4781
-36.7886
-39.0606
-39.6077
-40.0642
-40.4323
-40.7272
-40.9743
-41.2017
-41.4342
-41.6869
-41.9626
-42.2513
-42.5322
-42.7783
-42.9616
-43.0588
-43.0578
-42.9609
-42.7849
-42.558
-42.3138
-42.0859
-41.9029
-41.7836
-41.7355
-41.7529
-41.8189
-41.9072
-41.9867
-42.0265
-42.0013
-41.8967
-41.7129
-41.4642
-41.1757
-40.8782
-40.6027
-40.3752
-40.2131
-40.1226
-40.0981
-40.123
-40.172
-40.2155
-40.2239
-40.1732
-40.0497
-39.8535
-39.598
-39.3072
-39.0101
-38.7359
-38.5093
-38.3465
-38.2534
-38.2246
-38.2442
-38.2881
-38.3283
-38.3365
-38.29
-38.1756
-37.9934
-37.7562
-37.4865
-37.212
-36.9604
-36.7551
-36.6114
-36.5349
-36.5202
-36.5518
-36.6067
-36.6574
-36.6766
-36.6416
-36.5395
-36.3697
-36.1442
-35.8854
-35.6212
-35.3818
-35.1954
-35.0861
-35.0721
-35.1639
-35.3637
-35.6632
-36.0422
-36.4684
-36.9008
-39.4657
-40.0627
-40.5235
-40.8502
-41.0707
-41.2306
-41.381
-41.5657
-41.811
-42.1211
-42.4785
-42.848
-43.1833
-43.4351
-43.5615
-43.5389
-43.3693
-43.0807
-42.7196
-42.3406
-41.9972
-41.7335
-41.5789
-41.5443
-41.6201
-41.7787
-41.9777
-42.1667
-42.2943
-42.3172
-42.2103
-41.9738
-41.6327
-41.2297
-40.8158
-40.4405
-40.1453
-39.9573
-39.8862
-39.9228
-40.0402
-40.1983
-40.349
-40.4435
-40.4407
-40.317
-40.0726
-39.7311
-39.3332
-38.9271
-38.5597
-38.2701
-38.084
-38.0104
-38.0405
-38.1487
-38.297
-38.4395
-38.53
-38.5294
-38.4153
-38.1876
-37.8689
-37.4978
-37.1199
-36.7799
-36.5147
-36.3489
-36.291
-36.3323
-36.4483
-36.6021
-36.7494
-36.845
-36.8503
-36.7425
-36.5201
-36.2031
-35.8276
-35.4376
-35.0782
-34.7906
-34.6091
-34.5597
-34.6592
-34.9142
-35.318
-35.8453
-36.4496
-37.0667
-40.0367
-40.7137
-41.1758
-41.4213
-41.5012
-41.5004
-41.5112
-41.6101
-41.8417
-42.2114
-42.6883
-43.2133
-43.7086
-44.0891
-44.2789
-44.2317
-43.949
-43.4808
-42.9068
-42.3164
-41.7936
-41.4069
-41.2015
-41.194
-41.3683
-41.68
-42.0626
-42.4353
-42.7128
-42.8199
-42.7107
-42.3854
-41.8901
-41.2995
-40.6975
-40.1632
-39.7609
-39.5331
-39.4949
-39.631
-39.8989
-40.2353
-40.5636
-40.803
-40.8823
-40.7583
-40.4313
-39.9453
-39.3711
-38.7883
-38.2716
-37.8819
-37.6593
-37.6182
-37.7438
-37.9957
-38.314
-38.6258
-38.8544
-38.9323
-38.8184
-38.5128
-38.0573
-37.5189
-36.9733
-36.4915
-36.1313
-35.9311
-35.9043
-36.037
-36.2903
-36.6067
-36.9159
-37.1432
-37.222
-37.1107
-36.8066
-36.3461
-35.7906
-35.2099
-34.6712
-34.2329
-33.9419
-33.833
-33.9304
-34.2503
-34.7949
-35.5376
-36.4124
-37.3155
-40.8505
-41.6744
-42.1401
-42.231
-42.0481
-41.7536
-41.5144
-41.4633
-41.6738
-42.1475
-42.8289
-43.6212
-44.399
-45.0179
-45.3377
-45.2633
-44.7961
-44.0334
-43.1176
-42.195
-41.3942
-40.8189
-40.5393
-40.5818
-40.9186
-41.4794
-42.1618
-42.841
-43.3766
-43.634
-43.5222
-43.0419
-42.2848
-41.3855
-40.482
-39.6959
-39.1251
-38.8357
-38.8526
-39.1494
-39.6589
-40.284
-40.9063
-41.393
-41.6166
-41.4917
-41.0192
-40.2866
-39.4213
-38.5543
-37.8007
-37.2528
-36.9735
-36.9859
-37.2651
-37.7472
-38.3402
-38.9318
-39.3959
-39.6115
-39.4973
-39.0542
-38.3648
-37.5502
-36.7348
-36.0279
-35.5175
-35.2635
-35.2881
-35.5677
-36.0416
-36.6218
-37.2003
-37.655
-37.8676
-37.7566
-37.3181
-36.6261
-35.7899
-34.9218
-34.1196
-33.463
-33.0124
-32.8091
-32.8813
-33.2631
-33.9863
-35.0398
-36.3346
-37.697
-42.0166
-43.1506
-43.6444
-43.4351
-42.7558
-41.9268
-41.247
-40.9398
-41.1267
-41.7847
-42.8097
-44.0502
-45.3183
-46.3775
-46.964
-46.8607
-46.0686
-44.8066
-43.3382
-41.8979
-40.6703
-39.8053
-39.4134
-39.5455
-40.1466
-41.1034
-42.2658
-43.4534
-44.4412
-44.9798
-44.8644
-44.0967
-42.8846
-41.4774
-40.0972
-38.9187
-38.0839
-37.6974
-37.8074
-38.3616
-39.2522
-40.3369
-41.4443
-42.3616
-42.853
-42.7255
-41.9816
-40.8189
-39.474
-38.157
-37.0333
-36.2372
-35.8675
-35.9697
-36.4941
-37.3388
-38.3686
-39.4214
-40.2951
-40.7658
-40.65
-39.9499
-38.8527
-37.5828
-36.34
-35.2813
-34.5346
-34.1945
-34.3047
-34.8187
-35.6397
-36.6395
-37.6629
-38.5154
-38.9793
-38.8739
-38.1948
-37.1135
-35.8353
-34.5388
-33.3583
-32.3966
-31.7268
-31.3886
-31.3865
-31.784
-32.7022
-34.1944
-36.1593
-38.2991
-43.6609
-45.5474
-46.1609
-45.3169
-43.6802
-41.8851
-40.4426
-39.7047
-39.9013
-40.8933
-42.4802
-44.4396
-46.5385
-48.4177
-49.5838
-49.45
-48.0178
-45.877
-43.5184
-41.2946
-39.4241
-38.1102
-37.5331
-37.8339
-38.8625
-40.4312
-42.3336
-44.3534
-46.1526
-47.2672
-47.1457
-45.7918
-43.765
-41.5306
-39.4221
-37.6466
-36.397
-35.8442
-36.1225
-37.0893
-38.5661
-40.3568
-42.2561
-43.9436
-44.9806
-44.8467
-43.5472
-41.6135
-39.4864
-37.4815
-35.7944
-34.6073
-34.0819
-34.3453
-35.2621
-36.6636
-38.364
-40.1689
-41.7746
-42.7645
-42.6441
-41.4176
-39.5891
-37.5766
-35.68
-34.0853
-32.9662
-32.4772
-32.74
-33.6274
-34.9802
-36.6232
-38.3717
-39.9351
-40.9109
-40.8174
-39.6508
-37.8842
-35.907
-33.9889
-32.2817
-30.9102
-29.9634
-29.4842
-29.3163
-29.5551
-30.5913
-32.6686
-35.7322
-39.2862
-45.7705
-49.7712
-50.7707
-48.3415
-44.8368
-41.3365
-38.6235
-37.1235
-37.5306
-39.1451
-41.6144
-44.628
-48.075
-51.485
-54.0751
-53.9094
-50.9872
-47.2609
-43.5046
-40.1826
-37.3763
-35.3544
-34.3884
-35.0743
-36.8007
-39.2784
-42.2324
-45.5712
-48.8499
-51.3348
-51.2017
-48.4556
-44.9447
-41.4024
-38.2674
-35.6173
-33.7066
-32.7941
-33.4464
-35.0825
-37.4278
-40.2205
-43.373
-46.4623
-48.7943
-48.6465
-46.0261
-42.6865
-39.3227
-36.3482
-33.8356
-32.0246
-31.1604
-31.7799
-33.3323
-35.5579
-38.209
-41.2033
-44.1406
-46.3621
-46.2307
-43.7524
-40.5902
-37.4036
-34.5851
-32.2045
-30.4906
-29.6771
-30.2759
-31.766
-33.9028
-36.4548
-39.3472
-42.201
-44.3824
-44.3062
-41.9705
-38.9584
-35.8937
-33.1351
-30.7218
-28.812
-27.5267
-27.1313
-26.6607
-26.1778
-26.9812
-29.7226
-34.5986
-40.9905
-47.2981
-58.3037
-60.284
-52.9012
-45.9972
-39.66
-35.0589
-31.7965
-33.4213
-36.1659
-39.9651
-44.1921
-49.6651
-55.7326
-62.5351
-62.3379
-55.1144
-48.6883
-42.8655
-38.328
-34.199
-31.0783
-28.8648
-30.8164
-33.6571
-37.4396
-41.5772
-46.8755
-52.6903
-59.1722
-59.0203
-52.2209
-46.1693
-40.688
-36.4143
-32.5233
-29.579
-27.4906
-29.3536
-32.0545
-35.6451
-39.5662
-44.5808
-50.0714
-56.179
-56.0068
-49.5405
-43.7944
-38.5986
-34.5499
-30.8662
-28.0788
-26.1023
-27.8709
-30.4333
-33.8393
-37.5598
-42.3198
-47.5375
-53.3478
-53.1969
-47.072
-41.6266
-36.7002
-32.8599
-29.3636
-26.7183
-24.8435
-26.5284
-28.9731
-32.2277
-35.7963
-40.3781
-45.4353
-51.1047
-51.0484
-45.2645
-40.1081
-35.4397
-31.7841
-28.4369
-25.8144
-23.8086
-24.8868
-24.0228
-20.9482
-20.5804
-23.7028
-31.2823
-44.1275
-41.1938
-79.8678
-83.1592
-56.6486
-46.3241
-35.4856
-29.5669
-19.432
-27.6995
-31.6681
-37.6999
-41.9621
-50.399
-58.9221
-81.0745
-80.8846
-58.0935
-49.2466
-40.3757
-35.885
-29.5697
-25.4958
-17.3434
-25.2782
-29.1573
-35.0896
-39.2506
-47.4358
-55.5702
-76.5622
-76.4114
-54.9095
-46.5725
-38.2346
-34.0101
-28.0661
-24.2187
-16.4972
-24.0541
-27.7456
-33.3866
-37.3369
-45.1034
-52.7918
-72.6066
-72.4308
-52.0178
-44.1099
-36.2224
-32.226
-26.6063
-22.965
-15.6515
-22.8187
-26.3195
-31.6678
-35.4136
-42.7773
-50.0811
-68.9175
-68.7656
-49.4133
-41.9154
-34.433
-30.6392
-25.2972
-21.8364
-14.8838
-21.6867
-25.0141
-30.1004
-33.6785
-40.7246
-47.788
-66.0722
-66.0383
-47.655
-40.5549
-33.5273
-29.9892
-25.1082
-21.929
-15.6495
-25.4392
-24.568
-11.821
-9.15369
-11.2646
-20.3833
-50.2432
-36.7048
-36.8059
-36.8783
-36.9168
-36.9195
-36.8883
-36.8279
-36.7452
-36.6485
-36.5462
-36.4466
-36.3573
-36.2845
-36.2333
-36.2068
-36.7247
-36.8345
-36.9123
-36.9525
-36.9534
-36.9174
-36.8501
-36.7593
-36.654
-36.5434
-36.4363
-36.3407
-36.2631
-36.2085
-36.1803
-36.7668
-36.895
-36.984
-37.0275
-37.0242
-36.9779
-36.8959
-36.788
-36.6648
-36.5371
-36.4147
-36.3061
-36.2186
-36.1572
-36.1257
-36.8363
-36.9945
-37.1014
-37.1492
-37.1381
-37.074
-36.9676
-36.8319
-36.6802
-36.5254
-36.3791
-36.2506
-36.1478
-36.0762
-36.0395
-36.942
-37.1454
-37.2776
-37.33
-37.3047
-37.2124
-37.0688
-36.8917
-36.6986
-36.5054
-36.3255
-36.1695
-36.0458
-35.9602
-35.9165
-37.0986
-37.3673
-37.5338
-37.5885
-37.5385
-37.4021
-37.2034
-36.9674
-36.7172
-36.4722
-36.2479
-36.0562
-35.9058
-35.8024
-35.7499
-37.3292
-37.6913
-37.9017
-37.9518
-37.8586
-37.6541
-37.3753
-37.0575
-36.7306
-36.4181
-36.1377
-35.9017
-35.7185
-35.5938
-35.5307
-37.6719
-38.1671
-38.4299
-38.4584
-38.29
-37.9803
-37.5862
-37.1566
-36.7295
-36.3321
-35.9831
-35.6942
-35.4729
-35.3235
-35.2483
-38.1907
-38.8754
-39.1924
-39.1617
-38.8627
-38.391
-37.8325
-37.2532
-36.6986
-36.1979
-35.7683
-35.4192
-35.1555
-34.9791
-34.8908
-38.9979
-39.9515
-40.3025
-40.1335
-39.6081
-38.8884
-38.0996
-37.325
-36.6139
-35.9925
-35.4729
-35.0589
-34.7506
-34.5465
-34.4449
-40.3025
-41.6302
-41.9327
-41.4617
-40.5477
-39.455
-38.3527
-37.3333
-36.4393
-35.6854
-35.0718
-34.593
-34.2417
-34.0114
-33.8975
-42.5262
-44.3342
-44.3362
-43.233
-41.666
-40.031
-38.5229
-37.216
-36.1248
-35.238
-34.536
-33.9995
-33.6116
-33.3599
-33.2361
-46.609
-48.8442
-47.8448
-45.4683
-42.8521
-40.4803
-38.4918
-36.8832
-35.6059
-34.6055
-33.8349
-33.2573
-32.8454
-32.5806
-32.451
-54.933
-56.5889
-52.7306
-47.9431
-43.7939
-40.5463
-38.0808
-36.219
-34.8101
-33.7433
-32.9409
-32.3492
-31.9322
-31.6659
-31.5362
-74.5331
-69.8479
-58.5454
-49.7797
-43.834
-39.8301
-37.0662
-35.1018
-33.6722
-32.6168
-31.836
-31.2666
-30.8681
-30.6148
-30.4917
-22.7809
-22.8138
-22.881
-22.9855
-23.1325
-23.3307
-23.5946
-23.9488
-24.4376
-25.1462
-26.2513
-28.1517
-31.8032
-39.3785
-53.3061
-21.8233
-21.8425
-21.8812
-21.9405
-22.0219
-22.1285
-22.2656
-22.4429
-22.6806
-23.0226
-23.5781
-24.6668
-27.4341
-36.9451
-79.2684
-20.8525
-20.8576
-20.8672
-20.88
-20.8939
-20.9052
-20.9085
-20.8952
-20.8511
-20.7505
-20.536
-20.0291
-18.4607
-11.7347
25.4798
-19.8782
-19.8696
-19.851
-19.8189
-19.7675
-19.6874
-19.563
-19.3689
-19.0607
-18.557
-17.696
-16.1334
-13.14
-7.70554
-3.84523
-18.9098
-18.8886
-18.8441
-18.7712
-18.6612
-18.5003
-18.266
-17.9218
-17.4061
-16.6112
-15.3412
-13.2249
-9.52637
-2.59129
13.4814
-17.956
-17.9239
-17.857
-17.7491
-17.5903
-17.3641
-17.0454
-16.5939
-15.9454
-14.9956
-13.5736
-11.4115
-8.15957
-3.82563
-1.99169
-17.0246
-16.9834
-16.8982
-16.7625
-16.566
-16.2923
-15.9169
-15.4027
-14.6941
-13.7078
-12.3204
-10.3539
-7.54365
-3.32458
4.94339
-16.1217
-16.0735
-15.9744
-15.8182
-15.5954
-15.2912
-14.8847
-14.3464
-13.6357
-12.6987
-11.4695
-9.88206
-7.90592
-5.6354
-3.51485
-15.2523
-15.1991
-15.0902
-14.9203
-14.6812
-14.3611
-13.9441
-13.4099
-12.7344
-11.8924
-10.8676
-9.68009
-8.47254
-7.8421
-10.5005
-14.4198
-14.3633
-14.2483
-14.0704
-13.8233
-13.4983
-13.0848
-12.5716
-11.9488
-11.2131
-10.3785
-9.49207
-8.63839
-7.7649
-5.05155
-13.6266
-13.5683
-13.4501
-13.2687
-13.0195
-12.6968
-12.2949
-11.8095
-11.2414
-10.6025
-9.9255
-9.28131
-8.81797
-8.96537
-11.9989
-12.8738
-12.8148
-12.6957
-12.514
-12.2667
-11.9505
-11.5629
-11.1048
-10.5833
-10.0182
-9.44975
-8.94494
-8.57344
-8.16159
-5.49199
-12.162
-12.1032
-11.9847
-11.8049
-11.5618
-11.2536
-10.88
-10.444
-9.95549
-9.43639
-8.92977
-8.51601
-8.35693
-8.92568
-12.6918
-11.4911
-11.433
-11.3164
-11.1399
-10.9022
-10.6022
-10.2404
-9.81978
-9.34892
-8.84587
-8.34533
-7.91022
-7.63497
-7.46934
-5.29981
-10.8604
-10.8036
-10.6896
-10.5173
-10.2857
-9.99385
-9.64161
-9.23045
-8.76471
-8.2536
-7.71547
-7.19342
-6.83691
-7.40455
-13.6082
-10.2692
-10.214
-10.1032
-9.93594
-9.71109
-9.42743
-9.08376
-8.67902
-8.21203
-7.68012
-7.07446
-6.36168
-5.3971
-3.42585
4.13955
-9.71634
-9.66306
-9.55609
-9.39459
-9.17735
-8.90269
-8.56833
-8.17085
-7.70444
-7.15788
-6.50784
-5.70483
-4.65637
-3.33196
-3.22277
-9.20049
-9.14941
-9.04684
-8.89197
-8.68349
-8.41943
-8.09675
-7.71058
-7.25253
-6.70752
-6.04747
-5.21844
-4.10729
-2.39412
1.48412
-8.72014
-8.67153
-8.57394
-8.42661
-8.22826
-7.97689
-7.66929
-7.30023
-6.86102
-6.33707
-5.70448
-4.92799
-3.97632
-2.95975
-3.1087
-8.27357
-8.22768
-8.13559
-7.99669
-7.80988
-7.57343
-7.28452
-6.93862
-6.52839
-6.04208
-5.46144
-4.75921
-3.89046
-2.71595
-0.325161
-7.85889
-7.81592
-7.72979
-7.60006
-7.426
-7.20641
-6.93935
-6.62172
-6.24863
-5.81261
-5.30287
-4.70611
-4.01694
-3.31674
-3.36063
-7.47408
-7.43417
-7.35427
-7.23423
-7.07376
-6.87238
-6.62932
-6.34335
-6.01259
-5.63435
-5.20476
-4.7172
-4.15113
-3.40075
-1.81745
-7.11701
-7.08021
-7.00667
-6.89651
-6.74996
-6.56733
-6.34912
-6.0961
-5.80956
-5.49177
-5.14695
-4.78283
-4.41334
-4.06314
-3.78332
-6.78552
-6.75179
-6.68451
-6.58409
-6.45123
-6.28701
-6.09312
-5.87215
-5.62824
-5.36801
-5.10257
-4.85221
-4.66219
-4.67658
-5.5546
-6.47749
-6.44669
-6.38538
-6.29423
-6.1743
-6.02733
-5.85594
-5.66418
-5.45828
-5.24788
-5.04775
-4.87973
-4.76912
-4.69021
-4.11574
-6.19086
-6.16279
-6.10702
-6.02437
-5.91619
-5.78462
-5.63293
-5.46604
-5.29149
-5.12064
-4.97066
-4.86741
-4.85407
-5.04791
-6.09724
-5.92376
-5.89815
-5.84735
-5.77226
-5.67434
-5.55593
-5.42049
-5.27327
-5.12214
-4.97894
-4.86114
-4.79269
-4.79517
-4.81147
-4.15363
-5.67447
-5.65104
-5.60459
-5.53601
-5.44677
-5.33908
-5.21626
-5.08323
-4.94732
-4.81962
-4.71739
-4.66874
-4.7267
-5.04311
-6.40641
-5.44147
-5.41993
-5.37722
-5.31415
-5.23202
-5.13276
-5.01915
-4.89523
-4.76681
-4.64265
-4.53647
-4.47078
-4.47878
-4.5477
-3.98015
-5.22347
-5.20355
-5.16402
-5.10556
-5.0292
-4.93642
-4.82925
-4.71037
-4.58339
-4.45322
-4.32744
-4.22169
-4.18858
-4.49421
-6.78492
-5.01932
-5.0008
-4.964
-4.90942
-4.8378
-4.75011
-4.64749
-4.53117
-4.4022
-4.26078
-4.10454
-3.92218
-3.66318
-3.06214
-0.495779
-4.82807
-4.81077
-4.77635
-4.72515
-4.6576
-4.57419
-4.47527
-4.3608
-4.22968
-4.07865
-3.89982
-3.67591
-3.37534
-2.99479
-3.10852
-4.64885
-4.63266
-4.6004
-4.55225
-4.48844
-4.40906
-4.3139
-4.202
-4.07101
-3.91585
-3.72644
-3.48291
-3.14308
-2.58414
-1.19133
-4.4809
-4.46574
-4.43549
-4.39026
-4.33011
-4.25492
-4.16416
-4.0565
-3.92915
-3.77688
-3.59066
-3.35681
-3.063
-2.75251
-2.91521
-4.3235
-4.30932
-4.28102
-4.23866
-4.18225
-4.11162
-4.0262
-3.9247
-3.80463
-3.66152
-3.48798
-3.27238
-2.99455
-2.59221
-1.67589
-4.17597
-4.16275
-4.13634
-4.09685
-4.0443
-3.97861
-3.89942
-3.80584
-3.69614
-3.56731
-3.41454
-3.23119
-3.0126
-2.78876
-2.87583
-4.03765
-4.02534
-4.00079
-3.96412
-3.91549
-3.85501
-3.78266
-3.69819
-3.60097
-3.48975
-3.36235
-3.21451
-3.03432
-2.76933
-2.12291
-3.90791
-3.89647
-3.87367
-3.83974
-3.79495
-3.73967
-3.67433
-3.59943
-3.51555
-3.42347
-3.32438
-3.22034
-3.11495
-3.01473
-2.93381
-3.78615
-3.77549
-3.75432
-3.72291
-3.68171
-3.63135
-3.57268
-3.50693
-3.43585
-3.36207
-3.28989
-3.22712
-3.19202
-3.24668
-3.68822
-3.67181
-3.66185
-3.6421
-3.61292
-3.57487
-3.52882
-3.47598
-3.41817
-3.35804
-3.2996
-3.2489
-3.21473
-3.20677
-3.20989
-2.97317
-3.56442
-3.55503
-3.53646
-3.5091
-3.47362
-3.43102
-3.38276
-3.33103
-3.27908
-3.23178
-3.19644
-3.18416
-3.21386
-3.33958
-3.86924
-3.46356
-3.45462
-3.43695
-3.41095
-3.37734
-3.33717
-3.29198
-3.24409
-3.19693
-3.15568
-3.12801
-3.12447
-3.15431
-3.1887
-2.89374
-3.36894
-3.36031
-3.34323
-3.31812
-3.28565
-3.24682
-3.2031
-3.15665
-3.1107
-3.07018
-3.04284
-3.04163
-3.09162
-3.26648
-3.95221
-3.28034
-3.27188
-3.25512
-3.23043
-3.19841
-3.1599
-3.11614
-3.0689
-3.02073
-2.97554
-2.93956
-2.92325
-2.94224
-2.98944
-2.72019
-3.19765
-3.18923
-3.17254
-3.14787
-3.11569
-3.07665
-3.03163
-2.98181
-2.92872
-2.87454
-2.82265
-2.78039
-2.7733
-2.93208
-4.06734
-3.12082
-3.11235
-3.09552
-3.07054
-3.03775
-2.99757
-2.95048
-2.897
-2.83751
-2.77197
-2.69908
-2.61313
-2.4892
-2.19656
-0.935006
-3.04991
-3.04131
-3.02418
-2.99867
-2.96498
-2.92331
-2.87381
-2.8164
-2.75051
-2.67453
-2.5846
-2.47228
-2.32229
-2.13383
-2.19391
-2.98499
-2.9762
-2.95868
-2.9325
-2.89776
-2.85452
-2.80265
-2.7417
-2.67055
-2.58681
-2.48568
-2.35762
-2.18211
-1.89845
-1.20091
-2.9262
-2.9172
-2.89921
-2.87229
-2.83649
-2.79174
-2.73781
-2.6741
-2.59936
-2.51119
-2.40548
-2.27595
-2.11705
-1.95044
-2.01662
-2.8737
-2.86444
-2.84596
-2.81829
-2.78144
-2.73536
-2.67979
-2.6142
-2.53751
-2.44778
-2.34185
-2.21468
-2.05736
-1.84071
-1.37692
-2.82764
-2.81812
-2.79912
-2.77068
-2.73284
-2.68558
-2.62876
-2.56204
-2.48473
-2.39565
-2.29299
-2.17438
-2.03891
-1.90255
-1.91602
-2.7882
-2.77841
-2.75886
-2.72963
-2.6908
-2.64245
-2.58462
-2.51725
-2.44015
-2.35298
-2.25522
-2.14582
-2.02108
-1.86031
-1.53408
-2.7556
-2.74549
-2.72534
-2.69526
-2.65539
-2.60594
-2.54713
-2.47923
-2.40257
-2.3177
-2.22555
-2.12795
-2.0283
-1.9329
-1.85551
-2.73003
-2.71958
-2.69875
-2.6677
-2.62666
-2.57595
-2.51598
-2.44731
-2.37073
-2.28748
-2.19969
-2.11151
-2.03258
-1.99295
-2.12296
-2.71174
-2.70088
-2.67927
-2.6471
-2.60467
-2.55241
-2.4909
-2.42091
-2.34355
-2.26043
-2.17413
-2.08868
-2.00958
-1.93514
-1.77776
-2.70101
-2.68968
-2.66715
-2.63364
-2.58953
-2.53532
-2.47172
-2.39965
-2.32037
-2.23563
-2.14799
-2.06145
-1.98337
-1.93489
-2.02574
-2.69816
-2.68629
-2.66266
-2.62756
-2.58141
-2.52478
-2.45845
-2.38342
-2.301
-2.21285
-2.12111
-2.02838
-1.93663
-1.83784
-1.64261
-2.70359
-2.69107
-2.66617
-2.62919
-2.58058
-2.52099
-2.45123
-2.37235
-2.28564
-2.19259
-2.09494
-1.99465
-1.89479
-1.80772
-1.81767
-2.71773
-2.70446
-2.67808
-2.6389
-2.58741
-2.52427
-2.45036
-2.36674
-2.27468
-2.17555
-2.07063
-1.96064
-1.84411
-1.71017
-1.49375
-2.74109
-2.72698
-2.6989
-2.65719
-2.60234
-2.53506
-2.45625
-2.36702
-2.26866
-2.16254
-2.04987
-1.93118
-1.80553
-1.66984
-1.52503
-2.77429
-2.7592
-2.7292
-2.68461
-2.62593
-2.55388
-2.46939
-2.37365
-2.26804
-2.15411
-2.0333
-1.90658
-1.77394
-1.63582
-1.51192
-2.81797
-2.80181
-2.76966
-2.72183
-2.65882
-2.58134
-2.49037
-2.38715
-2.27323
-2.15046
-2.02085
-1.88611
-1.74617
-1.59188
-1.35621
-2.87288
-2.85555
-2.82102
-2.7696
-2.70177
-2.6182
-2.51988
-2.40809
-2.28457
-2.15159
-2.01198
-1.86925
-1.7284
-1.6044
-1.59109
-2.93985
-2.92124
-2.88413
-2.82879
-2.75565
-2.66533
-2.55874
-2.43718
-2.30251
-2.15733
-2.0053
-1.8511
-1.69894
-1.54001
-1.26215
-3.01976
-2.99978
-2.95991
-2.90037
-2.82148
-2.72377
-2.60802
-2.47541
-2.32774
-2.16785
-2.00013
-1.83156
-1.67418
-1.55817
-1.62937
-3.11357
-3.09215
-3.04938
-2.98538
-2.9004
-2.79476
-2.66903
-2.5241
-2.36149
-2.18381
-1.99556
-1.80427
-1.62071
-1.4463
-1.15662
-3.22226
-3.19936
-3.15359
-3.085
-2.99366
-2.87971
-2.74337
-2.58508
-2.40572
-2.20713
-1.99312
-1.77161
-1.56091
-1.41443
-1.54769
-3.34687
-3.32247
-3.27367
-3.20042
-3.10265
-2.98023
-2.83298
-2.6607
-2.46331
-2.24119
-1.99589
-1.73145
-1.45653
-1.18825
-0.966042
-3.48843
-3.46255
-3.41073
-3.33288
-3.22876
-3.09801
-2.93999
-2.75377
-2.53808
-2.29134
-2.01198
-1.69859
-1.34754
-0.930057
-0.229946
-3.64798
-3.62064
-3.56589
-3.48359
-3.37339
-3.23472
-3.06658
-2.86733
-2.63442
-2.36417
-2.0517
-1.69189
-1.28471
-0.868101
-0.750717
-3.82652
-3.79777
-3.74021
-3.65367
-3.5378
-3.39192
-3.2148
-3.00427
-2.75671
-2.46632
-2.12431
-1.7181
-1.22843
-0.598324
0.553338
-4.02504
-3.99493
-3.93467
-3.84413
-3.72306
-3.57083
-3.38623
-3.16694
-2.90875
-2.60433
-2.24152
-1.80228
-1.26968
-0.690712
-0.620703
-4.24449
-4.21304
-4.15015
-4.05582
-3.92996
-3.77223
-3.58175
-3.35663
-3.09291
-2.7829
-2.41182
-1.9513
-1.34314
-0.429632
1.53197
-4.48578
-4.45298
-4.38748
-4.28942
-4.15901
-3.99637
-3.80136
-3.57312
-3.30923
-3.0039
-2.64424
-2.20287
-1.62867
-0.896367
-0.720347
-4.74986
-4.71565
-4.64741
-4.54549
-4.41044
-4.243
-4.04404
-3.81439
-3.55435
-3.26262
-2.93341
-2.54669
-2.024
-0.97677
2.91699
-5.0377
-5.00197
-4.93075
-4.82459
-4.68438
-4.51152
-4.30805
-4.07676
-3.82147
-3.54738
-3.26252
-2.98494
-2.78359
-3.03391
-6.12029
-5.35037
-5.31294
-5.23837
-5.12733
-4.981
-4.80133
-4.59137
-4.35581
-4.10166
-3.83963
-3.58659
-3.37025
-3.22955
-3.12154
-1.92211
-5.68904
-5.6497
-5.57132
-5.45458
-5.30077
-5.11216
-4.8925
-4.64777
-4.38734
-4.12563
-3.88517
-3.70304
-3.6528
-3.96707
-5.9347
-6.05503
-6.01359
-5.93092
-5.80758
-5.64473
-5.44457
-5.21103
-4.95065
-4.6739
-4.3969
-4.14326
-3.94425
-3.82292
-3.66443
-2.26986
-6.44981
-6.40611
-6.31877
-6.18802
-6.01459
-5.80018
-5.54821
-5.26489
-4.96065
-4.65193
-4.36341
-4.13153
-4.01886
-4.22014
-5.90467
-6.87494
-6.82895
-6.73677
-6.59811
-6.41292
-6.18187
-5.90716
-5.59367
-5.25052
-4.89295
-4.54423
-4.23602
-3.99677
-3.74582
-2.44108
-7.33201
-7.28388
-7.18705
-7.04052
-6.8431
-6.59388
-6.29305
-5.94306
-5.55041
-5.12781
-4.69694
-4.29261
-3.98281
-4.00327
-5.62347
-7.82251
-7.77263
-7.67186
-7.51828
-7.30925
-7.04174
-6.71308
-6.32209
-5.87108
-5.36844
-4.83121
-4.28356
-3.73952
-3.14977
-2.37885
-8.34766
-8.29672
-8.19333
-8.03456
-7.81601
-7.53208
-7.17639
-6.74282
-6.22761
-5.63308
-4.97273
-4.272
-3.52797
-2.42207
1.40117
-8.9082
-8.85722
-8.75329
-8.59235
-8.36819
-8.07226
-7.69378
-7.22023
-6.63923
-5.94344
-5.14229
-4.29052
-3.56772
-3.58141
-6.95896
-9.50414
-9.45451
-9.35282
-9.19405
-8.9702
-8.66978
-8.2772
-7.77226
-7.13058
-6.32697
-5.34701
-4.21948
-3.09602
-2.40472
-2.86935
-10.1345
-10.088
-9.99201
-9.84095
-9.62538
-9.3313
-8.93865
-8.41925
-7.73438
-6.83297
-5.65421
-4.14562
-2.32421
-0.425291
0.897628
-10.7973
-10.7557
-10.6695
-10.5327
-10.3351
-10.0613
-9.68813
-9.18115
-8.48855
-7.53159
-6.19045
-4.28898
-1.60624
1.95415
5.58334
-11.489
-11.4543
-11.3821
-11.2665
-11.0977
-10.8603
-10.5305
-10.072
-9.42631
-8.49699
-7.11582
-4.97491
-1.49775
4.28582
12.7894
-12.2048
-12.179
-12.1249
-12.0374
-11.9081
-11.7233
-11.4624
-11.0927
-10.5611
-9.77617
-8.56879
-6.58877
-2.99094
4.72862
25.9006
-146.59
-88.0677
-61.5501
-48.8783
-42.0908
-38.037
-35.4032
-33.5875
-32.2861
-31.3325
-30.6295
-30.1176
-29.7595
-29.532
-29.4214
-182.393
-82.4056
-54.6666
-43.9725
-38.6077
-35.4207
-33.3233
-31.8538
-30.7845
-29.9909
-29.3999
-28.9662
-28.6611
-28.4665
-28.3716
47.0977
-26.571
-35.9464
-35.3658
-33.6122
-32.0476
-30.8075
-29.8422
-29.0913
-28.5086
-28.0611
-27.7255
-27.4859
-27.3316
-27.256
-6.9817
-15.3846
-24.1401
-27.5738
-28.4854
-28.4492
-28.1008
-27.6816
-27.2814
-26.9326
-26.6445
-26.4181
-26.2514
-26.142
-26.0879
26.0477
-3.95321
-16.0295
-21.5332
-24.0167
-25.0676
-25.4434
-25.5076
-25.436
-25.3143
-25.185
-25.0692
-24.9773
-24.9141
-24.8822
-1.36235
-4.96948
-12.4833
-17.5899
-20.543
-22.1548
-23.0023
-23.4281
-23.6253
-23.7013
-23.7162
-23.7038
-23.683
-23.6646
-23.6542
11.5774
-3.27279
-10.6086
-15.1422
-18.0008
-19.7726
-20.8542
-21.5074
-21.8986
-22.1306
-22.2663
-22.3441
-22.3872
-22.4096
-22.4191
-3.01507
-6.7944
-10.6799
-13.8577
-16.2132
-17.8699
-19.0034
-19.7687
-20.2826
-20.6269
-20.8567
-21.0085
-21.1058
-21.1636
-21.1905
-14.9829
-10.2423
-11.2425
-13.1444
-14.9108
-16.3305
-17.4083
-18.2046