/*--------------------------------*- C++ -*----------------------------------*\
| =========                 |                                                 |
| \\      /  F ield         | OpenFOAM: The Open Source CFD Toolbox           |
|  \\    /   O peration     | Version:  5.x                                   |
|   \\  /    A nd           | Web:      www.OpenFOAM.org                      |
|    \\/     M anipulation  |                                                 |
\*---------------------------------------------------------------------------*/
FoamFile
{
    version     2.0;
    format      ascii;
    class       volScalarField;
    location    "8.7";
    object      T;
}
// * * * * * * * * * * * * * * * * * * * * * * * * * * * * * * * * * * * * * //

dimensions      [0 0 0 1 0 0 0];

internalField   nonuniform List<scalar> 
6300
(
322.841
322.522
322.202
321.88
321.556
321.229
320.898
320.563
320.223
319.878
319.527
319.171
318.808
318.44
318.066
322.841
322.523
322.204
321.883
321.559
321.233
320.902
320.568
320.228
319.883
319.533
319.177
318.814
318.446
318.071
322.842
322.525
322.207
321.888
321.566
321.24
320.911
320.577
320.239
319.895
319.545
319.189
318.826
318.458
318.083
322.843
322.528
322.213
321.895
321.575
321.252
320.924
320.592
320.255
319.912
319.563
319.207
318.845
318.476
318.1
322.844
322.533
322.22
321.905
321.588
321.267
320.942
320.612
320.276
319.935
319.587
319.232
318.87
318.5
318.124
322.846
322.538
322.229
321.918
321.604
321.286
320.964
320.637
320.304
319.965
319.618
319.264
318.902
318.532
318.154
322.848
322.545
322.24
321.933
321.624
321.31
320.992
320.669
320.339
320.002
319.657
319.304
318.942
318.571
318.191
322.851
322.553
322.253
321.952
321.647
321.339
321.025
320.706
320.38
320.047
319.704
319.353
318.991
318.619
318.237
322.854
322.562
322.269
321.973
321.675
321.372
321.064
320.75
320.429
320.1
319.761
319.411
319.05
318.677
318.291
322.858
322.573
322.286
321.998
321.706
321.41
321.109
320.802
320.487
320.163
319.828
319.482
319.121
318.747
318.357
322.862
322.584
322.306
322.025
321.741
321.454
321.161
320.861
320.554
320.237
319.908
319.565
319.207
318.832
318.437
322.866
322.597
322.327
322.056
321.781
321.502
321.219
320.929
320.63
320.322
320.001
319.665
319.311
318.935
318.536
322.871
322.611
322.351
322.089
321.825
321.556
321.283
321.004
320.717
320.42
320.109
319.783
319.435
319.063
318.661
322.876
322.627
322.377
322.125
321.872
321.615
321.354
321.087
320.813
320.53
320.234
319.921
319.585
319.219
318.821
322.881
322.643
322.404
322.164
321.922
321.677
321.43
321.178
320.92
320.654
320.376
320.082
319.763
319.409
319.017
317.717
317.397
317.073
316.746
316.415
316.082
315.746
315.407
315.066
314.724
314.379
314.033
313.685
313.336
312.987
312.637
312.286
311.935
311.584
311.234
310.884
310.533
310.184
309.835
309.486
309.138
308.79
308.442
308.096
307.75
307.404
307.06
306.716
306.374
306.032
305.691
305.352
305.014
304.676
304.339
304.004
303.669
303.335
303.002
302.67
302.339
302.009
301.68
301.352
301.026
300.7
300.376
300.053
299.73
299.409
299.088
298.769
298.45
298.133
297.816
297.5
297.185
296.871
296.558
296.246
295.935
295.625
295.316
295.008
294.701
294.394
294.088
293.783
293.478
293.174
292.871
292.568
292.266
291.965
291.664
291.363
291.062
290.762
290.462
290.161
289.86
289.558
289.255
288.951
288.647
317.723
317.402
317.078
316.75
316.419
316.086
315.749
315.41
315.069
314.726
314.381
314.035
313.687
313.338
312.988
312.637
312.286
311.935
311.584
311.233
310.883
310.533
310.183
309.834
309.485
309.137
308.789
308.441
308.095
307.748
307.403
307.058
306.715
306.372
306.031
305.69
305.351
305.012
304.675
304.338
304.003
303.668
303.334
303.001
302.669
302.338
302.007
301.678
301.351
301.024
300.699
300.374
300.051
299.729
299.408
299.087
298.768
298.449
298.131
297.814
297.498
297.183
296.869
296.556
296.245
295.934
295.624
295.315
295.007
294.7
294.393
294.087
293.782
293.478
293.174
292.87
292.568
292.265
291.964
291.663
291.363
291.062
290.762
290.462
290.162
289.861
289.559
289.256
288.953
288.648
317.734
317.412
317.087
316.759
316.428
316.093
315.756
315.417
315.075
314.731
314.386
314.039
313.69
313.34
312.989
312.638
312.287
311.935
311.584
311.233
310.882
310.532
310.182
309.833
309.484
309.135
308.787
308.44
308.093
307.746
307.401
307.056
306.712
306.369
306.027
305.687
305.348
305.009
304.672
304.336
304
303.665
303.331
302.998
302.666
302.335
302.004
301.675
301.347
301.021
300.695
300.371
300.048
299.726
299.405
299.085
298.765
298.447
298.129
297.812
297.496
297.18
296.866
296.553
296.242
295.931
295.621
295.313
295.005
294.698
294.391
294.086
293.78
293.476
293.172
292.868
292.566
292.264
291.962
291.662
291.362
291.062
290.763
290.463
290.163
289.863
289.561
289.259
288.955
288.651
317.75
317.428
317.102
316.773
316.44
316.105
315.767
315.427
315.084
314.739
314.393
314.044
313.695
313.344
312.992
312.64
312.287
311.935
311.583
311.231
310.88
310.53
310.18
309.831
309.482
309.133
308.785
308.437
308.09
307.743
307.397
307.052
306.707
306.364
306.023
305.682
305.343
305.005
304.668
304.332
303.996
303.662
303.327
302.994
302.662
302.33
301.999
301.67
301.342
301.016
300.69
300.366
300.044
299.722
299.401
299.081
298.762
298.443
298.125
297.808
297.491
297.176
296.862
296.549
296.237
295.927
295.617
295.309
295.001
294.695
294.388
294.083
293.778
293.473
293.169
292.866
292.563
292.261
291.96
291.66
291.36
291.062
290.763
290.464
290.165
289.866
289.565
289.263
288.96
288.655
317.772
317.449
317.122
316.791
316.457
316.12
315.781
315.439
315.096
314.75
314.402
314.053
313.701
313.349
312.995
312.642
312.288
311.934
311.581
311.229
310.878
310.527
310.178
309.828
309.48
309.131
308.783
308.434
308.086
307.739
307.392
307.046
306.701
306.358
306.016
305.676
305.337
304.999
304.663
304.327
303.992
303.657
303.323
302.989
302.656
302.324
301.993
301.663
301.335
301.008
300.684
300.36
300.038
299.717
299.396
299.076
298.757
298.438
298.12
297.802
297.486
297.17
296.855
296.542
296.231
295.92
295.612
295.304
294.997
294.691
294.385
294.079
293.774
293.47
293.165
292.862
292.559
292.257
291.956
291.657
291.358
291.061
290.763
290.466
290.169
289.87
289.571
289.269
288.966
288.661
317.801
317.476
317.146
316.813
316.478
316.139
315.798
315.456
315.111
314.763
314.414
314.063
313.71
313.355
312.999
312.643
312.288
311.932
311.578
311.225
310.874
310.523
310.174
309.825
309.477
309.128
308.78
308.431
308.082
307.733
307.385
307.038
306.693
306.349
306.007
305.667
305.329
304.992
304.656
304.321
303.986
303.652
303.317
302.983
302.649
302.316
301.984
301.654
301.326
300.999
300.675
300.352
300.03
299.71
299.39
299.071
298.752
298.433
298.114
297.796
297.478
297.162
296.847
296.534
296.222
295.913
295.604
295.297
294.991
294.686
294.381
294.076
293.77
293.465
293.161
292.857
292.553
292.252
291.951
291.652
291.355
291.059
290.764
290.469
290.173
289.877
289.579
289.278
288.976
288.67
317.836
317.508
317.176
316.84
316.502
316.161
315.819
315.475
315.128
314.78
314.429
314.076
313.72
313.363
313.004
312.645
312.287
311.929
311.573
311.22
310.868
310.518
310.17
309.822
309.474
309.126
308.777
308.428
308.077
307.727
307.377
307.029
306.682
306.338
305.996
305.657
305.319
304.984
304.649
304.315
303.981
303.646
303.311
302.976
302.641
302.306
301.973
301.642
301.313
300.987
300.663
300.341
300.021
299.702
299.384
299.065
298.746
298.427
298.108
297.788
297.469
297.152
296.836
296.523
296.211
295.902
295.595
295.29
294.985
294.681
294.377
294.072
293.766
293.461
293.155
292.85
292.546
292.244
291.944
291.646
291.35
291.056
290.764
290.471
290.179
289.885
289.59
289.291
288.989
288.683
317.878
317.546
317.21
316.871
316.529
316.186
315.842
315.497
315.149
314.8
314.447
314.092
313.733
313.372
313.009
312.646
312.284
311.923
311.566
311.211
310.86
310.511
310.165
309.818
309.472
309.125
308.776
308.425
308.073
307.72
307.368
307.017
306.668
306.323
305.981
305.643
305.307
304.973
304.641
304.309
303.976
303.641
303.306
302.969
302.632
302.295
301.96
301.627
301.298
300.971
300.649
300.329
300.011
299.694
299.377
299.06
298.742
298.422
298.101
297.78
297.459
297.139
296.822
296.508
296.197
295.89
295.584
295.281
294.979
294.676
294.373
294.069
293.763
293.456
293.149
292.842
292.536
292.233
291.933
291.636
291.342
291.052
290.763
290.475
290.187
289.897
289.605
289.308
289.007
288.701
317.928
317.591
317.249
316.905
316.559
316.213
315.867
315.521
315.174
314.824
314.47
314.112
313.75
313.384
313.015
312.646
312.278
311.914
311.553
311.198
310.848
310.502
310.158
309.815
309.472
309.126
308.777
308.425
308.07
307.713
307.356
307.001
306.649
306.303
305.961
305.624
305.292
304.962
304.633
304.304
303.972
303.639
303.302
302.962
302.622
302.281
301.942
301.607
301.277
300.951
300.63
300.313
299.999
299.686
299.372
299.057
298.739
298.418
298.095
297.77
297.446
297.123
296.804
296.489
296.179
295.873
295.571
295.271
294.972
294.672
294.371
294.067
293.761
293.452
293.142
292.832
292.523
292.218
291.918
291.622
291.331
291.044
290.76
290.478
290.196
289.913
289.626
289.333
289.033
288.726
317.987
317.643
317.293
316.94
316.589
316.24
315.893
315.548
315.202
314.853
314.499
314.139
313.772
313.399
313.022
312.644
312.268
311.897
311.534
311.179
310.831
310.489
310.15
309.813
309.474
309.131
308.783
308.428
308.069
307.705
307.341
306.98
306.624
306.275
305.934
305.601
305.273
304.948
304.625
304.301
303.973
303.64
303.302
302.958
302.612
302.265
301.92
301.581
301.249
300.924
300.606
300.294
299.985
299.678
299.369
299.057
298.74
298.418
298.091
297.761
297.431
297.103
296.78
296.463
296.154
295.851
295.553
295.259
294.966
294.671
294.373
294.07
293.763
293.45
293.135
292.819
292.506
292.197
291.895
291.601
291.313
291.032
290.755
290.482
290.209
289.934
289.654
289.367
289.07
288.762
318.058
317.703
317.339
316.975
316.615
316.263
315.917
315.575
315.234
314.89
314.538
314.176
313.804
313.421
313.031
312.638
312.25
311.87
311.503
311.148
310.805
310.47
310.141
309.813
309.482
309.144
308.797
308.44
308.073
307.699
307.323
306.951
306.588
306.237
305.897
305.568
305.248
304.934
304.62
304.303
303.981
303.649
303.308
302.958
302.602
302.244
301.89
301.545
301.21
300.887
300.574
300.269
299.97
299.672
299.37
299.063
298.748
298.424
298.091
297.752
297.412
297.075
296.746
296.427
296.12
295.822
295.531
295.246
294.962
294.674
294.381
294.08
293.771
293.453
293.129
292.803
292.481
292.166
291.862
291.569
291.287
291.013
290.747
290.484
290.224
289.961
289.694
289.416
289.124
288.814
318.146
317.773
317.387
317.004
316.632
316.276
315.934
315.602
315.272
314.937
314.59
314.229
313.85
313.453
313.043
312.626
312.218
311.826
311.454
311.101
310.766
310.444
310.13
309.818
309.5
309.171
308.826
308.465
308.087
307.696
307.299
306.91
306.536
306.181
305.844
305.524
305.216
304.917
304.619
304.315
304.001
303.672
303.328
302.968
302.596
302.218
301.848
301.492
301.155
300.834
300.53
300.238
299.953
299.67
299.381
299.082
298.77
298.443
298.1
297.746
297.387
297.036
296.697
296.376
296.071
295.781
295.503
295.232
294.962
294.686
294.401
294.103
293.791
293.463
293.125
292.782
292.445
292.121
291.813
291.522
291.247
290.984
290.732
290.485
290.24
289.996
289.748
289.486
289.203
288.891
318.26
317.862
317.431
317.016
316.625
316.268
315.936
315.625
315.318
314.999
314.665
314.306
313.921
313.504
313.063
312.603
312.165
311.753
311.377
311.028
310.707
310.405
310.118
309.832
309.534
309.219
308.879
308.515
308.119
307.701
307.264
306.847
306.456
306.098
305.766
305.46
305.173
304.899
304.626
304.341
304.041
303.717
303.371
302.995
302.597
302.181
301.786
301.414
301.074
300.759
300.469
300.195
299.935
299.676
299.405
299.12
298.812
298.483
298.126
297.748
297.353
296.977
296.624
296.301
296
295.724
295.464
295.216
294.969
294.711
294.44
294.146
293.832
293.491
293.129
292.751
292.39
292.051
291.741
291.453
291.189
290.941
290.709
290.482
290.256
290.038
289.82
289.588
289.325
289.012
318.424
317.997
317.452
316.992
316.57
316.226
315.909
315.641
315.379
315.084
314.777
314.418
314.04
313.59
313.111
312.548
312.072
311.63
311.261
310.915
310.622
310.345
310.104
309.864
309.59
309.303
308.966
308.61
308.185
307.732
307.199
306.748
306.329
305.979
305.651
305.372
305.108
304.879
304.65
304.39
304.116
303.796
303.457
303.053
302.622
302.116
301.689
301.291
300.959
300.647
300.383
300.133
299.915
299.698
299.45
299.191
298.886
298.565
298.181
297.772
297.292
296.886
296.507
296.192
295.896
295.644
295.406
295.199
294.992
294.757
294.509
294.22
293.913
293.547
293.156
292.695
292.305
291.941
291.636
291.35
291.107
290.876
290.676
290.479
290.262
290.079
289.912
289.736
289.517
289.214
318.68
318.299
317.349
316.913
316.405
316.141
315.813
315.649
315.49
315.187
314.962
314.559
314.262
313.719
313.28
312.367
311.932
311.399
311.112
310.726
310.513
310.233
310.089
309.944
309.667
309.458
309.082
308.804
308.292
307.878
307.016
306.605
306.101
305.828
305.463
305.261
304.996
304.858
304.721
304.457
304.258
303.9
303.636
303.149
302.756
301.939
301.549
301.072
300.814
300.468
300.277
300.025
299.894
299.764
299.514
299.325
298.986
298.735
298.273
297.9
297.124
296.754
296.301
296.055
295.727
295.545
295.305
295.181
295.057
294.819
294.64
294.318
294.079
293.639
293.282
292.538
292.182
291.744
291.506
291.185
291.006
290.766
290.641
290.505
290.217
290.096
290.02
289.943
289.832
289.604
288.311
287.943
287.575
287.206
286.836
286.467
286.099
285.731
285.364
284.998
284.633
284.269
283.906
283.543
283.181
288.312
287.944
287.575
287.206
286.836
286.467
286.098
285.73
285.363
284.997
284.632
284.268
283.905
283.543
283.181
288.314
287.946
287.576
287.206
286.836
286.466
286.096
285.728
285.361
284.995
284.63
284.266
283.904
283.542
283.181
288.318
287.949
287.578
287.207
286.835
286.464
286.094
285.725
285.357
284.991
284.627
284.264
283.902
283.541
283.18
288.324
287.953
287.581
287.208
286.834
286.462
286.09
285.72
285.352
284.986
284.622
284.26
283.899
283.539
283.18
288.332
287.959
287.584
287.209
286.833
286.458
286.085
285.714
285.345
284.979
284.616
284.254
283.895
283.536
283.179
288.343
287.967
287.589
287.209
286.83
286.452
286.077
285.705
285.336
284.97
284.607
284.247
283.889
283.533
283.178
288.358
287.979
287.595
287.21
286.826
286.444
286.066
285.693
285.323
284.958
284.597
284.238
283.883
283.529
283.176
288.38
287.994
287.602
287.21
286.819
286.433
286.051
285.676
285.306
284.942
284.582
284.227
283.874
283.523
283.174
288.41
288.014
287.611
287.208
286.808
286.416
286.031
285.654
285.284
284.921
284.564
284.212
283.863
283.517
283.172
288.453
288.04
287.62
287.202
286.791
286.391
286.002
285.624
285.255
284.895
284.541
284.193
283.85
283.509
283.169
288.514
288.075
287.628
287.188
286.763
286.355
285.962
285.584
285.218
284.862
284.513
284.171
283.833
283.499
283.166
288.604
288.116
287.628
287.16
286.718
286.302
285.909
285.533
285.171
284.821
284.479
284.144
283.814
283.487
283.162
288.739
288.159
287.607
287.104
286.648
286.228
285.837
285.467
285.113
284.771
284.438
284.112
283.791
283.473
283.158
288.933
288.174
287.537
287.003
286.541
286.126
285.744
285.385
285.042
284.712
284.39
284.075
283.765
283.458
283.152
322.886
322.658
322.43
322.201
321.97
321.738
321.504
321.266
321.025
320.777
320.522
320.252
319.959
319.616
319.171
322.891
322.673
322.454
322.235
322.015
321.795
321.573
321.349
321.124
320.896
320.663
320.424
320.17
319.875
319.431
322.896
322.687
322.479
322.27
322.061
321.852
321.643
321.434
321.225
321.017
320.81
320.606
320.409
320.237
320.175
322.901
322.702
322.503
322.305
322.107
321.909
321.713
321.518
321.326
321.137
320.955
320.783
320.632
320.52
320.478
322.905
322.716
322.528
322.339
322.152
321.966
321.782
321.601
321.424
321.253
321.092
320.946
320.827
320.755
320.775
322.91
322.731
322.552
322.374
322.197
322.022
321.849
321.681
321.518
321.362
321.218
321.09
320.989
320.927
320.913
322.915
322.745
322.575
322.407
322.24
322.075
321.914
321.757
321.606
321.463
321.332
321.217
321.125
321.066
321.058
322.919
322.758
322.598
322.439
322.281
322.127
321.976
321.829
321.689
321.556
321.435
321.327
321.237
321.169
321.124
322.924
322.771
322.62
322.469
322.321
322.176
322.034
321.897
321.766
321.642
321.528
321.425
321.334
321.255
321.178
322.928
322.784
322.641
322.499
322.359
322.222
322.089
321.961
321.838
321.722
321.613
321.514
321.424
321.341
321.268
322.932
322.796
322.66
322.527
322.395
322.266
322.141
322.02
321.905
321.796
321.693
321.597
321.507
321.421
321.328
322.936
322.807
322.679
322.553
322.429
322.308
322.19
322.076
321.968
321.865
321.768
321.676
321.589
321.504
321.425
322.939
322.818
322.697
322.578
322.461
322.347
322.236
322.129
322.027
321.93
321.838
321.751
321.668
321.584
321.489
322.942
322.828
322.714
322.601
322.491
322.383
322.279
322.179
322.083
321.992
321.906
321.825
321.747
321.672
321.598
322.946
322.837
322.73
322.623
322.519
322.418
322.319
322.225
322.135
322.05
321.97
321.895
321.826
321.758
321.678
322.949
322.846
322.744
322.644
322.546
322.45
322.357
322.268
322.183
322.104
322.03
321.962
321.903
321.854
321.834
322.951
322.854
322.758
322.663
322.57
322.48
322.392
322.308
322.229
322.154
322.086
322.024
321.971
321.931
321.905
322.954
322.862
322.771
322.681
322.593
322.507
322.425
322.346
322.271
322.2
322.136
322.08
322.032
321.997
321.984
322.956
322.869
322.783
322.698
322.614
322.533
322.455
322.38
322.309
322.243
322.182
322.129
322.084
322.049
322.024
322.959
322.876
322.794
322.713
322.634
322.557
322.483
322.411
322.344
322.281
322.223
322.172
322.128
322.094
322.074
322.961
322.882
322.804
322.728
322.652
322.579
322.508
322.44
322.376
322.315
322.26
322.209
322.165
322.129
322.099
322.963
322.888
322.814
322.741
322.669
322.599
322.532
322.467
322.405
322.347
322.292
322.242
322.198
322.159
322.13
322.964
322.893
322.823
322.753
322.685
322.618
322.553
322.491
322.432
322.375
322.322
322.272
322.226
322.184
322.145
322.966
322.898
322.831
322.765
322.699
322.636
322.574
322.514
322.456
322.401
322.349
322.299
322.252
322.206
322.158
322.968
322.903
322.839
322.775
322.713
322.652
322.592
322.535
322.479
322.425
322.374
322.324
322.276
322.229
322.183
322.969
322.907
322.846
322.785
322.725
322.667
322.61
322.554
322.5
322.448
322.398
322.349
322.3
322.252
322.2
322.97
322.911
322.852
322.794
322.737
322.681
322.626
322.572
322.52
322.47
322.421
322.373
322.325
322.277
322.229
322.972
322.915
322.859
322.803
322.748
322.694
322.641
322.59
322.539
322.491
322.443
322.396
322.35
322.302
322.249
322.973
322.918
322.864
322.811
322.758
322.706
322.655
322.606
322.558
322.511
322.465
322.42
322.375
322.33
322.284
322.974
322.922
322.87
322.818
322.768
322.718
322.669
322.621
322.575
322.53
322.486
322.443
322.401
322.359
322.311
322.975
322.925
322.875
322.825
322.777
322.729
322.682
322.636
322.591
322.548
322.506
322.466
322.427
322.392
322.366
322.976
322.928
322.88
322.832
322.785
322.739
322.694
322.649
322.606
322.565
322.525
322.487
322.451
322.419
322.391
322.977
322.93
322.884
322.838
322.793
322.749
322.705
322.662
322.621
322.581
322.542
322.506
322.473
322.443
322.421
322.978
322.933
322.888
322.844
322.8
322.757
322.715
322.674
322.634
322.596
322.559
322.524
322.492
322.463
322.437
322.978
322.935
322.892
322.85
322.807
322.766
322.725
322.685
322.647
322.609
322.573
322.54
322.508
322.48
322.456
322.979
322.937
322.896
322.855
322.814
322.774
322.734
322.696
322.658
322.622
322.587
322.554
322.522
322.493
322.466
322.98
322.939
322.899
322.859
322.82
322.781
322.743
322.705
322.669
322.633
322.599
322.566
322.535
322.506
322.479
322.98
322.941
322.903
322.864
322.826
322.788
322.751
322.715
322.679
322.644
322.61
322.578
322.546
322.515
322.486
322.981
322.943
322.906
322.868
322.831
322.795
322.758
322.723
322.688
322.654
322.621
322.589
322.557
322.525
322.492
322.982
322.945
322.908
322.872
322.836
322.801
322.766
322.731
322.697
322.664
322.631
322.599
322.567
322.535
322.503
322.982
322.947
322.911
322.876
322.841
322.806
322.772
322.739
322.706
322.673
322.641
322.609
322.577
322.545
322.511
322.983
322.948
322.914
322.879
322.845
322.812
322.779
322.746
322.714
322.682
322.651
322.619
322.588
322.556
322.524
322.983
322.949
322.916
322.883
322.85
322.817
322.785
322.753
322.722
322.691
322.66
322.63
322.599
322.568
322.534
322.984
322.951
322.918
322.886
322.854
322.822
322.79
322.759
322.729
322.699
322.669
322.64
322.611
322.581
322.551
322.984
322.952
322.92
322.889
322.857
322.826
322.796
322.766
322.736
322.707
322.679
322.651
322.623
322.595
322.564
322.984
322.953
322.922
322.891
322.861
322.831
322.801
322.772
322.743
322.715
322.687
322.661
322.635
322.611
322.591
322.985
322.954
322.924
322.894
322.864
322.834
322.805
322.777
322.749
322.722
322.696
322.67
322.646
322.624
322.604
322.985
322.955
322.926
322.896
322.867
322.838
322.81
322.782
322.755
322.729
322.703
322.679
322.656
322.635
322.618
322.985
322.956
322.927
322.898
322.87
322.841
322.814
322.787
322.76
322.735
322.71
322.687
322.665
322.644
322.625
322.986
322.957
322.928
322.9
322.872
322.844
322.817
322.791
322.765
322.74
322.716
322.693
322.672
322.652
322.635
322.986
322.958
322.929
322.902
322.874
322.847
322.82
322.794
322.769
322.745
322.721
322.699
322.678
322.658
322.64
322.986
322.958
322.93
322.903
322.876
322.849
322.823
322.798
322.773
322.749
322.726
322.704
322.683
322.663
322.646
322.986
322.959
322.931
322.904
322.877
322.851
322.825
322.8
322.776
322.752
322.729
322.708
322.687
322.667
322.648
322.986
322.959
322.932
322.905
322.879
322.853
322.827
322.802
322.778
322.755
322.732
322.711
322.69
322.67
322.65
322.986
322.959
322.932
322.906
322.879
322.854
322.828
322.804
322.78
322.757
322.735
322.713
322.693
322.673
322.654
322.986
322.959
322.933
322.906
322.88
322.854
322.829
322.805
322.781
322.759
322.737
322.716
322.695
322.676
322.657
322.986
322.96
322.933
322.906
322.88
322.855
322.83
322.805
322.782
322.759
322.738
322.717
322.697
322.678
322.66
322.986
322.959
322.933
322.906
322.88
322.855
322.83
322.806
322.782
322.76
322.738
322.718
322.698
322.68
322.662
322.986
322.959
322.932
322.906
322.88
322.854
322.829
322.805
322.782
322.759
322.738
322.718
322.699
322.681
322.665
322.986
322.959
322.932
322.905
322.879
322.853
322.828
322.804
322.781
322.758
322.737
322.717
322.699
322.681
322.665
322.986
322.958
322.931
322.904
322.877
322.851
322.826
322.802
322.779
322.757
322.736
322.716
322.697
322.68
322.665
322.986
322.958
322.93
322.902
322.875
322.849
322.824
322.799
322.776
322.754
322.733
322.713
322.695
322.679
322.663
322.986
322.957
322.929
322.901
322.873
322.846
322.821
322.796
322.773
322.75
322.73
322.71
322.692
322.676
322.66
322.985
322.956
322.927
322.898
322.87
322.843
322.817
322.792
322.768
322.746
322.725
322.706
322.688
322.672
322.657
322.985
322.955
322.925
322.896
322.867
322.839
322.812
322.787
322.763
322.74
322.72
322.7
322.683
322.667
322.652
322.984
322.953
322.923
322.892
322.863
322.834
322.807
322.781
322.756
322.734
322.713
322.694
322.677
322.661
322.648
322.984
322.952
322.92
322.889
322.858
322.829
322.801
322.774
322.749
322.726
322.705
322.686
322.669
322.655
322.641
322.983
322.95
322.917
322.884
322.853
322.822
322.793
322.766
322.74
322.716
322.695
322.676
322.661
322.647
322.637
322.983
322.948
322.913
322.879
322.847
322.815
322.785
322.756
322.73
322.705
322.684
322.665
322.65
322.638
322.631
322.982
322.945
322.909
322.874
322.84
322.807
322.775
322.745
322.718
322.693
322.67
322.651
322.636
322.626
322.619
322.981
322.943
322.905
322.868
322.832
322.797
322.764
322.733
322.704
322.678
322.655
322.635
322.62
322.611
322.608
322.98
322.94
322.9
322.861
322.823
322.787
322.752
322.719
322.688
322.661
322.636
322.616
322.6
322.59
322.586
322.979
322.936
322.894
322.853
322.813
322.775
322.738
322.703
322.671
322.641
322.615
322.593
322.576
322.566
322.568
322.978
322.933
322.888
322.845
322.803
322.762
322.723
322.686
322.651
322.62
322.591
322.567
322.547
322.534
322.529
322.976
322.929
322.882
322.836
322.791
322.748
322.706
322.667
322.63
322.596
322.565
322.537
322.514
322.497
322.494
322.975
322.924
322.875
322.826
322.778
322.732
322.688
322.646
322.606
322.57
322.536
322.504
322.476
322.449
322.415
322.973
322.92
322.867
322.815
322.764
322.715
322.668
322.624
322.581
322.542
322.504
322.47
322.437
322.405
322.375
322.972
322.915
322.859
322.803
322.749
322.697
322.647
322.599
322.554
322.512
322.472
322.434
322.398
322.361
322.318
322.97
322.909
322.849
322.791
322.733
322.678
322.624
322.573
322.525
322.48
322.437
322.397
322.359
322.321
322.285
322.968
322.903
322.84
322.777
322.716
322.657
322.6
322.546
322.495
322.446
322.401
322.359
322.319
322.279
322.234
322.966
322.897
322.829
322.762
322.697
322.634
322.573
322.516
322.462
322.411
322.364
322.32
322.279
322.24
322.204
322.963
322.89
322.818
322.746
322.677
322.609
322.545
322.484
322.426
322.373
322.323
322.279
322.238
322.199
322.158
322.961
322.883
322.805
322.729
322.655
322.583
322.514
322.449
322.388
322.331
322.28
322.235
322.195
322.16
322.132
322.958
322.875
322.792
322.711
322.632
322.555
322.481
322.411
322.346
322.287
322.233
322.187
322.148
322.117
322.1
322.955
322.866
322.778
322.691
322.606
322.524
322.445
322.37
322.301
322.237
322.182
322.135
322.096
322.063
322.024
322.952
322.857
322.763
322.67
322.579
322.491
322.406
322.325
322.251
322.183
322.124
322.076
322.04
322.014
321.992
322.949
322.848
322.748
322.648
322.551
322.456
322.364
322.277
322.196
322.122
322.059
322.009
321.976
321.963
321.968
322.946
322.838
322.731
322.625
322.52
322.418
322.319
322.224
322.135
322.054
321.985
321.931
321.899
321.899
321.938
322.943
322.828
322.713
322.6
322.488
322.378
322.271
322.167
322.069
321.979
321.9
321.837
321.8
321.807
321.886
322.939
322.817
322.695
322.574
322.455
322.336
322.22
322.107
321.998
321.896
321.803
321.724
321.671
321.665
321.766
289.138
288.076
287.377
286.845
286.399
286.003
285.638
285.295
284.967
284.649
284.34
284.037
283.738
283.441
283.147
288.763
287.735
287.115
286.641
286.236
285.869
285.527
285.203
284.89
284.587
284.29
283.999
283.711
283.426
283.142
287.284
287.109
286.753
286.39
286.045
285.718
285.404
285.102
284.808
284.52
284.237
283.959
283.683
283.409
283.136
286.702
286.609
286.394
286.127
285.843
285.557
285.274
284.995
284.72
284.449
284.182
283.916
283.653
283.391
283.13
286.152
286.195
286.072
285.874
285.642
285.394
285.14
284.885
284.63
284.377
284.124
283.873
283.623
283.373
283.124
285.902
285.896
285.803
285.646
285.451
285.235
285.008
284.775
284.54
284.303
284.066
283.828
283.592
283.355
283.118
285.644
285.657
285.578
285.444
285.275
285.084
284.88
284.667
284.45
284.229
284.007
283.784
283.56
283.336
283.112
285.528
285.481
285.392
285.267
285.115
284.943
284.757
284.563
284.362
284.157
283.949
283.74
283.529
283.318
283.106
285.435
285.334
285.231
285.109
284.968
284.811
284.641
284.462
284.277
284.087
283.893
283.697
283.499
283.3
283.1
285.276
285.188
285.082
284.964
284.832
284.687
284.531
284.367
284.195
284.019
283.838
283.655
283.469
283.282
283.094
285.173
285.053
284.943
284.829
284.705
284.571
284.427
284.276
284.118
283.954
283.785
283.614
283.44
283.265
283.088
285.003
284.91
284.808
284.7
284.585
284.461
284.329
284.19
284.043
283.891
283.735
283.575
283.413
283.248
283.083
284.893
284.775
284.675
284.576
284.471
284.358
284.237
284.108
283.973
283.832
283.687
283.538
283.386
283.232
283.078
284.707
284.627
284.543
284.456
284.362
284.259
284.149
284.031
283.907
283.777
283.642
283.503
283.361
283.217
283.073
284.572
284.482
284.413
284.34
284.258
284.167
284.067
283.959
283.845
283.724
283.599
283.47
283.337
283.203
283.068
284.31
284.322
284.287
284.231
284.161
284.081
283.99
283.892
283.786
283.675
283.559
283.438
283.315
283.19
283.063
284.192
284.196
284.174
284.131
284.072
284.001
283.919
283.829
283.732
283.629
283.521
283.409
283.294
283.177
283.059
284.064
284.089
284.077
284.042
283.992
283.928
283.854
283.772
283.682
283.587
283.486
283.382
283.275
283.166
283.055
284
284.006
283.995
283.965
283.92
283.862
283.795
283.719
283.636
283.548
283.454
283.357
283.257
283.155
283.052
283.924
283.937
283.926
283.898
283.857
283.804
283.742
283.671
283.594
283.512
283.425
283.334
283.241
283.145
283.048
283.885
283.883
283.869
283.841
283.801
283.752
283.694
283.628
283.556
283.479
283.398
283.313
283.225
283.136
283.045
283.841
283.838
283.821
283.792
283.753
283.706
283.651
283.589
283.522
283.45
283.373
283.294
283.212
283.128
283.043
283.82
283.804
283.781
283.75
283.711
283.665
283.613
283.554
283.491
283.423
283.351
283.276
283.199
283.12
283.04
283.802
283.774
283.746
283.713
283.674
283.629
283.579
283.523
283.463
283.399
283.331
283.26
283.187
283.113
283.038
283.772
283.745
283.714
283.68
283.641
283.597
283.548
283.495
283.438
283.377
283.313
283.246
283.177
283.107
283.036
283.753
283.718
283.685
283.65
283.611
283.568
283.521
283.47
283.415
283.357
283.296
283.233
283.168
283.101
283.034
283.721
283.691
283.658
283.622
283.584
283.542
283.496
283.447
283.395
283.34
283.282
283.221
283.159
283.096
283.032
283.701
283.665
283.632
283.597
283.559
283.518
283.474
283.427
283.377
283.324
283.268
283.211
283.152
283.092
283.031
283.668
283.639
283.607
283.573
283.537
283.497
283.455
283.409
283.361
283.31
283.257
283.202
283.145
283.087
283.029
283.645
283.613
283.583
283.551
283.516
283.478
283.437
283.393
283.346
283.297
283.246
283.193
283.139
283.084
283.028
283.603
283.587
283.561
283.531
283.498
283.461
283.421
283.379
283.334
283.286
283.237
283.186
283.134
283.081
283.027
283.585
283.567
283.543
283.514
283.482
283.446
283.407
283.366
283.322
283.277
283.229
283.18
283.129
283.078
283.026
283.567
283.55
283.527
283.5
283.468
283.433
283.396
283.355
283.313
283.268
283.222
283.174
283.125
283.075
283.025
283.558
283.539
283.515
283.488
283.457
283.422
283.385
283.346
283.304
283.261
283.216
283.169
283.122
283.073
283.024
283.55
283.53
283.506
283.478
283.447
283.413
283.377
283.338
283.298
283.255
283.211
283.165
283.119
283.072
283.024
283.546
283.524
283.499
283.471
283.44
283.406
283.37
283.332
283.292
283.25
283.207
283.162
283.116
283.07
283.023
283.543