/*--------------------------------*- C++ -*----------------------------------*\
| =========                 |                                                 |
| \\      /  F ield         | OpenFOAM: The Open Source CFD Toolbox           |
|  \\    /   O peration     | Version:  5.x                                   |
|   \\  /    A nd           | Web:      www.OpenFOAM.org                      |
|    \\/     M anipulation  |                                                 |
\*---------------------------------------------------------------------------*/
FoamFile
{
    version     2.0;
    format      ascii;
    class       volScalarField;
    location    "7.5999";
    object      gradTy;
}
// * * * * * * * * * * * * * * * * * * * * * * * * * * * * * * * * * * * * * //

dimensions      [0 -1 0 1 0 0 0];

internalField   nonuniform List<scalar> 
6300
(
32284.1
32252.4
32220.5
32188.5
32156.2
32123.6
32090.7
32057.3
32023.4
31989
31954.1
31918.5
31882.4
31845.6
31808.3
0.053469
0.159905
0.264804
0.367031
0.465292
0.558092
0.643717
0.720251
0.785643
0.837829
0.874921
0.895457
0.898688
0.884851
0.855366
0.0896659
0.268202
0.44429
0.616101
0.781526
0.938091
1.08292
1.21274
1.32401
1.41307
1.4765
1.51154
1.51665
1.49201
1.43996
0.12666
0.378949
0.628057
0.871564
1.10663
1.32983
1.53713
1.72381
1.8846
2.01395
2.10647
2.15759
2.16439
2.12659
2.04735
0.164684
0.492878
0.817422
1.13547
1.44358
1.73749
2.01197
2.26075
2.47662
2.65167
2.77785
2.84794
2.85672
2.80259
2.68914
0.203884
0.610456
1.01328
1.40932
1.79473
2.16457
2.51249
2.83062
3.10947
3.33824
3.50533
3.59958
3.61195
3.53792
3.38038
0.244278
0.731781
1.21592
1.69379
2.16146
2.61355
3.0428
3.43974
3.79241
4.08646
4.30566
4.43312
4.45356
4.35677
4.14227
0.285726
0.856465
1.42484
1.98847
2.54377
3.08536
3.60543
4.09313
4.53397
4.90955
5.19771
5.37365
5.41242
5.2933
5.00696
0.327886
0.983518
1.63848
2.29147
2.9398
3.5787
4.20044
4.79336
5.34079
5.82005
6.20197
6.45137
6.52917
6.39707
6.02626
0.370184
1.11124
1.8541
2.59913
3.34525
4.08918
4.82426
5.5391
6.21577
6.82787
7.33876
7.70069
7.85584
7.7396
7.28683
0.411796
1.23715
2.06756
2.90569
3.75291
4.60849
5.46831
6.32299
7.15533
7.93693
8.62451
9.15685
9.45401
9.41884
8.9335
0.451651
1.35799
2.27331
3.20315
4.15221
5.12358
6.1175
7.12923
8.14561
9.14001
10.0656
10.8483
11.3848
11.549
11.189
0.488472
1.46985
2.46453
3.48139
4.52918
5.61611
6.74889
7.93081
9.15788
10.412
11.6495
12.7863
13.689
14.2055
14.2819
0.520863
1.5684
2.63357
3.72871
4.86702
6.06278
7.33115
8.68723
10.1431
11.7006
13.3343
14.9591
16.3814
17.3083
17.8628
0.547439
1.64933
2.77263
3.93284
5.14742
6.43684
7.82568
9.34383
11.0268
12.9129
15.0281
17.3353
19.573
20.7981
18.3966
31773.6
31741.6
31709.3
31676.6
31643.6
31610.3
31576.8
31543
31509
31474.8
31440.4
31405.8
31371.1
31336.3
31301.4
31266.4
31231.4
31196.4
31161.4
31126.4
31091.4
31056.5
31021.6
30986.7
30951.9
30917.1
30882.3
30847.7
30813
30778.4
30743.9
30709.5
30675.2
30641
30606.8
30572.8
30538.9
30505
30471.3
30437.6
30404.1
30370.6
30337.2
30303.9
30270.7
30237.5
30204.5
30171.6
30138.8
30106.1
30073.5
30041
30008.7
29976.4
29944.2
29912.1
29880.1
29848.2
29816.4
29784.6
29753
29721.4
29690
29658.6
29627.3
29596.2
29565.1
29534.2
29503.3
29472.5
29441.8
29411.1
29380.5
29350
29319.5
29289.1
29258.8
29228.5
29198.3
29168.1
29138
29107.9
29077.8
29047.7
29017.6
28987.4
28957.1
28926.8
28896.4
28865.9
0.816387
0.774161
0.727423
0.67839
0.628916
0.580245
0.532876
0.48659
0.440621
0.393946
0.345631
0.295153
0.242642
0.188972
0.135702
0.0848579
0.0385948
-0.00117553
-0.0331343
-0.056802
-0.072641
-0.0819978
-0.0868993
-0.0897388
-0.092904
-0.0984062
-0.107572
-0.120843
-0.13773
-0.156916
-0.17651
-0.194405
-0.208662
-0.217867
-0.221384
-0.219461
-0.213186
-0.204297
-0.194893
-0.187073
-0.182595
-0.182579
-0.187316
-0.196229
-0.207966
-0.220646
-0.232192
-0.240701
-0.244778
-0.243774
-0.237889
-0.228123
-0.216103
-0.203796
-0.193175
-0.18589
-0.182983
-0.184713
-0.190511
-0.199073
-0.208591
-0.217072
-0.222684
-0.22408
-0.220616
-0.212452
-0.200503
-0.186267
-0.171551
-0.158147
-0.147508
-0.140477
-0.137103
-0.136597
-0.137419
-0.137497
-0.134543
-0.12641
-0.111438
-0.0887273
-0.0583108
-0.0212097
0.0206267
0.0644846
0.107134
0.145145
0.175247
0.194694
0.201608
0.195221
1.37138
1.29737
1.21594
1.13126
1.04682
0.964895
0.886282
0.81034
0.735332
0.659007
0.579295
0.494951
0.40603
0.314095
0.222093
0.133923
0.0537797
-0.0146018
-0.0686309
-0.107346
-0.131609
-0.143987
-0.148358
-0.149301
-0.151383
-0.15845
-0.173024
-0.195925
-0.226161
-0.261139
-0.297146
-0.330048
-0.356056
-0.372412
-0.377881
-0.37295
-0.35973
-0.341589
-0.322578
-0.306756
-0.297516
-0.297022
-0.305838
-0.322835
-0.345383
-0.369813
-0.392076
-0.408472
-0.416297
-0.414306
-0.402903
-0.384044
-0.360885
-0.337235
-0.316914
-0.303113
-0.297852
-0.301638
-0.313365
-0.330501
-0.349527
-0.366562
-0.378054
-0.381397
-0.375367
-0.360303
-0.338007
-0.311407
-0.284031
-0.259379
-0.240311
-0.228508
-0.224136
-0.225736
-0.230394
-0.234155
-0.232635
-0.221712
-0.198181
-0.160267
-0.107938
-0.042991
0.0310652
0.109311
0.185861
0.254426
0.308965
0.344372
0.357122
0.345761
1.94319
1.83128
1.70915
1.58383
1.46114
1.3448
1.23587
1.13278
1.03197
0.928981
0.819666
0.701373
0.573795
0.439355
0.303005
0.171471
0.052069
-0.0486524
-0.126136
-0.178656
-0.207644
-0.21746
-0.214704
-0.207172
-0.202636
-0.207632
-0.226435
-0.260389
-0.307713
-0.363826
-0.422198
-0.475566
-0.517292
-0.542579
-0.549298
-0.538318
-0.513306
-0.480077
-0.445613
-0.416902
-0.399787
-0.398
-0.412521
-0.441391
-0.480032
-0.522041
-0.560354
-0.588529
-0.601893
-0.598334
-0.578598
-0.546104
-0.50632
-0.465825
-0.43121
-0.407983
-0.399642
-0.407075
-0.428379
-0.459156
-0.493279
-0.523987
-0.545111
-0.552163
-0.543082
-0.518521
-0.481664
-0.437623
-0.392542
-0.352532
-0.322609
-0.305799
-0.302529
-0.310435
-0.324623
-0.338381
-0.344233
-0.335136
-0.305602
-0.252533
-0.175704
-0.0778605
0.0354991
0.156607
0.27611
0.383927
0.470257
0.526701
0.547375
0.529815
2.5398
2.37988
2.20699
2.03258
1.86629
1.71404
1.57705
1.45192
1.33174
1.20806
1.07297
0.921161
0.751439
0.567362
0.376979
0.191548
0.0234562
-0.116168
-0.219588
-0.283856
-0.311287
-0.309039
-0.287929
-0.260729
-0.240165
-0.236934
-0.258028
-0.305605
-0.376608
-0.463261
-0.554457
-0.637848
-0.702204
-0.739486
-0.746205
-0.723894
-0.678715
-0.620347
-0.560368
-0.510351
-0.479989
-0.475498
-0.498543
-0.545882
-0.609833
-0.679595
-0.743234
-0.789914
-0.811863
-0.805658
-0.772666
-0.718664
-0.65278
-0.58595
-0.529112
-0.491418
-0.478719
-0.492542
-0.529752
-0.582994
-0.641949
-0.695213
-0.732433
-0.746161
-0.733087
-0.694446
-0.635664
-0.565337
-0.493752
-0.431156
-0.386025
-0.363589
-0.364827
-0.386087
-0.41947
-0.453991
-0.477352
-0.477989
-0.44691
-0.379012
-0.273727
-0.135071
0.0287777
0.206216
0.38319
0.544373
0.674588
0.760538
0.792688
0.766915
3.1712
2.94715
2.70699
2.46966
2.25122
2.0613
1.90116
1.7639
1.63657
1.50357
1.35032
1.16675
0.94975
0.704443
0.44382
0.186648
-0.0461548
-0.235823
-0.369424
-0.442104
-0.457676
-0.427783
-0.36993
-0.304738
-0.25274
-0.231213
-0.25149
-0.317092
-0.422974
-0.556161
-0.697962
-0.827547
-0.92611
-0.98041
-0.984923
-0.942409
-0.863122
-0.762947
-0.660783
-0.575504
-0.522946
-0.51335
-0.54959
-0.626459
-0.731272
-0.845976
-0.950542
-1.02692
-1.06238
-1.05156
-0.996997
-0.90834
-0.80061
-0.691693
-0.599453
-0.538869
-0.519608
-0.544337
-0.608045
-0.698613
-0.798816
-0.889549
-0.953585
-0.978759
-0.959909
-0.899379
-0.806292
-0.694864
-0.58202
-0.484633
-0.416759
-0.387292
-0.398295
-0.44428
-0.512679
-0.58567
-0.643196
-0.666509
-0.641235
-0.559327
-0.419805
-0.228557
0.00248832
0.256493
0.513012
0.749412
0.942659
1.07185
1.12141
1.08427
3.85141
3.53759
3.2029
2.87951
2.59508
2.36568
2.19231
2.06155
1.94959
1.82821
1.67133
1.46046
1.18882
0.863572
0.505684
0.146652
-0.177886
-0.436222
-0.606994
-0.682594
-0.669543
-0.586794
-0.462506
-0.329752
-0.221443
-0.165301
-0.179692
-0.270582
-0.430028
-0.636665
-0.859067
-1.06193
-1.21376
-1.29304
-1.29137
-1.21388
-1.07762
-0.90842
-0.736892
-0.59355
-0.504047
-0.485209
-0.542142
-0.666805
-0.838477
-1.02696
-1.19845
-1.32285
-1.37955
-1.36048
-1.27043
-1.12549
-0.95016
-0.773429
-0.624217
-0.526821
-0.497159
-0.540011
-0.647667
-0.800364
-0.969325
-1.12234
-1.2307
-1.27476
-1.24676
-1.15119
-1.00333
-0.826431
-0.648035
-0.495612
-0.392189
-0.352721
-0.381388
-0.470197
-0.599274
-0.73962
-0.858305
-0.924995
-0.917113
-0.822603
-0.640369
-0.379347
-0.0568621
0.303152
0.671807
1.01659
1.30297
1.49782
1.575
1.52166
4.60274
4.15808
3.68254
3.23327
2.85968
2.58938
2.42208
2.33215
2.27614
2.20398
2.07009
1.84166
1.50508
1.0697
0.56919
0.0569746
-0.404957
-0.76272
-0.981617
-1.05075
-0.981782
-0.805628
-0.567281
-0.319573
-0.115035
0.00217228
0.00225604
-0.12536
-0.369137
-0.694476
-1.04832
-1.36978
-1.60592
-1.72223
-1.707
-1.57002
-1.33954
-1.05726
-0.772423
-0.534081
-0.383402
-0.34797
-0.437174
-0.639467
-0.921484
-1.23243
-1.51419
-1.71628
-1.80583
-1.77162
-1.6229
-1.38642
-1.10174
-0.815549
-0.574376
-0.417248
-0.370298
-0.442376
-0.622438
-0.878702
-1.16281
-1.41941
-1.60044
-1.67452
-1.6309
-1.47832
-1.2422
-0.960152
-0.676651
-0.436033
-0.275527
-0.220037
-0.277878
-0.43813
-0.66964
-0.924762
-1.14829
-1.29086
-1.31773
-1.2122
-0.974383
-0.618643
-0.170252
0.337368
0.864977
1.36788
1.7951
2.09325
2.21652
2.13992
5.46523
4.82298
4.12435
3.47806
2.97556
2.66474
2.54042
2.55388
2.62595
2.66864
2.60495
2.37859
1.96363
1.36958
0.649552
-0.10512
-0.782038
-1.2892
-1.57191
-1.61779
-1.44837
-1.11403
-0.685545
-0.247239
0.11712
0.338295
0.368083
0.187125
-0.190805
-0.711244
-1.28424
-1.80051
-2.17063
-2.34088
-2.29794
-2.06082
-1.67608
-1.20979
-0.741015
-0.348389
-0.0968139
-0.0312679
-0.169373
-0.497342
-0.962837
-1.47996
-1.94465
-2.2718
-2.41036
-2.34766
-2.10174
-1.71679
-1.25549
-0.792862
-0.403519
-0.14903
-0.072049
-0.189254
-0.487489
-0.916952
-1.39591
-1.82533
-2.12417
-2.24377
-2.17194
-1.92576
-1.54721
-1.09597
-0.643518
-0.261098
-0.00764321
0.0758412
-0.0268948
-0.303455
-0.706004
-1.1554
-1.55484
-1.82334
-1.909
-1.79229
-1.4782
-0.991353
-0.36893
0.342803
1.09373
1.82814
2.47308
2.94052
3.14584
3.03643
6.51811
5.56901
4.4907
3.51577
2.81546
2.47154
2.46036
2.69119
3.01806
3.28648
3.37407
3.1871
2.68007
1.85085
0.779796
-0.379188
-1.40358
-2.13889
-2.50323
-2.49487
-2.15247
-1.55801
-0.817961
-0.0684314
0.55545
0.950005
1.03737
0.783238
0.19273
-0.652347
-1.60183
-2.44173
-3.02315
-3.26653
-3.1685
-2.76421
-2.13006
-1.36592
-0.599969
0.0404031
0.457641
0.578676
0.371818
-0.157193
-0.929857
-1.80302
-2.57317
-3.09889
-3.30471
-3.18754
-2.78082
-2.15711
-1.41117
-0.664661
-0.0384871
0.374785
0.505817
0.324538
-0.163584
-0.883934
-1.70037
-2.41928
-2.90604
-3.08868
-2.96406
-2.56383
-1.95692
-1.23351
-0.509548
0.0995418
0.504995
0.639874
0.474392
0.0126456
-0.674909
-1.45798
-2.14993
-2.61911
-2.79169
-2.6566
-2.2308
-1.55928
-0.696213
0.291802
1.34627
2.41723
3.40665
4.16523
4.52836
4.3763
7.93164
6.50101
4.70779
3.1577
2.1423
1.79931
2.03184
2.69017
3.49434
4.1647
4.53853
4.45647
3.86048
2.68034
1.03665
-0.847071
-2.44143
-3.52277
-3.97127
-3.85299
-3.21954
-2.21165
-0.964037
0.291298
1.324
2.00405
2.19842
1.86372
0.942832
-0.443112
-2.07726
-3.45516
-4.36246
-4.68384
-4.48012
-3.79858
-2.77126
-1.52466
-0.278107
0.750491
1.43861
1.66077
1.37689
0.533801
-0.752173
-2.27444
-3.55371
-4.38663
-4.66418
-4.4444
-3.77238
-2.77345
-1.56767
-0.363198
0.633107
1.30501
1.53339
1.28017
0.494717
-0.712563
-2.14527
-3.34756
-4.12583
-4.37603
-4.15308
-3.4995
-2.53438
-1.37186
-0.210165
0.753414
1.40726
1.63642
1.4023
0.653908
-0.506273
-1.89176
-3.06581
-3.84198
-4.11742
-3.93952
-3.33721
-2.40305
-1.20342
0.145112
1.57507
3.12374
4.67264
5.95941
6.65274
6.46188
10.0957
7.95615
4.57397
2.0279
0.500574
0.298509
0.990289
2.47918
4.16335
5.46989
6.35949
6.4659
5.88205
4.17733
1.63916
-1.73164
-4.21806
-5.81793
-6.25548
-5.95298
-4.8258
-3.21052
-1.12125
0.971608
2.60036
3.75746
4.12134
3.78828
2.36261
0.123522
-2.9217
-5.14626
-6.5455
-6.85731
-6.4798
-5.33092
-3.72823
-1.68337
0.357596
1.95085
3.09053
3.47155
3.18721
1.86253
-0.234251
-3.09578
-5.17699
-6.47415
-6.7398
-6.35253
-5.23468
-3.68769
-1.7223
0.238006
1.77182
2.87389
3.25446
3.0022
1.76044
-0.21659
-2.92199
-4.88642
-6.10604
-6.34475
-5.96219
-4.88381
-3.39609
-1.50904
0.374502
1.8533
2.92104
3.30011
3.07075
1.88815
-0.0131946
-2.63002
-4.55461
-5.7859
-6.09595
-5.83358
-4.92149
-3.62908
-1.92503
-0.118833
1.63291
3.82994
6.31609
8.60815
10.0504
9.91044
13.9189
11.2113
3.24017
-0.574232
-3.05251
-2.49021
-1.19927
1.98697
5.37611
7.37551
9.30823
9.4693
9.51765
6.8745
3.44064
-3.88974
-7.27133
-9.78687
-9.60536
-9.24052
-7.13494
-4.89193
-1.28363
2.32021
4.5559
6.65309
7.04784
7.28618
4.9537
1.85098
-4.94792
-8.02583
-10.2945
-10.0234
-9.59027
-7.51678
-5.32194
-1.83649
1.63798
3.80435
5.83492
6.2404
6.49562
4.30305
1.3849
-5.04082
-7.92932
-10.0471
-9.75566
-9.31271
-7.31496
-5.20446
-1.86961
1.45334
3.53221
5.48172
5.8868
6.14907
4.08492
1.32823
-4.76573
-7.49781
-9.49877
-9.20811
-8.77328
-6.85758
-4.83284
-1.64116
1.54199
3.54511
5.42652
5.83991
6.11185
4.15737
1.51019
-4.3651
-7.04177
-9.0564
-8.89875
-8.66323
-7.05342
-5.44786
-2.79371
-0.304367
1.04955
4.11979
8.23902
12.4807
15.7263
16.1954
21.2048
22.1104
-4.02088
-5.09055
-10.9847
-6.32864
-6.11822
1.20254
8.59009
9.37712
14.8081
12.635
17.029
10.7103
10.8531
-11.7341
-11.5717
-17.6396
-13.2193
-15.0347
-9.64202
-8.5394
-1.43959
5.63891
6.71089
12.0002
10.1996
14.486
8.65396
8.90089
-12.3323
-12.0708
-17.7006
-13.4231
-15.0628
-9.87739
-8.77416
-1.9738
4.80198
5.85337
10.9194
9.22559
13.3288
7.78837
8.05491
-12.0795
-11.7916
-17.0891
-12.9898
-14.5118
-9.55764
-8.4843
-1.99981
4.46011
5.47888
10.3135
8.72477
12.646
7.40661
7.6787
-11.4506
-11.162
-16.1914
-12.2791
-13.7168
-8.98837
-7.95
-1.761
4.4087
5.41215
10.046
8.58339
12.359
7.42408
7.68203
-10.7062
-10.4823
-15.4549
-11.8137
-13.4718
-9.17921
-8.77659
-3.42508
1.14512
-2.00532
2.89912
9.98566
17.7875
25.4002
29.658
31.6468
71.9501
-47.3635
-2.65276
-34.1067
-3.76456
-21.2757
0.322111
21.309
4.69157
31.2582
6.34419
39.967
5.24169
50.9971
-52.3377
-6.90036
-40.5949
-7.85348
-31.2084
-5.97112
-20.8226
-1.56459
17.6073
2.79317
27.5572
4.5861
36.2569
3.60074
46.8825
-50.669
-7.63202
-39.3727
-8.30169
-30.3633
-6.35932
-20.4299
-2.07539
16.2095
2.12158
25.7385
3.86331
34.0493
2.91196
44.1026
-48.5258
-7.61036
-37.6625
-8.12873
-29.0363
-6.21158
-19.5559
-2.09432
15.3025
1.93107
24.3952
3.62873
32.3345
2.79209
41.9674
-46.0968
-7.16816
-35.7599
-7.6456
-27.5395
-5.80515
-18.4838
-1.8528
14.7151
2.05172
23.4444
3.78413
31.1495
3.21328
40.7046
-43.8485
-6.43951
-34.2574
-7.09726
-26.8494
-5.70322
-19.2316
-2.93121
13.7125
-16.6591
-1.46364
10.7024
23.3666
39.9055
66.5177
28832.2
28795.3
28758.4
28721.4
28684.4
28647.4
28610.4
28573.5
28536.8
28500.1
28463.5
28427.1
28390.7
28354.4
28318.1
0.174066
0.135062
0.0848504
0.0292029
-0.0260109
-0.0756196
-0.115664
-0.143605
-0.158284
-0.15973
-0.148899
-0.127408
-0.0973131
-0.0609341
-0.0207381
0.307678
0.237462
0.147403
0.0481675
-0.049578
-0.136645
-0.206203
-0.254059
-0.278496
-0.279851
-0.260005
-0.221905
-0.169168
-0.105795
-0.0359829
0.469978
0.359721
0.219146
0.0656559
-0.0838109
-0.21517
-0.318434
-0.387924
-0.421784
-0.421166
-0.38936
-0.331036
-0.251657
-0.157093
-0.0533817
0.677261
0.512298
0.303807
0.0791226
-0.13615
-0.321787
-0.464437
-0.557417
-0.599548
-0.593667
-0.545234
-0.46122
-0.349331
-0.217537
-0.0738327
0.951704
0.708405
0.404661
0.0831787
-0.218123
-0.47139
-0.660109
-0.777759
-0.825322
-0.808718
-0.736687
-0.619277
-0.466909
-0.28989
-0.0982449
1.32483
0.964958
0.523255
0.0670557
-0.34813
-0.685538
-0.926849
-1.06819
-1.11526
-1.0792
-0.973518
-0.812291
-0.609138
-0.376869
-0.127501
1.84312
1.30334
0.656345
0.00992069
-0.555911
-0.995782
-1.29356
-1.45287
-1.48834
-1.41929
-1.2659
-1.04723
-0.780481
-0.480947
-0.162392
2.5774
1.74893
0.788867
-0.127805
-0.889651
-1.44811
-1.79874
-1.9614
-1.96593
-1.84371
-1.62355
-1.33025
-0.984609
-0.604044
-0.203512
3.6394
2.32613
0.877993
-0.420353
-1.42677
-2.10828
-2.49188
-2.62804
-2.57027
-2.36607
-2.05433
-1.66561
-1.22366
-0.747108
-0.251123
5.21076
3.0382
0.817331
-1.00483
-2.28879
-3.06635
-3.43246
-3.48862
-3.32103
-2.99598
-2.56208
-2.0542
-1.49731
-0.909603
-0.304995
7.58982
3.79859
0.357958
-2.1275
-3.65721
-4.43587
-4.68299
-4.57295
-4.22923
-3.73473
-3.14382
-2.49181
-1.80176
-1.089
-0.364248
11.2285
4.20837
-1.05659
-4.2059
-5.77667
-6.33691
-6.29067
-5.89096
-5.28819
-4.5699
-3.78665
-2.96746
-2.12891
-1.28039
-0.427243
16.4689
2.86294
-4.58677
-7.86282
-8.90668
-8.84441
-8.25182
-7.41203
-6.46265
-5.47003
-4.4654
-3.46246
-2.46604
-1.47641
-0.491572
20.9274
-4.63878
-12.2906
-13.7519
-13.1428
-11.8822
-10.4602
-9.04268
-7.68035
-6.38215
-5.14245
-3.95095
-2.79637
-1.66765
-0.554202
0.565945
1.70565
2.86932
4.07465
5.34219
6.69715
8.17191
9.80978
11.6707
13.8388
16.4301
19.5815
23.3245
26.8272
24.1609
0.576812
1.73861
2.92551
4.15621
5.45277
6.84281
8.36295
10.0647
12.0245
14.364
17.2923
21.2095
27.0057
37.11
59.8864
0.582
1.75414
2.95128
4.19205
5.49845
6.89811
8.42792
10.1403
12.1146
14.4803
17.4673
21.5302
27.6899
38.6067
62.3983
0.581532
1.75232
2.94675
4.18231
5.47936
6.86302
8.36612
10.034
11.933
14.1651
16.8951
20.3926
25.057
31.1149
35.946
0.575703
1.73407
2.91366
4.12988
5.40012
6.74498
8.18988
9.76733
11.52
13.5043
15.7903
18.4453
21.4511
24.4264
26.0985
0.565041
1.70107
2.85514
4.03993
5.26906
6.55748
7.92158
9.37891
10.9463
12.6339
14.4295
16.256
17.8705
18.6359
16.9932
0.550248
1.65555
2.7753
3.91919
5.09684
6.31741
7.58855
8.91408
10.2889
11.6886
13.0472
14.2143
14.8817
14.5185
12.7091
0.532117
1.59999
2.67869
3.77499
4.89481
6.04223
7.21776
8.41499
9.61438
10.7718
11.7977
12.5195
12.6093
11.4057
7.17978
0.511456
1.53692
2.56985
3.61447
4.67361
5.74752
6.83189
7.9144
8.96896
9.94633
10.7595
11.2635
11.235
10.3916
8.68781
0.48902
1.46867
2.4529
3.44387
4.44215
5.44556
6.44732
7.43322
8.37715
9.23488
9.93599
10.3771
10.4268
9.97494
9.08974
0.465466
1.39723
2.33127
3.26819
4.20713
5.14474
6.07378
6.98117
7.8452
8.63219
9.29306
9.76244
9.96699
9.85922
9.51225
0.441329
1.32423
2.20763
3.09111
3.97304
4.84985
5.71527
6.55922
7.36676
8.11709
8.78309
9.33171
9.72404
9.90959
9.79469
0.417026
1.25087
2.08393
2.91512
3.74249
4.56289
5.37166
6.16255
6.92804
7.66053
8.35465
9.0095
9.62466
10.1686
10.4905
0.392865
1.17806
1.96153
2.74177
3.51678
4.284
5.04048
5.78352
6.51222
7.23062
7.95346
8.71486
9.57473
10.5818
11.4469
0.369077
1.10644
1.84138
2.57206
3.29649
4.01257
4.71862
5.41444
6.10355
6.79763
7.52548
8.35181
9.42255
11.0936
14.3695
0.345837
1.03651
1.72417
2.4067
3.08198
3.74809
4.40386
5.05003
5.69142
6.34119
7.02909
7.81903
8.85348
10.4909
13.8343
0.32329
0.968686
1.61051
2.24636
2.87384
3.49079
4.09578
4.68892
5.27345
5.85828
6.46182
7.11642
7.86565
8.70358
9.14491
0.301563
0.903334
1.50102
2.09183
2.673
3.24181
3.79592
4.33378
4.85527
5.36236
5.85908
6.3481
6.81619
7.19164
7.29024
0.280779
0.84082
1.39628
1.94401
2.48073
3.00302
3.50734
3.99001
4.44708
4.87364
5.26169
5.59431
5.83105
5.87195
5.45632
0.261046
0.781485
1.29692
1.80384
2.29849
2.77671
3.23378
3.664
4.06007
4.41166
4.70276
4.90709
4.98189
4.86928
4.56188
0.242461
0.725627
1.20346
1.67218
2.12764
2.5651
2.97886
3.36171
3.70395
3.99166
4.2041
4.30982
4.26285
4.00187
3.43981
0.225095
0.673471
1.11633
1.54973
1.96929
2.36993
2.74539
3.08763
3.38568
3.62394
3.77953
3.81857
3.69242
3.34353
2.79241
0.208989
0.625145
1.03576
1.43688
1.82409
2.19224
2.535
2.84423
3.10892
3.31361
3.4359
3.44202
3.27666
2.82563
1.72813
0.194146
0.580665
0.961793
1.33369
1.69212
2.03217
2.34789
2.63175
2.87381
3.06051
3.17292
3.18455
3.05927
2.75665
2.30188
0.180535
0.539926
0.894229
1.23986
1.57291
1.88899
2.18289
2.44829
2.67715
2.85898
2.97993
3.02216
2.96503
2.79331
2.51934
0.168088
0.502721
0.832687
1.15475
1.4655
1.76119
2.03769
2.29021
2.51314
2.69971
2.8416
2.92875
2.95036
2.90098
2.80808
0.156713
0.468755
0.776627
1.07751
1.36853
1.64673
1.90912
2.15267
2.37439
2.57147
2.74126
2.88086
2.98497
3.03888
2.99583
0.1463
0.437682
0.72542
1.00712
1.28045
1.54325
1.79364
2.03027
2.25274
2.46216
2.66189
2.85761
3.05442
3.24409
3.37798
0.136732
0.40914
0.678405
0.942528
1.19969
1.44839
1.68771
1.91771
2.14014
2.35959
2.5853
2.83358
3.12884
3.48803
3.79766
0.127898
0.382779
0.634959
0.882772
1.1248
1.36004
1.58824
1.81039
2.0296
2.25267
2.49301
2.77693
3.15884
3.76638
4.95977
0.119697
0.358294
0.594545
0.827035
1.05461
1.27657
1.49297
1.70512
1.91639
2.13374
2.37047
2.65221
3.03214
3.63789
4.84936
0.112049
0.335438
0.556742
0.774708
0.988321
1.19696
1.40065
1.60044
1.79895
2.00135
2.21665
2.45931
2.74861
3.08876
3.32566
0.104892
0.31403
0.521256
0.725404
0.925482
1.12079
1.31105
1.49664
1.67881
1.86
2.04382
2.23402
2.42975
2.61131
2.72127
0.098185
0.293948
0.487907
0.678923
0.865957
1.04811
1.22469
1.3952
1.55935
1.71682
1.86656
2.00489
2.12074
2.18356
2.10859
0.0918994
0.275118
0.4566
0.635207
0.809817
0.979314
1.14254
1.29818
1.44454
1.57901
1.6972
1.79138
1.84853
1.85151
1.80312
0.0860167
0.257493
0.42729
0.594266
0.757227
0.914867
1.06565
1.20761
1.33797
1.45249
1.54453
1.60356
1.61396
1.55512
1.39906
0.0805212
0.241033
0.399938
0.556113
0.708333
0.85518
0.994892
1.1251
1.24239
1.3416
1.41476
1.44952
1.42746
1.32625
1.15563
0.0753942
0.225689
0.374482
0.520707
0.663169
0.800448
0.930733
1.05156
1.15936
1.2488
1.31168
1.33492
1.29592
1.14557
0.724593
0.0706103
0.211386
0.350811
0.487914
0.621603
0.750572
0.873147
0.987057
1.08907
1.17445
1.23611
1.26356
1.2417
1.15284
1.00759
0.066135
0.198023
0.328751
0.457491
0.583317
0.705137
0.821578
0.930821
1.03035
1.11656
1.18431
1.22645
1.23402
1.19925
1.12329
0.0619248
0.185466
0.308073
0.429093
0.547815
0.663438
0.775008
0.881335
0.980865
1.07149
1.1503
1.21334
1.25573
1.27428
1.28049
0.0579289
0.173558
0.288499
0.40229
0.514466
0.624555
0.732081
0.836573
0.93757
1.03463
1.12726
1.21456
1.29402
1.35786
1.38127
0.0540922
0.162128
0.269723
0.376611
0.482569
0.587454
0.691264
0.794239
0.897013
1.00085
1.10792
1.22122
1.34317
1.46954
1.57755
0.0503591
0.151004
0.25144
0.35158
0.451418
0.551101
0.651032
0.752048
0.855718
0.964843
1.08425
1.2219
1.38924
1.59397
1.78186
0.0466774
0.140024
0.233365
0.32676
0.420377
0.514579
0.610049
0.708017
0.810639
0.921695
1.04793
1.20195
1.40937
1.7301
2.33344
0.0430014
0.12905
0.215255
0.301787
0.388933
0.477179
0.567336
0.66076
0.75971
0.868011
0.992323
1.14492
1.35083
1.66997
2.28113
0.039294
0.117968
0.196919
0.27639
0.356729
0.438455
0.52236
0.60967
0.702294
0.803214
0.917077
1.05089
1.21367
1.40708
1.55768
0.0355269
0.106696
0.178223
0.250393
0.323565
0.398221
0.475024
0.554896
0.639123
0.729438
0.827985
0.936749
1.05525
1.17392
1.26604
0.0316804
0.0951759
0.159083
0.223702
0.289375
0.356502
0.425561
0.497104
0.571732
0.649955
0.731807
0.815852
0.896741
0.959207
0.96056
0.0277409
0.0833715
0.13945
0.196282
0.254178
0.313447
0.374377
0.437177
0.501852
0.567959
0.634115
0.697159
0.751031
0.786949
0.805034
0.0236986
0.0712573
0.119297
0.168127
0.218031
0.269244
0.321903
0.375954
0.430987
0.485938
0.538595
0.584845
0.617802
0.627086
0.595076
0.0195447
0.0588104
0.0985977
0.139229
0.180979
0.224043
0.268468
0.314056
0.360186
0.405521
0.447533
0.481774
0.501025
0.495911
0.469906
0.0152689
0.0460028
0.0773149
0.109557
0.143021
0.177902
0.214232
0.251789
0.289946
0.327422
0.361878
0.389125
0.40118
0.379254
0.259849
0.0108575
0.0327951
0.0553893
0.0790401
0.104085
0.13076
0.15915
0.189115
0.220188
0.251432
0.281239
0.307038
0.324946
0.330302
0.327779
0.00629218
0.0191332
0.0327328
0.0475593
0.064021
0.0824336
0.102983
0.125681
0.150321
0.176451
0.203397
0.230442
0.257442
0.286832
0.329756
0.0015493
0.00494612
0.00922713
0.0149474
0.0226078
0.0326302
0.0453318
0.0609068
0.0794295
0.100914
0.125499
0.153892
0.188293
0.233979
0.300087
-0.00340001
-0.00985315
-0.0152749
-0.0190075
-0.0204398
-0.0190268
-0.0143064
-0.00590442
0.00649253
0.0232368
0.0449717
0.0731847
0.111323
0.166961
0.256784
-0.00858952
-0.0253668
-0.0409466
-0.0545552
-0.0654574
-0.0729732
-0.0764925
-0.0754797
-0.0694515
-0.0578928
-0.0400396
-0.0143986
0.0222202
0.0762247
0.156178
-0.0140573
-0.0417102
-0.067984
-0.0919778
-0.112821
-0.129687
-0.141817
-0.148527
-0.149224
-0.143379
-0.130443
-0.109587
-0.0789356
-0.0325089
0.0560576
-0.0198449
-0.0590093
-0.0966014
-0.131584
-0.162939
-0.189684
-0.210895
-0.22574
-0.233526
-0.233776
-0.226329
-0.211557
-0.191024
-0.170479
-0.176649
-0.0259965
-0.0773984
-0.127028
-0.173704
-0.216252
-0.253516
-0.284385
-0.307842
-0.323049
-0.329502
-0.327283
-0.317507
-0.303094
-0.289868
-0.284678
-0.0325578
-0.0970166
-0.159501
-0.218685
-0.273227
-0.321781
-0.363014
-0.395662
-0.418639
-0.431235
-0.433468
-0.426657
-0.414315
-0.403643
-0.410181
-0.0395745
-0.118003
-0.194264
-0.266885
-0.334356
-0.395122
-0.447594
-0.490187
-0.521425
-0.54015
-0.545915
-0.539625
-0.524351
-0.505435
-0.484591
-0.0470904
-0.140494
-0.231552
-0.318657
-0.400133
-0.474214
-0.539024
-0.592586
-0.632887
-0.658049
-0.666717
-0.658814
-0.636894
-0.608539
-0.592241
-0.0551454
-0.164611
-0.271581
-0.374332
-0.471041
-0.559738
-0.638256
-0.704185
-0.75485
-0.787387
-0.79901
-0.787718
-0.753886
-0.703248
-0.64933
-0.063773
-0.190458
-0.314537
-0.434199
-0.547505
-0.652322
-0.746223
-0.826372
-0.88939
-0.931236
-0.9472
-0.932258
-0.88253
-0.800216
-0.709027
-0.0729981
-0.218112
-0.360558
-0.498474
-0.629859
-0.752479
-0.86373
-0.960446
-1.03862
-1.09305
-1.11684
-1.10094
-1.03379
-0.903333
-0.718309
-0.0828348
-0.247618
-0.409721
-0.56728
-0.718294
-0.860523
-0.991323
-1.10738
-1.20433
-1.27611
-1.31403
-1.3052
-1.22899
-1.04433
-0.624907
-0.0932865
-0.278983
-0.462036
-0.640626
-0.812825
-0.976498
-1.12914
-1.26759
-1.38752
-1.48268
-1.54368
-1.55623
-1.4995
-1.34834
-1.10816
-0.104346
-0.312182
-0.517448
-0.718407
-0.913269
-1.10013
-1.27681
-1.44063
-1.58789
-1.71297
-1.80695
-1.85536
-1.83556
-1.71417
-1.43509
-0.115999
-0.347165
-0.575848
-0.800416
-1.01927
-1.23081
-1.43341
-1.62518
-1.80364
-1.96486
-2.10187
-2.20185
-2.24214
-2.18951
-2.03273
-0.128227
-0.383871
-0.637102
-0.886391
-1.13033
-1.36771
-1.59751
-1.81896
-2.03136
-2.23354
-2.42248
-2.58977
-2.71325
-2.73716
-2.51671
-0.141019
-0.422249
-0.701089
-0.976075
-1.24596
-1.50985
-1.7674
-2.01902
-2.26616
-2.5114
-2.75812
-3.00812
-3.25349
-3.45449
-3.51497
-0.154373
-0.462286
-0.767751
-1.0693
-1.36574
-1.6564
-1.9414
-2.22219
-2.50226
-2.78823
-3.09147
-3.42965
-3.82452
-4.26938
-4.50476
-0.168302
-0.504022
-0.837132
-1.16606
-1.48953
-1.80686
-2.11832
-2.42586
-2.73425
-3.05306
-3.40053
-3.81182
-4.36082
-5.22973
-6.98222
-0.182846
-0.547569
-0.909416
-1.2666
-1.61759
-1.96139
-2.29795
-2.62893
-2.95899
-3.29799
-3.66524
-4.09834
-4.67496
-5.57645
-7.30462
-0.198063
-0.593112
-0.984935
-1.37143
-1.75064
-2.12095
-2.48145
-2.83264
-3.1775
-3.52329
-3.88423
-4.28518
-4.76346
-5.34908
-5.90289
-0.214028
-0.640892
-1.06415
-1.48132
-1.88987
-2.2873
-2.67141
-3.04073
-3.39537
-3.73805
-4.07541
-4.4183
-4.77742
-5.14378
-5.43982
-0.230821
-0.691175
-1.14759
-1.5972
-2.03682
-2.46291
-2.87162
-3.25902
-3.62153
-3.95651
-4.26276
-4.54013
-4.78634
-4.98729
-5.09329
-0.248509
-0.744193
-1.23575
-1.72001
-2.19316
-2.65058
-3.08662
-3.49458
-3.8668
-4.1949
-4.47014
-4.68358
-4.82668
-4.89673
-4.92656
-0.267121
-0.800075
-1.32898
-1.85052
-2.36043
-2.8531
-3.32112
-3.75496
-4.14269
-4.47
-4.72043
-4.87587
-4.91773
-4.8341
-4.65521
-0.286628
-0.858767
-1.42732
-1.9891
-2.53967
-3.07272
-3.57934
-4.04734
-4.46054
-4.79848
-5.03667
-5.14704
-5.09591
-4.83761
-4.37657
-0.30691
-0.919947
-1.53036
-2.13547
-2.73108
-3.31068
-3.86439
-4.37778
-4.83065
-5.19622
-5.44166
-5.53034
-5.41796
-4.98191
-3.50773
-0.327737
-0.982947
-1.63708
-2.28843
-2.93361
-3.56662
-4.17743
-4.75025
-5.26138
-5.67736
-5.95552
-6.05325
-5.96477
-5.84713
-6.48698
-0.348746
-1.04669
-1.74574
-2.44566
-3.14459
-3.83796
-4.51684
-5.16554
-5.75817
-6.25421
-6.59467
-6.70548
-6.53183
-6.1863
-6.51523
-0.369439
-1.10968
-1.85379
-2.60356
-3.35943
-4.11936
-4.87721
-5.61977
-6.32203
-6.93908
-7.3933
-7.55523
-7.21824
-6.05708
-3.41578
-0.389185
-1.16997
-1.9579
-2.75724
-3.57144
-4.40222
-5.24817
-6.10198
-6.94505
-7.73704
-8.3949
-8.75145
-8.47697
-6.95574
-3.22623
-0.407251
-1.22531
-2.05407
-2.90061
-3.77193
-4.67453
-5.61368
-6.59164
-7.60355
-8.62812
-9.60573
-10.3859
-10.6015
-9.38793
-4.92762
-0.422843
-1.27323
-2.13788
-3.02678
-3.95068
-4.92144
-5.95224
-7.05773
-8.25325
-9.55181
-10.9537
-12.4123
-13.7185
-14.0748
-10.3755
-0.435168
-1.31125
-2.20484
-3.12863
-4.09691
-5.12665
-6.23894
-7.46128
-8.83137
-10.4038
-12.2622
-14.5445
-17.4953
-21.578
-27.6648
-11.383
-25.9235
-24.498
-20.9246
-17.606
-14.8237
-12.4933
-10.4987
-8.74735
-7.17207
-5.72447
-4.36891
-3.07819
-1.83053
-0.607503
-111.567
-58.191
-37.5681
-27.3807
-21.3064
-17.1759
-14.0966
-11.6427
-9.58638
-7.79477
-6.18458
-4.70018
-3.302
-1.96006
-0.649921
-124.036
-67.7136
-43.3913
-30.9804
-23.6571
-18.798
-15.2656
-12.5106
-10.2416
-8.29148
-6.55735
-4.97156
-3.48676
-2.0675
-0.685186
-68.159
-55.0135
-40.9426
-31.047
-24.2966
-19.4988
-15.8948
-13.0408
-10.6753
-8.6382
-6.82708
-5.1728
-3.62601
-2.14929
-0.712156
-48.1268
-42.9561
-35.5945
-28.9294
-23.58
-19.3705
-16.0031
-13.232
-10.8809
-8.82799
-6.9879
-5.29938
-3.71661
-2.20357
-0.730224
-30.5795
-32.4202
-29.7625
-25.8982
-22.0718
-18.6573
-15.6974
-13.1313
-10.8795
-8.86996
-7.04345
-5.35252
-3.75878
-2.23028
-0.739338
-22.5676
-25.0082
-24.7685
-22.8406
-20.2775
-17.6285
-15.1182
-12.8124
-10.7099
-8.78481
-7.00485
-5.33817
-3.75563
-2.2309
-0.739934
-12.5472
-19.4573
-20.9469
-20.2241
-18.5428
-16.5035
-14.3969
-12.3522
-10.417
-8.59888
-6.88758
-5.26539
-3.71232
-2.20807
-0.732823
-15.1548
-17.6708
-18.6614
-18.2734
-17.0565
-15.4253
-13.6325
-11.816
-10.0427
-8.33879
-6.7084
-5.14462
-3.63509
-2.16511
-0.719041
-15.829
-16.9436
-17.3334
-16.8981
-15.8581
-14.4592
-12.8845
-11.2499
-9.62037
-8.02759
-6.48296
-4.98616
-3.53041
-2.10554