/*--------------------------------*- C++ -*----------------------------------*\
| =========                 |                                                 |
| \\      /  F ield         | OpenFOAM: The Open Source CFD Toolbox           |
|  \\    /   O peration     | Version:  5.x                                   |
|   \\  /    A nd           | Web:      www.OpenFOAM.org                      |
|    \\/     M anipulation  |                                                 |
\*---------------------------------------------------------------------------*/
FoamFile
{
    version     2.0;
    format      ascii;
    class       volScalarField;
    location    "13.5";
    object      gradTy;
}
// * * * * * * * * * * * * * * * * * * * * * * * * * * * * * * * * * * * * * //

dimensions      [0 -1 0 1 0 0 0];

internalField   nonuniform List<scalar> 
2048
(
-26.4236
-26.396
-26.3417
-26.262
-26.1592
-26.0358
-25.8945
-25.7383
-25.5697
-25.3915
-25.206
-25.0154
-24.8215
-24.6262
-24.4308
-24.2368
-24.0451
-23.8568
-23.6726
-23.4931
-23.3187
-23.1498
-22.9866
-22.8293
-22.6783
-22.5337
-22.3958
-22.265
-22.1416
-22.0262
-21.9192
-21.8213
-21.7333
-21.6559
-21.5902
-21.5372
-21.4979
-21.4735
-21.4653
-21.4744
-21.5022
-21.55
-21.6189
-21.71
-21.8244
-21.9628
-22.1257
-22.3128
-22.5236
-22.7567
-23.0096
-23.2793
-23.5613
-23.8504
-24.1406
-24.4252
-24.6976
-24.9511
-25.1796
-25.3777
-25.5412
-25.6666
-25.7515
-25.7943
-26.4459
-26.4177
-26.3621
-26.2807
-26.1759
-26.0502
-25.9067
-25.7482
-25.5775
-25.3974
-25.2101
-25.018
-24.8227
-24.6262
-24.4298
-24.2348
-24.0424
-23.8535
-23.6689
-23.489
-23.3143
-23.1451
-22.9818
-22.8243
-22.6731
-22.5283
-22.3901
-22.259
-22.1352
-22.0193
-21.9118
-21.8133
-21.7246
-21.6465
-21.58
-21.526
-21.4858
-21.4604
-21.4512
-21.4593
-21.4861
-21.5329
-21.6008
-21.6912
-21.805
-21.9431
-22.106
-22.2937
-22.5056
-22.7405
-22.9962
-23.2693
-23.5555
-23.8495
-24.145
-24.4352
-24.7129
-24.9713
-25.2041
-25.4058
-25.572
-25.6994
-25.7855
-25.829
-26.4887
-26.4591
-26.4011
-26.3164
-26.2076
-26.0776
-25.9296
-25.7669
-25.5922
-25.4084
-25.2179
-25.0227
-24.8249
-24.6261
-24.4277
-24.231
-24.0372
-23.8472
-23.6616
-23.4811
-23.3059
-23.1363
-22.9726
-22.8149
-22.6633
-22.518
-22.3794
-22.2476
-22.1232
-22.0064
-21.8979
-21.7983
-21.7083
-21.6288
-21.5607
-21.505
-21.463
-21.4358
-21.4246
-21.4308
-21.4556
-21.5005
-21.5667
-21.6555
-21.7681
-21.9055
-22.0684
-22.257
-22.471
-22.7094
-22.9701
-23.2498
-23.5442
-23.8476
-24.1534
-24.4541
-24.7421
-25.01
-25.251
-25.4595
-25.6309
-25.7619
-25.8504
-25.895
-26.5499
-26.5185
-26.4569
-26.3672
-26.2525
-26.1162
-25.9619
-25.7929
-25.6126
-25.4236
-25.2284
-25.0292
-24.8277
-24.6256
-24.4244
-24.2254
-24.0296
-23.838
-23.6512
-23.4698
-23.294
-23.1239
-22.9597
-22.8015
-22.6495
-22.5036
-22.3643
-22.2317
-22.1063
-21.9884
-21.8785
-21.7773
-21.6855
-21.6039
-21.5335
-21.4755
-21.4309
-21.401
-21.3871
-21.3905
-21.4126
-21.4547
-21.5183
-21.6048
-21.7156
-21.8519
-22.0146
-22.2043
-22.4212
-22.6643
-22.9319
-23.221
-23.5271
-23.8441
-24.1648
-24.481
-24.784
-25.0656
-25.3184
-25.5364
-25.7151
-25.8512
-25.9428
-25.9889
-26.6283
-26.5944
-26.5279
-26.4317
-26.3092
-26.1646
-26.0019
-25.8251
-25.6375
-25.4421
-25.2411
-25.0368
-24.8308
-24.6247
-24.42
-24.218
-24.0197
-23.8262
-23.6379
-23.4555
-23.2789
-23.1083
-22.9436
-22.785
-22.6323
-22.4858
-22.3456
-22.212
-22.0854
-21.966
-21.8545
-21.7512
-21.6571
-21.573
-21.4998
-21.4387
-21.391
-21.3577
-21.3403
-21.3402
-21.3587
-21.3973
-21.4576
-21.541
-21.6493
-21.7839
-21.9461
-22.1369
-22.3568
-22.6057
-22.8819
-23.1828
-23.5038
-23.8385
-24.1787
-24.515
-24.8376
-25.137
-25.4049
-25.6349
-25.8224
-25.9647
-26.0601
-26.1079
-26.7229
-26.6857
-26.6131
-26.5084
-26.3762
-26.2213
-26.0484
-25.8621
-25.6659
-25.4629
-25.2553
-25.045
-24.8338
-24.623
-24.4142
-24.2087
-24.0075
-23.8118
-23.6219
-23.4383
-23.261
-23.0899
-22.9248
-22.7656
-22.6123
-22.465
-22.3239
-22.1891
-22.0611
-21.9401
-21.8266
-21.7211
-21.6243
-21.5371
-21.4606
-21.3959
-21.3443
-21.3071
-21.2856
-21.2813
-21.2955
-21.3299
-21.386
-21.4657
-21.5707
-21.7029
-21.864
-22.0556
-22.2787
-22.5337
-22.8199
-23.1347
-23.4737
-23.8299
-24.1942
-24.5555
-24.9023
-25.2234
-25.5095
-25.7536
-25.9513
-26.1003
-26.1997
-26.2493
-26.8331
-26.7917
-26.7114
-26.5964
-26.4523
-26.2849
-26.1001
-25.9027
-25.6968
-25.4852
-25.2702
-25.0534
-24.8364
-24.6204
-24.407
-24.1974
-23.9931
-23.7948
-23.6033
-23.4186
-23.2407
-23.0691
-22.9037
-22.744
-22.59
-22.4419
-22.2997
-22.1637
-22.0342
-21.9114
-21.7957
-21.6876
-21.5877
-21.4971
-21.4167
-21.348
-21.2921
-21.2504
-21.2243
-21.2151
-21.2245
-21.2539
-21.3052
-21.3802
-21.4812
-21.6102
-21.7694
-21.9611
-22.1871
-22.4485
-22.7454
-23.076
-23.4359
-23.8175
-24.2105
-24.6019
-24.9777
-25.3245
-25.6317
-25.8916
-26.1003
-26.2562
-26.3594
-26.4108
-26.9583
-26.912
-26.8223
-26.6947
-26.5363
-26.3543
-26.1556
-25.9457
-25.729
-25.5082
-25.2853
-25.0616
-24.8383
-24.6167
-24.3981
-24.1842
-23.9763
-23.7755
-23.5822
-23.3965
-23.2181
-23.0464
-22.8806
-22.7205
-22.5659
-22.4169
-22.2736
-22.1363
-22.0053
-21.8806
-21.7625
-21.6516
-21.5483
-21.4538
-21.3692
-21.2959
-21.2353
-21.1886
-21.1574
-21.1429
-21.1468
-21.1706
-21.2163
-21.286
-21.382
-21.5068
-21.6633
-21.8542
-22.0823
-22.3499
-22.658
-23.0058
-23.3891
-23.8002
-24.227
-24.6538
-25.0637
-25.4404
-25.7713
-26.0484
-26.2682
-26.4307
-26.5374
-26.5901
-27.0986
-27.0461
-26.945
-26.8023
-26.627
-26.428
-26.2135
-25.9899
-25.7616
-25.5312
-25.3002
-25.0693
-24.8395
-24.6117
-24.3877
-24.1689
-23.9572
-23.7536
-23.5586
-23.3722
-23.1936
-23.0219
-22.8561
-22.6957
-22.5404
-22.3904
-22.2459
-22.1073
-21.9747
-21.8481
-21.7277
-21.6137
-21.5068
-21.4081
-21.3188
-21.2406
-21.1747
-21.1227
-21.0859
-21.0658
-21.0637
-21.0813
-21.1208
-21.1843
-21.2744
-21.3941
-21.5466
-21.7355
-21.9647
-22.2376
-22.5569
-22.9229
-23.3323
-23.7768
-24.2426
-24.711
-25.1606
-25.5715
-25.9286
-26.2236
-26.4542
-26.6223
-26.7313
-26.7849
-27.2539
-27.194
-27.0791
-26.9185
-26.7233
-26.5048
-26.2727
-26.0341
-25.7937
-25.5535
-25.3143
-25.0763
-24.8397
-24.6055
-24.3755
-24.1515
-23.9356
-23.7291
-23.5326
-23.3458
-23.1674
-22.9961
-22.8305
-22.6699
-22.5139
-22.3628
-22.2171
-22.0772
-21.9431
-21.8146
-21.6917
-21.5746
-21.4638
-21.3605
-21.2662
-21.1826
-21.1112
-21.0535
-21.0109
-20.9847
-20.9762
-20.9872
-21.0197
-21.0762
-21.1595
-21.2729
-21.4202
-21.6058
-21.8346
-22.1116
-22.4414
-22.8261
-23.2637
-23.7459
-24.2566
-24.7732
-25.2689
-25.7185
-26.104
-26.4171
-26.6573
-26.8293
-26.9393
-26.9928
-27.4246
-27.3556
-27.2243
-27.0423
-26.824
-26.5833
-26.3317
-26.0771
-25.8242
-25.5745
-25.3274
-25.0824
-24.839
-24.5981
-24.3616
-24.1319
-23.9115
-23.7021
-23.5042
-23.3174
-23.1397
-22.9693
-22.8042
-22.6434
-22.4867
-22.3345
-22.1874
-22.0462
-21.9107
-21.7805
-21.6552
-21.5348
-21.4198
-21.3116
-21.2119
-21.1226
-21.0454
-20.9818
-20.9331
-20.9005
-20.8853
-20.8891
-20.9141
-20.9629
-21.0385
-21.1445
-21.2852
-21.4658
-21.6923
-21.9717
-22.3107
-22.7141
-23.1818
-23.7057
-24.2679
-24.8405
-25.3894
-25.8826
-26.2986
-26.6291
-26.8768
-27.0502
-27.1591
-27.2115
-27.6111
-27.5312
-27.3802
-27.1731
-26.9279
-26.6621
-26.3891
-26.1177
-25.8524
-25.5936
-25.3393
-25.0876
-24.8375
-24.5896
-24.346
-24.1099
-23.8847
-23.6723
-23.4734
-23.2871
-23.1108
-22.9418
-22.7776
-22.6168
-22.4592
-22.3056
-22.1571
-22.0146
-21.878
-21.7463
-21.6187
-21.4949
-21.3755
-21.262
-21.1565
-21.0611
-20.9779
-20.9082
-20.8533
-20.8142
-20.792
-20.7882
-20.8051
-20.8455
-20.9125
-21.01
-21.1427
-21.3164
-21.5384
-21.8177
-22.164
-22.5853
-23.0845
-23.6544
-24.2752
-24.9128
-25.5234
-26.0657
-26.5134
-26.8597
-27.1117
-27.2832
-27.3885
-27.4383
-27.814
-27.7212
-27.5467
-27.3098
-27.0337
-26.7397
-26.4435
-26.1547
-25.8774
-25.6104
-25.3499
-25.0922
-24.8354
-24.5801
-24.3287
-24.0856
-23.8551
-23.6397
-23.4401
-23.2549
-23.081
-22.9141
-22.7511
-22.5903
-22.4317
-22.2764
-22.1263
-21.9826
-21.8452
-21.7123
-21.5825
-21.4554
-21.3314
-21.2122
-21.1004
-20.9986
-20.9091
-20.8332
-20.7721
-20.7264
-20.697
-20.6853
-20.6936
-20.7249
-20.7826
-20.8706
-20.9937
-21.1585
-21.3735
-21.6498
-22.0005
-22.4382
-22.9696
-23.5898
-24.2771
-24.9903
-25.6727
-26.2698
-26.7502
-27.1093
-27.3612
-27.5266
-27.625
-27.6706
-28.0343
-27.9258
-27.7234
-27.4517
-27.14
-26.8145
-26.4934
-26.1869
-25.8984
-25.6247
-25.3593
-25.0962
-24.8329
-24.5699
-24.3099
-24.0589
-23.8225
-23.604
-23.4041
-23.2211
-23.0504
-22.8866
-22.7251
-22.5643
-22.4044
-22.247
-22.0949
-21.9503
-21.8125
-21.6789
-21.5472
-21.4167
-21.2878
-21.1624
-21.0438
-20.9354
-20.8394
-20.7574
-20.6901
-20.6378
-20.6011
-20.5812
-20.5805
-20.6022
-20.6498
-20.7272
-20.8394
-20.9934
-21.1985
-21.4682
-21.8197
-22.2711
-22.8348
-23.509
-24.2715
-25.0731
-25.8394
-26.4979
-27.0107
-27.3783
-27.6243
-27.7783
-27.8662
-27.9057
-28.273
-28.1457
-27.9104
-27.5978
-27.2452
-26.8851
-26.5374
-26.2131
-25.9147
-25.6363
-25.3676
-25.1001
-24.8305
-24.5593
-24.2896
-24.0295
-23.7868
-23.5652
-23.3654
-23.1855
-23.0194
-22.8595
-22.7001
-22.5393
-22.3777
-22.2175
-22.0631
-21.9177
-21.7801
-21.6465
-21.5132
-21.3792
-21.2451
-21.113
-20.9871
-20.8717
-20.7692
-20.681
-20.6077
-20.5491
-20.5051
-20.4767
-20.4665
-20.4781
-20.5151
-20.5812
-20.6811
-20.8222
-21.0145
-21.2733
-21.6209
-22.0824
-22.6774
-23.4091
-24.2562
-25.1613
-26.0266
-26.7536
-27.2973
-27.667
-27.8996
-28.0361
-28.1093
-28.1407
-28.5312
-28.3816
-28.1074
-27.7469
-27.3476
-26.9496
-26.5741
-26.232
-25.9257
-25.645
-25.3753
-25.1043
-24.8286
-24.5488
-24.268
-23.9972
-23.7477
-23.5228
-23.3237
-23.1483
-22.9883
-22.8336
-22.6766
-22.5155
-22.3518
-22.1879
-22.0305
-21.8846
-21.7482
-21.6154
-21.4808
-21.3434
-21.2039
-21.0644
-20.9304
-20.8078
-20.6987
-20.6045
-20.5255
-20.4608
-20.4096
-20.3724
-20.3523
-20.3534
-20.3794
-20.4335
-20.52
-20.6464
-20.8228
-21.0661
-21.404
-21.8704
-22.4947
-23.2865
-24.228
-25.2552
-26.2381
-27.0413
-27.6124
-27.9753
-28.1857
-28.2977
-28.3518
-28.373
-28.8104
-28.6339
-28.3144
-27.8979
-27.4452
-27.0065
-26.6019
-26.2424
-25.9306
-25.6509
-25.3829
-25.1094
-24.8277
-24.5389
-24.2451
-23.9619
-23.7049
-23.4768
-23.2787
-23.1093
-22.9573
-22.8093
-22.6549
-22.4934
-22.3271
-22.1583
-21.9969
-21.851
-21.7169
-21.586
-21.4505
-21.3096
-21.1645
-21.0166
-20.8738
-20.7437
-20.6281
-20.5279
-20.4438
-20.3735
-20.3152
-20.269
-20.2386
-20.2287
-20.2435
-20.2852
-20.3573
-20.4674
-20.625
-20.8474
-21.1689
-21.6337
-22.2838
-23.1369
-24.1826
-25.3545
-26.4789
-27.3665
-27.9586
-28.3032
-28.4805
-28.5604
-28.5908
-28.5998
-29.1122
-28.9035
-28.5316
-28.0495
-27.5359
-27.0543
-26.6196
-26.243
-25.9289
-25.6543
-25.3912
-25.1159
-24.8282
-24.5305
-24.2212
-23.9228
-23.6583
-23.4269
-23.2301
-23.0686
-22.927
-22.7873
-22.6355
-22.4732
-22.304
-22.1284
-21.9616
-21.8165
-21.6864
-21.5589
-21.4226
-21.2781
-21.1274
-20.97
-20.817
-20.6795
-20.5575
-20.4516
-20.3629
-20.2875
-20.2225
-20.1671
-20.1257
-20.1046
-20.1082
-20.1374
-20.1941
-20.2868
-20.4231
-20.6186
-20.9157
-21.3707
-22.0422
-22.9561
-24.1144
-25.4588
-26.7559
-27.7355
-28.3384
-28.6497
-28.7817
-28.8214
-28.8237
-28.8184
-29.4384
-29.1907
-28.7591
-28.2002
-27.617
-27.0915
-26.6261
-26.2322
-25.9203
-25.6555
-25.4014
-25.1242
-24.8305
-24.5245
-24.1963
-23.8795
-23.6078
-23.3729
-23.1771
-23.0262
-22.8976
-22.7685
-22.6188
-22.4551
-22.283
-22.0983
-21.9241
-21.7808
-21.6567
-21.5345
-21.3973
-21.2491
-21.093
-20.9246
-20.76
-20.6154
-20.4871
-20.3755
-20.2831
-20.2035
-20.1321
-20.067
-20.0142
-19.9815
-19.9742
-19.9911
-20.0316
-20.1062
-20.2192
-20.3815
-20.6451
-21.0801
-21.7675
-22.7391
-24.0158
-25.5671
-27.0779
-28.1562
-28.7543
-29.0135
-29.0864
-29.0779
-29.0478
-29.0266
-29.7913
-29.4957
-28.9977
-28.3483
-27.6851
-27.1171
-26.6206
-26.2085
-25.9042
-25.6549
-25.4148
-25.135
-24.8347
-24.5224
-24.1706
-23.8305
-23.5534
-23.3147
-23.1192
-22.9819
-22.8695
-22.7539
-22.6052
-22.4392
-22.2649
-22.0678
-21.8831
-21.7435
-21.628
-21.5136
-21.375
-21.2226
-21.0622
-20.8806
-20.7022
-20.5514
-20.417
-20.2996
-20.2047
-20.1218
-20.0447
-19.9693
-19.9041
-19.8596
-19.8421
-19.8473
-19.8705
-19.9272
-20.0161
-20.138
-20.3581
-20.7607
-21.4579
-22.4813
-23.8764
-25.6775
-27.4568
-28.6377
-29.2079
-29.3923
-29.3914
-29.3267
-29.2608
-29.2223
-30.1732
-29.8179
-29.2488
-28.492
-27.7359
-27.1308
-26.6026
-26.1696
-25.8805
-25.6528
-25.4337
-25.1484
-24.8405
-24.5263
-24.1443
-23.7743
-23.4956
-23.2526
-23.055
-22.9358
-22.8432
-22.7449
-22.5948
-22.4252
-22.2511
-22.0368
-21.837
-21.7043
-21.6003
-21.4973
-21.3556
-21.1986
-21.0359
-20.838
-20.6428
-20.4877
-20.3474
-20.2236
-20.128
-20.0428
-19.9607
-19.8742
-19.7958
-19.7389
-19.7123
-19.7071
-19.7113
-19.751
-19.8168
-19.8902
-20.056
-20.4107
-21.1126
-22.1787
-23.6822
-25.7865
-27.909
-29.1899
-29.6998
-29.7825
-29.6927
-29.565
-29.4603
-29.4036
-30.5874
-30.1556
-29.5146
-28.6295
-27.7638
-27.1333
-26.5722
-26.1126
-25.8494
-25.6497
-25.4607
-25.1643
-24.8469
-24.5393
-24.1175
-23.708
-23.4354
-23.187
-22.9828
-22.888
-22.8187
-22.7433
-22.5876
-22.4126
-22.2433
-22.0052
-21.7838
-21.6627
-21.5737
-21.487
-21.3393
-21.1763
-21.0157
-20.7969
-20.5805
-20.4247
-20.2785
-20.1471
-20.0531
-19.9667
-19.8811
-19.7823
-19.6892
-19.6193
-19.5852
-19.5717
-19.5542
-19.579
-19.625
-19.6405
-19.7409
-20.0282
-20.7321
-21.8291
-23.4141
-25.8883
-28.4571
-29.8243
-30.2293
-30.1796
-29.9862
-29.7897
-29.6445
-29.5693
-31.038
-30.505
-29.7996
-28.7585
-27.7611
-27.1269
-26.5303
-26.0335
-25.8115
-25.6454
-25.5
-25.1822
-24.8519
-24.566
-24.0904
-23.6274
-23.3747
-23.1185
-22.9
-22.839
-22.7961
-22.7519
-22.5831
-22.3998
-22.2445
-21.9728
-21.7204
-21.6189
-21.548
-21.4847
-21.3256
-21.1548
-21.0035
-20.7572
-20.5134
-20.3633
-20.2107
-20.0693
-19.9805
-19.894
-19.8066
-19.6936
-19.5843
-19.5005
-19.461
-19.4426
-19.3987
-19.4117
-19.4453
-19.391
-19.4159
-19.61
-20.3185
-21.4331
-23.0461
-25.9739
-29.1321
-30.552
-30.7931
-30.5777
-30.2674
-29.9982
-29.8119
-29.7182
-31.5302
-30.8593
-30.1107
-28.8769
-27.7168
-27.1162
-26.4787
-25.9262
-25.7689
-25.6389
-25.5574
-25.2008
-24.8517
-24.6132
-24.0629
-23.5262
-23.317
-23.0487
-22.8028
-22.79
-22.7747
-22.7744
-22.5805
-22.3843
-22.259
-21.9396
-21.6424
-21.5735
-21.5225
-21.4935
-21.3139
-21.132
-21.0028
-20.719
-20.4384
-20.3048
-20.1446
-19.9888
-19.9108
-19.8245
-19.7382
-19.6083
-19.4811
-19.3817
-19.3398
-19.3221
-19.2434
-19.2494
-19.2835
-19.1432
-19.0855
-19.1508
-19.8761
-20.9966
-22.5433
-26.0296
-29.977
-31.3838
-31.3851
-30.9694
-30.5317
-30.188
-29.9612
-29.8498
-32.0715
-31.2066
-30.459
-28.9824
-27.6158
-27.1096
-26.4203
-25.7821
-25.7251
-25.6276
-25.641
-25.2179
-24.84
-24.691
-24.0353
-23.3951
-23.2678
-22.9795
-22.6853
-22.7434
-22.7527
-22.8162
-22.5783
-22.3622
-22.2932
-21.9055
-21.5438
-21.5281
-21.4959
-21.5177
-21.3029
-21.1047
-21.0183
-20.6821
-20.3513
-20.2515
-20.0809
-19.9036
-19.845
-19.758
-19.6774
-19.5265
-19.3794
-19.262
-19.2214
-19.2132
-19.086
-19.0913
-19.147
-18.8975
-18.7563
-18.6422
-19.4111
-20.5339
-21.859
-26.0348
-31.0517
-32.3275
-31.9955
-31.3466
-30.7746
-30.3573
-30.0919
-29.9638
-32.6723
-31.5279
-30.8621
-29.0726
-27.4367
-27.1207
-26.3594
-25.5885
-25.6869
-25.6063
-25.7629
-25.2299
-24.807
-24.8139
-24.0073
-23.2206
-23.2361
-22.9138
-22.5392
-22.7033
-22.7265
-22.885
-22.5742
-22.327
-22.3564
-21.8703
-21.4163
-21.4861
-21.4652
-21.5635
-21.2908
-21.0679
-21.057
-20.6463
-20.2459
-20.2073
-20.0206
-19.8108
-19.7847
-19.6938
-19.626
-19.4479
-19.2793
-19.1403
-19.105
-19.1204
-18.9229
-18.9352
-19.0456
-18.6522
-18.4387
-18.071
-18.932
-20.0711
-20.931
-25.9593
-32.4383
-33.3851
-32.6101
-31.7001
-30.992
-30.5045
-30.2037
-30.0606
-33.3476
-31.7937
-31.3459
-29.1455
-27.1498
-27.17
-26.3018
-25.3272
-25.6659
-25.5652
-25.9398
-25.2318
-24.7379
-25.0026
-23.9788
-22.9834
-23.2352
-22.8555
-22.3522
-22.6772
-22.6897
-22.9919
-22.5647
-22.2692
-22.462
-21.8338
-21.2484
-21.4537
-21.4254
-21.6397
-21.2749
-21.0142
-21.1291
-20.6111
-20.1134
-20.178
-19.965
-19.7059
-19.7328
-19.6305
-19.5866
-19.3719
-19.1809
-19.0147
-18.9893
-19.0502
-18.7485
-18.7775
-18.9928
-18.4018
-18.1481
-17.4168
-18.4491
-19.652
-19.6778
-25.7602
-34.2496
-34.5487
-33.2103
-32.0205
-31.1806
-30.6289
-30.2966
-30.1404
-34.1181
-31.9598
-31.9491
-29.1987
-26.7137
-27.2881
-26.2552
-24.972
-25.6807
-25.4881
-26.1957
-25.2165
-24.6112
-25.2864
-23.9493
-22.6566
-23.2848
-22.8095
-22.107
-22.6771
-22.6313
-23.1526
-22.5451
-22.1749
-22.6287
-21.7955
-21.0245
-21.4412
-21.368
-21.759
-21.2513
-20.9329
-21.2487
-20.5759
-19.9415
-20.172
-19.9154
-19.5827
-19.6934
-19.5652
-19.5625
-19.2973
-19.0849
-18.8832
-18.8717
-19.0121
-18.5552
-18.6117
-19.0068
-18.1355
-17.9082
-16.6497
-17.9733
-19.3444
-17.9932
-25.3772
-36.6387
-35.7943
-33.7728
-32.2988
-31.3377
-30.7301
-30.3712
-30.2042
-35.0135
-31.9619
-32.7267
-29.23
-26.0724
-27.5185
-26.2288
-24.4862
-25.7606
-25.3485
-26.5641
-25.1745
-24.3963
-25.7052
-23.9179
-22.2032
-23.4129
-22.7821
-21.7792
-22.7219
-22.5341
-23.3889
-22.5089
-22.0245
-22.8824
-21.7543
-20.7231
-21.4649
-21.2791
-21.9388
-21.2148
-20.8086
-21.4355
-20.5394
-19.7138
-20.202
-19.8736
-19.4324
-19.6732
-19.4937
-19.5587
-19.2221
-18.9921
-18.7435
-18.7481
-19.0195
-18.3327
-18.4285
-19.1131
-17.8338
-17.7538
-15.7267
-17.5145
-19.2485
-15.7411
-24.7268
-39.8117
-37.0738
-34.271
-32.5273
-31.4618
-30.8085
-30.4284
-30.2528
-36.0746
-31.7087
-33.7558
-29.2372
-25.1503
-27.9218
-26.2339
-23.8193
-25.9497
-25.1063
-27.0909
-25.0933
-24.051
-26.3132
-23.8829
-21.5735
-23.6586
-22.7808
-21.3352
-22.8402
-22.3714
-23.7312
-22.4479
-21.7907
-23.2582
-21.7083
-20.3159
-21.5493
-21.1375
-22.2035
-21.1586
-20.6205
-21.7162
-20.4997
-19.4079
-20.2852
-19.8411
-19.2429
-19.682
-19.409
-19.582
-19.1431
-18.9046
-18.5929
-18.6121
-19.0906
-18.0674
-18.2138
-19.3463
-17.4651
-17.7363
-14.588
-17.0793
-19.5068
-12.7486
-23.6962
-44.0417
-38.304
-34.6765
-32.7002
-31.5528
-30.865
-30.4693
-30.2874
-37.3573
-31.0741
-35.1424
-29.2174
-23.8478
-28.5806
-26.2832
-22.9029
-26.3122
-24.7017
-27.8389
-24.9572
-23.5183
-27.1825
-23.842
-20.7018
-24.0749
-22.8143
-20.7296
-23.074
-22.1039
-24.2205
-22.3511
-21.437
-23.8026
-21.6547
-19.7653
-21.7305
-20.9116
-22.5858
-21.0737
-20.3405
-22.1263
-20.4541
-18.9945
-20.4457
-19.8196
-18.998
-19.7339
-19.3008
-19.6418
-19.0553
-18.8254
-18.4285
-18.4539
-19.2507
-17.742
-17.9482
-19.7541
-16.981
-17.9286
-13.1532
-16.6671
-20.3157
-8.79955
-22.1344
-49.6874
-39.3537
-34.963
-32.8144
-31.6113
-30.9009
-30.4952
-30.3093
-38.9367
-29.8874
-37.0288
-29.1674
-22.0357
-29.6048
-26.3915
-21.646
-26.9402
-24.0495
-28.8921
-24.7462
-22.7228
-28.4066
-23.7919
-19.5036
-24.7335
-22.8935
-19.9035
-23.4844
-21.6769
-24.9135
-22.205
-20.9139
-24.5753
-21.5897
-19.0254
-22.0625
-20.5586
-23.1328
-20.9497
-19.9316
-22.7126
-20.3991
-18.437
-20.7167
-19.8106
-18.6765
-19.8489
-19.1538
-19.7509
-18.9519
-18.7597
-18.2483
-18.2599
-19.533
-17.3346
-17.6048
-20.4013
-16.3105
-18.4333
-11.3164
-16.2661
-21.9385
-3.62754
-19.8438
-57.2128
-40.0273
-35.1108
-32.8703
-31.6395
-30.9182
-30.5076
-30.3197
)
;

boundaryField
{
    left
    {
        type            calculated;
        value           nonuniform List<scalar> 
32
(
-26.4236
-26.4459
-26.4887
-26.5499
-26.6283
-26.7229
-26.8331
-26.9583
-27.0986
-27.2539
-27.4246
-27.6111
-27.814
-28.0343
-28.273
-28.5312
-28.8104
-29.1122
-29.4384
-29.7913
-30.1732
-30.5874
-31.038
-31.5302
-32.0715
-32.6723
-33.3476
-34.1181
-35.0135
-36.0746
-37.3573
-38.9367
)
;
    }
    right
    {
        type            calculated;
        value           nonuniform List<scalar> 
32
(
-25.7943
-25.829
-25.895
-25.9889
-26.1079
-26.2493
-26.4108
-26.5901
-26.7849
-26.9928
-27.2115
-27.4383
-27.6706
-27.9057
-28.1407
-28.373
-28.5998
-28.8184
-29.0266
-29.2223
-29.4036
-29.5693
-29.7182
-29.8498
-29.9638
-30.0606
-30.1404
-30.2042
-30.2528
-30.2874
-30.3093
-30.3197
)
;
    }
    interface
    {
        type            calculated;
        value           nonuniform List<scalar> 
64
(
-39.8112
-29.1316
-38.1172
-29.1344
-20.984
-30.2239
-26.4622
-20.9196
-27.334
-23.649
-29.507
-24.6193
-22.2487
-29.1206
-23.7641
-18.8109
-25.1337
-22.9461
-19.4271
-23.7429
-21.4157
-25.3192
-22.1178
-20.6029
-25.0271
-21.5539
-18.6019
-22.2744
-20.3444
-23.4545
-20.8766
-19.6897
-23.0563
-20.3689
-18.1172
-20.8847
-19.8095
-18.4934
-19.9251
-19.0685
-19.8195
-18.8953
-18.7311
-18.1541
-18.1519
-19.7094
-17.1073
-17.4097
-20.794
-15.9182
-18.7786
-10.2826
-16.066
-22.9909
-0.699122
-18.4882
-61.5106
-40.2412
-35.1483
-32.8839
-31.6464
-30.9224
-30.5106
-30.3223
)
;
    }
    bottom
    {
        type            calculated;
        value           nonuniform List<scalar> 
64
(
-26.4178
-26.3904
-26.3363
-26.2571
-26.1549
-26.032
-25.8914
-25.7357
-25.5676
-25.3899
-25.2049
-25.0147
-24.8212
-24.6262
-24.4311
-24.2373
-24.0458
-23.8577
-23.6736
-23.4942
-23.3199
-23.151
-22.9878
-22.8307
-22.6797
-22.5351
-22.3973
-22.2666
-22.1433
-22.028
-21.9211
-21.8234
-21.7355
-21.6584
-21.5929
-21.5401
-21.501
-21.4769
-21.4689
-21.4784
-21.5065
-21.5544
-21.6236
-21.7149
-21.8295
-21.968
-22.1308
-22.3178
-22.5283
-22.7608
-23.0131
-23.2819
-23.5628
-23.8506
-24.1394
-24.4227
-24.6936
-24.9458
-25.1732
-25.3704
-25.5332
-25.6581
-25.7427
-25.7853
)
;
    }
    defaultFaces
    {
        type            empty;
    }
}


// ************************************************************************* //
