/*--------------------------------*- C++ -*----------------------------------*\
| =========                 |                                                 |
| \\      /  F ield         | OpenFOAM: The Open Source CFD Toolbox           |
|  \\    /   O peration     | Version:  5.x                                   |
|   \\  /    A nd           | Web:      www.OpenFOAM.org                      |
|    \\/     M anipulation  |                                                 |
\*---------------------------------------------------------------------------*/
FoamFile
{
    version     2.0;
    format      ascii;
    class       volScalarField;
    location    "13.5";
    object      gradTx;
}
// * * * * * * * * * * * * * * * * * * * * * * * * * * * * * * * * * * * * * //

dimensions      [0 -1 0 1 0 0 0];

internalField   nonuniform List<scalar> 
2048
(
0.00630503
0.0187346
0.030639
0.0417206
0.0517504
0.060579
0.0681361
0.0744195
0.0794788
0.083397
0.0862737
0.0882133
0.0893178
0.089684
0.0894043
0.0885679
0.0872616
0.085569
0.0835678
0.0813265
0.0789009
0.0763317
0.0736438
0.0708473
0.0679399
0.0649096
0.0617368
0.058396
0.0548562
0.0510817
0.0470321
0.0426638
0.0379317
0.0327911
0.0272002
0.0211215
0.0145226
0.00737741
-0.000333656
-0.00862227
-0.01749
-0.0269245
-0.0368945
-0.0473424
-0.0581769
-0.0692632
-0.080414
-0.0913823
-0.101857
-0.111465
-0.119783
-0.12636
-0.130754
-0.13257
-0.131512
-0.127416
-0.120278
-0.110248
-0.0976158
-0.0827653
-0.0661298
-0.0481504
-0.029247
-0.00980741
0.0187887
0.0558187
0.0912577
0.124207
0.153981
0.18014
0.202482
0.221016
0.235905
0.247405
0.255823
0.261473
0.264658
0.265664
0.264763
0.262219
0.258288
0.25322
0.247247
0.240575
0.233371
0.225755
0.2178
0.209535
0.20095
0.192008
0.182649
0.172799
0.162364
0.151239
0.139303
0.126427
0.112474
0.0973117
0.0808147
0.0628709
0.0433846
0.0222777
-0.000508636
-0.0250107
-0.0512362
-0.0791532
-0.108674
-0.139637
-0.171778
-0.204707
-0.237876
-0.270559
-0.301833
-0.330587
-0.35555
-0.375361
-0.388675
-0.394291
-0.391298
-0.379194
-0.357963
-0.328075
-0.290413
-0.246153
-0.196609
-0.14311
-0.0869053
-0.0291383
0.0311405
0.0924843
0.151108
0.205488
0.254477
0.297357
0.333833
0.36396
0.388051
0.406572
0.420051
0.429019
0.433977
0.43539
0.433697
0.429324
0.422695
0.414223
0.404297
0.393262
0.381397
0.3689
0.355888
0.342399
0.328413
0.313862
0.298646
0.28264
0.265692
0.247629
0.22825
0.20734
0.184671
0.16002
0.133179
0.103961
0.0722101
0.0377966
0.000621867
-0.0393788
-0.0822272
-0.127884
-0.176225
-0.227004
-0.279816
-0.334045
-0.38882
-0.442964
-0.49497
-0.542993
-0.584902
-0.618387
-0.641139
-0.651078
-0.646613
-0.626864
-0.591803
-0.542255
-0.47977
-0.40639
-0.324374
-0.235962
-0.143224
-0.0480092
0.0436003
0.129427
0.211277
0.286944
0.354801
0.413878
0.463831
0.504827
0.537397
0.562265
0.580217
0.592012
0.598344
0.599841
0.597094
0.590682
0.581187
0.56919
0.555245
0.539845
0.523385
0.506141
0.488265
0.469797
0.450693
0.430848
0.410117
0.388328
0.365273
0.340712
0.314368
0.285932
0.255082
0.221502
0.184896
0.145007
0.101617
0.0545466
0.00365767
-0.051149
-0.10992
-0.172628
-0.239134
-0.309145
-0.382148
-0.45735
-0.533598
-0.60931
-0.682415
-0.750338
-0.810049
-0.858209
-0.891424
-0.906598
-0.901333
-0.874294
-0.825435
-0.756015
-0.668382
-0.565594
-0.450974
-0.327745
-0.198793
-0.0666108
0.0563838
0.167271
0.272725
0.369776
0.456292
0.531075
0.593807
0.644863
0.685082
0.715523
0.737272
0.751333
0.75858
0.759785
0.755665
0.746933
0.73433
0.718611
0.700513
0.680688
0.65966
0.63778
0.615226
0.592026
0.568094
0.543277
0.517383
0.490194
0.461451
0.430853
0.398042
0.362613
0.324141
0.282208
0.236429
0.186473
0.132065
0.0729797
0.00903869
-0.0598967
-0.133912
-0.213012
-0.297076
-0.385799
-0.478614
-0.5746
-0.672384
-0.770029
-0.864939
-0.953809
-1.03266
-1.097
-1.14217
-1.16387
-1.15869
-1.1247
-1.06186
-0.971946
-0.858332
-0.725317
-0.577484
-0.419135
-0.253975
-0.0850561
0.0696959
0.206602
0.336346
0.455079
0.560129
0.650118
0.724851
0.785044
0.831965
0.867104
0.891905
0.907626
0.915303
0.915814
0.909967
0.898589
0.882576
0.862875
0.840425
0.816068
0.790467
0.764051
0.73701
0.709332
0.680871
0.651411
0.620708
0.588502
0.554497
0.518333
0.47957
0.437701
0.392182
0.342484
0.288124
0.228701
0.163886
0.0934157
0.0170732
-0.0653239
-0.153914
-0.248758
-0.34979
-0.456736
-0.569027
-0.685682
-0.80518
-0.925301
-1.04298
-1.15418
-1.25392
-1.33642
-1.39554
-1.42544
-1.42144
-1.38086
-1.30359
-1.19214
-1.05119
-0.886626
-0.704543
-0.510467
-0.308918
-0.103385
0.0837408
0.248
0.403008
0.543888
0.66739
0.772022
0.857856
0.926112
0.978655
1.01752
1.04458
1.06134
1.06896
1.06838
1.06044
1.04607
1.02629
1.00228
0.975226
0.946185
0.915985
0.885131
0.853804
0.821922
0.789245
0.755474
0.720309
0.683463
0.644615
0.603361
0.559176
0.511435
0.459459
0.402588
0.340238
0.271934
0.197306
0.116064
0.0279587
-0.0672383
-0.169732
-0.279669
-0.39707
-0.521743
-0.653176
-0.790404
-0.93184
-1.07508
-1.21665
-1.35185
-1.47462
-1.57774
-1.65328
-1.69349
-1.69205
-1.64522
-1.55282
-1.41832
-1.24811
-1.05014
-0.832387
-0.601757
-0.363565
-0.121568
0.09873
0.292062
0.473587
0.637218
0.779087
0.897687
0.993544
1.06861
1.12554
1.16708
1.19556
1.21274
1.21987
1.21783
1.20746
1.1897
1.16577
1.13707
1.10509
1.07117
1.03633
1.00114
0.965758
0.929972
0.893409
0.855659
0.816368
0.775239
0.731957
0.686088
0.637022
0.583993
0.526162
0.462715
0.392953
0.316335
0.232465
0.141042
0.0417983
-0.0655398
-0.181259
-0.305617
-0.438765
-0.580638
-0.730844
-0.88851
-1.05209
-1.2191
-1.38581
-1.54688
-1.69518
-1.82185
-1.91682
-1.96997
-1.97277
-1.92006
-1.81151
-1.65187
-1.44985
-1.21608
-0.960867
-0.692712
-0.417662
-0.139505
0.114889
0.339418
0.548994
0.736091
0.896191
1.02791
1.13249
1.21289
1.27282
1.31587
1.34492
1.36198
1.36823
1.36444
1.35131
1.32978
1.30125
1.26741
1.23013
1.1911
1.15156
1.11217
1.07299
1.03364
0.993542
0.952144
0.909037
0.863953
0.816623
0.766611
0.713215
0.655503
0.592432
0.523006
0.446395
0.362002
0.269427
0.168386
0.0586129
-0.0602085
-0.188461
-0.326544
-0.474777
-0.633272
-0.801815
-0.979709
-1.16556
-1.35697
-1.55006
-1.73903
-1.91567
-2.06931
-2.18734
-2.25663
-2.26575
-2.20758
-2.08149
-1.89394
-1.65681
-1.38424
-1.08945
-0.782739
-0.470766
-0.157037
0.132465
0.39075
0.630194
0.841558
1.01965
1.16342
1.27515
1.35915
1.42048
1.4638
1.49261
1.50905
1.51416
1.50841
1.49226
1.46658
1.43294
1.39345
1.35042
1.30599
1.26169
1.21826
1.17561
1.13307
1.08982
1.0451
0.998454
0.949694
0.898671
0.844981
0.787823
0.726052
0.658375
0.583566
0.500649
0.408981
0.308197
0.198066
0.0783521
-0.0512961
-0.191372
-0.342451
-0.505063
-0.679541
-0.8659
-1.0637
-1.27183
-1.48812
-1.7088
-1.92776
-2.13581
-2.32034
-2.46574
-2.5551
-2.57314
-2.50999
-2.36452
-2.14549
-1.86906
-1.55402
-1.21724
-0.870956
-0.522259
-0.173941
0.151728
0.446806
0.718228
0.954716
1.1504
1.30485
1.42181
1.50739
1.56835
1.61064
1.63842
1.65388
1.65772
1.64994
1.63056
1.60034
1.56105
1.51528
1.46596
1.41579
1.36669
1.31943
1.27368
1.22843
1.18243
1.1347
1.08474
1.03252
0.978117
0.921208
0.860874
0.795701
0.724073
0.644478
0.555766
0.457277
0.348728
0.229994
0.100902
-0.0389167
-0.190085
-0.353398
-0.529636
-0.719392
-0.922951
-1.1402
-1.37043
-1.61192
-1.86123
-2.11226
-2.35503
-2.57487
-2.75268
-2.86688
-2.89712
-2.82962
-2.66238
-2.40725
-2.08629
-1.72443
-1.34295
-0.956206
-0.571359
-0.189945
0.172983
0.508409
0.814227
1.07672
1.28938
1.45278
1.57268
1.65747
1.71606
1.75595
1.78201
1.79631
1.79894
1.78919
1.76648
1.73132
1.68573
1.63298
1.57674
1.52044
1.46647
1.41565
1.36731
1.31986
1.27158
1.22114
1.16802
1.11247
1.05493
0.995259
0.932368
0.864489
0.789594
0.705809
0.611782
0.506865
0.390933
0.264028
0.126094
-0.0232399
-0.184749
-0.359493
-0.548563
-0.752833
-0.972877
-1.20896
-1.46091
-1.72765
-2.00642
-2.29149
-2.57241
-2.83247
-3.04859
-3.19341
-3.23999
-3.16899
-2.97693
-2.67984
-2.30786
-1.89402
-1.46495
-1.03709
-0.617152
-0.204733
0.196568
0.576473
0.919423
1.20881
1.43751
1.60769
1.7278
1.8091
1.8631
1.89919
1.92297
1.93611
1.93782
1.92636
1.90031
1.85978
1.80719
1.74661
1.68269
1.61979
1.56091
1.50691
1.45656
1.40755
1.35749
1.30463
1.2484
1.18953
1.12905
1.06707
1.00228
0.932438
0.855
0.767628
0.668716
0.557693
0.434686
0.299986
0.153711
-0.00448325
-0.175551
-0.360892
-0.561961
-0.779933
-1.01566
-1.26981
-1.54286
-1.8346
-2.14331
-2.46417
-2.78673
-3.0924
-3.35362
-3.53605
-3.60421
-3.53097
-3.3102
-2.96366
-2.53269
-2.06089
-1.58124
-1.11198
-0.658617
-0.217962
0.222864
0.652011
1.03517
1.35228
1.59572
1.76999
1.88711
1.96181
2.00877
2.03966
2.06076
2.07304
2.07434
2.06165
2.03238
1.98604
1.92559
1.85621
1.78372
1.71366
1.64984
1.59313
1.54153
1.4917
1.44044
1.38542
1.32602
1.26368
1.20036
1.13652
1.07056
0.999565
0.920356
0.830009
0.726586
0.609687
0.479834
0.337646
0.183491
0.0170942
-0.16272
-0.357783
-0.569993
-0.800826
-1.05136
-1.32266
-1.61594
-1.93208
-2.27078
-2.62881
-2.99645
-3.35353
-3.66758
-3.89602
-3.9925
-3.91883
-3.66446
-3.25895
-2.75923
-2.2227
-1.6895
-1.1791
-0.694677
-0.229274
0.252296
0.736139
1.16293
1.50853
1.76489
1.93997
2.05042
2.11501
2.15222
2.1765
2.1948
2.20682
2.2085
2.19532
2.16309
2.11043
2.04111
1.96183
1.87971
1.8018
1.73305
1.67426
1.62233
1.57253
1.52073
1.46381
1.401
1.33484
1.26868
1.20349
1.13716
1.06588
0.985735
0.893045
0.785413
0.66276
0.526198
0.376754
0.215136
0.0411982
-0.146506
-0.350374
-0.572857
-0.815712
-1.08013
-1.36751
-1.6799
-2.01946
-2.38768
-2.78377
-3.19974
-3.61437
-3.98995
-4.27438
-4.4078
-4.33647
-4.04231
-3.56569
-2.98538
-2.37656
-1.78714
-1.23656
-0.724242
-0.238318
0.285347
0.830079
1.3043
1.67905
1.94588
2.1178
2.21744
2.26798
2.29246
2.30878
2.32447
2.33719
2.34031
2.32764
2.29291
2.23332
2.15394
2.06349
1.9705
1.88393
1.81026
1.75023
1.69908
1.65031
1.59873
1.54016
1.47349
1.40289
1.33377
1.26781
1.20203
1.13139
1.05122
0.956859
0.845221
0.716802
0.573581
0.417032
0.248311
0.0675039
-0.127177
-0.338888
-0.570778
-0.824847
-1.10221
-1.40448
-1.73465
-2.09625
-2.49287
-2.92725
-3.39445
-3.87304
-4.31977
-4.67189
-4.85337
-4.78852
-4.44679
-3.88353
-3.20838
-2.5191
-1.87132
-1.28246
-0.746273
-0.24477
0.322566
0.935158
1.461
1.86544
2.13948
2.30349
2.38776
2.41991
2.42833
2.43541
2.44911
2.46393
2.46977
2.45895
2.42243
2.35512
2.26424
2.16125
2.05594
1.95966
1.88114
1.82095
1.77197
1.72529
1.67482
1.61493
1.54366
1.46765
1.39534
1.32927
1.2651
1.19611
1.11692
1.02162
0.906044
0.771685
0.621777
0.458181
0.282649
0.0956601
-0.105012
-0.323539
-0.563995
-0.828546
-1.11794
-1.4338
-1.78021
-2.16209
-2.5853
-3.05735
-3.57818
-4.12728
-4.65563
-5.08892
-5.33271
-5.28069
-4.88148
-4.21167
-3.42469
-2.64644
-1.93907
-1.31497
-0.75984
-0.248354
0.364592
1.0528
1.63484
2.06947
2.34638
2.49682
2.56094
2.56987
2.55853
2.55518
2.56808
2.5869
2.59686
2.5896
2.55237
2.47624
2.3721
2.25519
2.13585
2.02858
1.9453
1.88635
1.84121
1.79773
1.74945
1.68867
1.61169
1.52884
1.45299
1.38766
1.32637
1.26001
1.18293
1.08756
0.967924
0.827243
0.670572
0.499893
0.317752
0.125291
-0.0802835
-0.304525
-0.552743
-0.82717
-1.12776
-1.4558
-1.81675
-2.21689
-2.66403
-3.17212
-3.74829
-4.37451
-4.9956
-5.52518
-5.84959
-5.81998
-5.35066
-4.54862
-3.62981
-2.75419
-1.98739
-1.33241
-0.764183
-0.248858
0.41219
1.18449
1.82775
2.2931
2.56709
2.69731
2.73653
2.71694
2.68159
2.66679
2.68077
2.70609
2.72151
2.71994
2.68366
2.59713
2.47755
2.34547
2.21009
2.09014
2.00225
1.9464
1.90712
1.86788
1.82307
1.76212
1.67782
1.58609
1.5062
1.44277
1.38588
1.32305
1.24937
1.15501
1.03091
0.883265
0.719768
0.541853
0.353187
0.155999
-0.0532607
-0.282007
-0.537243
-0.821124
-1.13217
-1.47088
-1.84462
-2.26079
-2.7283
-3.26956
-3.9019
-4.61185
-5.33724
-5.97946
-6.40787
-6.4152
-5.8595
-4.89196
-3.81814
-2.83756
-2.01339
-1.3334
-0.758771
-0.246156
0.466317
1.33175
2.04164
2.53858
2.80191
2.90408
2.91417
2.86019
2.79586
2.76875
2.78666
2.82171
2.84351
2.85033
2.81752
2.7182
2.58045
2.43234
2.27852
2.14371
2.05142
2.00108
1.97014
1.93588
1.89615
1.83621
1.74228
1.63888
1.55437
1.49439
1.44376
1.38513
1.31632
1.22443
1.09503
0.939462
0.769198
0.583757
0.388482
0.18736
-0.0241966
-0.256093
-0.517684
-0.81085
-1.13182
-1.47951
-1.86425
-2.29429
-2.77756
-3.34767
-4.03596
-4.83626
-5.6777
-6.44923
-7.01137
-7.07749
-6.41418
-5.23785
-3.98282
-2.89141
-2.0144
-1.31693
-0.743341
-0.240215
0.528238
1.4961
2.27837
2.80866
3.05084
3.11572
3.09372
2.99874
2.89951
2.85944
2.88533
2.93427
2.96244
2.98101
2.95558
2.83979
2.68042
2.51628
2.34109
2.1885
2.09208
2.05043
2.0309
2.00172
1.96909
1.91221
1.80536
1.6865
1.59673
1.54233
1.50032
1.44603
1.38384
1.29649
1.16031
0.995425
0.818762
0.625315
0.423118
0.218928
0.00667302
-0.22682
-0.494206
-0.796821
-1.12745
-1.48217
-1.87617
-2.31826
-2.81154
-3.40449
-4.14723
-5.04463
-6.01384
-6.93011
-7.66347
-7.8211
-7.02217
-5.58052
-4.11556
-2.9105
-1.98822
-1.28244
-0.717931
-0.231101
0.599703
1.67892
2.53958
3.10676
3.3134
3.33012
3.27552
3.13181
2.99045
2.93704
2.97649
3.04478
3.0775
3.11205
3.1001
2.96209
2.77668
2.59808
2.39779
2.22356
2.1234
2.09456
2.09034
2.06517
2.04218
1.99181
1.86734
1.72802
1.63234
1.58647
1.5561
1.50537
1.45188
1.37215
1.2267
1.05057
0.86848
0.666266
0.456515
0.250232
0.0391303
-0.19414
-0.466882
-0.779532
-1.11994
-1.47927
-1.88092
-2.33411
-2.83025
-3.43812
-4.23224
-5.23396
-6.3426
-7.41525
-8.36666
-8.66447
-7.69244
-5.91142
-4.20655
-2.88964
-1.93326
-1.22993
-0.68289
-0.218981
0.68324
1.88137
2.82649
3.43741
3.58849
3.54417
3.46062
3.25877
3.06629
2.99951
3.06002
3.15496
3.18729
3.24324
3.25424
3.08503
2.86787
2.67904
2.44872
2.24773
2.14432
2.13365
2.14982
2.12556
2.11555
2.07729
1.9285
1.7622
1.66009
1.62671
1.61201
1.56245
1.52026
1.45282
1.29407
1.10407
0.918568
0.706379
0.488013
0.280778
0.0729725
-0.157897
-0.435707
-0.759488
-1.11037
-1.47116
-1.87894
-2.34384
-2.83402
-3.44672
-4.28729
-5.40149
-6.66153
-7.89451
-9.12174
-9.63151
-8.43568
-6.21823
-4.24451
-2.82412
-1.84869
-1.15996
-0.63887
-0.20411
0.782588
2.10423
3.13948
3.80677
3.87415
3.75338
3.65132
3.37908
3.12427
3.04454
3.13591
3.26755
3.28955
3.3739
3.42248
3.20813
2.9518
2.76126
2.49403
2.25955
2.1536
2.16792
2.21136
2.18167
2.18898
2.17182
1.98901
1.78747
1.67869
1.66302
1.6695
1.61618
1.58858
1.54051
1.36212
1.1547
0.969552
0.745451
0.516846
0.310054
0.108003
-0.117808
-0.400578
-0.737189
-1.10007
-1.45797
-1.87044
-2.35022
-2.82345
-3.42861
-4.30829
-5.54484
-6.96965
-8.35347
-9.92675
-10.7535
-9.26454
-6.48343
-4.21683
-2.71001
-1.73468
-1.07367
-0.586793
-0.186821
0.90334
2.34762
3.47769
4.2234
4.1672
3.95147
3.85166
3.4923
3.16121
3.06949
3.20422
3.38682
3.38074
3.50262
3.61116
3.3303
3.0251
2.848
2.53389
2.25727
2.14975
2.1976
2.27795
2.2314
2.26179
2.27974
2.04887
1.80183
1.68662
1.6954
1.7308
1.66483
1.65607
1.63815
1.43026
1.20076
1.02242
0.783289
0.542111
0.33755
0.144015
-0.0734477
-0.361292
-0.713087
-1.09075
-1.43958
-1.8552
-2.35702
-2.79939
-3.38225
-4.29064
-5.662
-7.26862
-8.77233
-10.7755
-12.0712
-10.1938
-6.68264
-4.11003
-2.54469
-1.59242
-0.972732
-0.527806
-0.167503
1.05385
2.61075
3.83828
4.69935
4.46287
4.12969
4.06834
3.59783
3.17339
3.07147
3.26491
3.51911
3.45556
3.627
3.82924
3.44949
3.08281
2.94419
2.56839
2.23873
2.13104
2.22284
2.35387
2.27152
2.33263
2.40701
2.10768
1.80283
1.68222
1.72379
1.7992
1.70582
1.72149
1.74989
1.49751
1.23987
1.07886
0.819668
0.56273
0.362779
0.180768
-0.0242188
-0.317538
-0.687538
-1.08463
-1.41555
-1.8323
-2.36926
-2.7628
-3.30645
-4.22901
-5.7513
-7.56447
-9.12458
-11.6555
-13.6381
-11.2403
-6.78238
-3.91052
-2.32733
-1.42423
-0.859315
-0.463216
-0.146585
1.24647
2.89149
4.21549
5.25152
4.75415
4.27609
4.31172
3.69467
3.15651
3.04724
3.31757
3.6737
3.50634
3.74322
4.08923
3.56231
3.11784
3.05715
2.5973
2.20138
2.09551
2.2435
2.44534
2.2972
2.39921
2.56177
2.16443
1.7875
1.66366
1.74793
1.87952
1.73537
1.78292
1.88157
1.56229
1.26872
1.14151
0.854253
0.577407
0.385321
0.217947
0.030671
-0.268916
-0.660712
-1.08463
-1.38498
-1.79977
-2.39364
-2.71454
-3.20046
-4.11704
-5.81098
-7.86975
-9.3756
-12.5455
-15.5237
-12.4233
-6.73754
-3.60579
-2.05935
-1.23349
-0.735933
-0.394425
-0.124507
1.49923
3.18591
4.59949
5.90352
5.03114
4.37455
4.59722
3.7809
3.1057
2.99338
3.36099
3.86386
3.52222
3.84554
4.40844
3.66353
3.12031
3.19745
2.61979
2.14221
2.041
2.25889
2.56109
2.30153
2.45799
2.75504
2.21707
1.75238
1.62909
1.76719
1.97861
1.74811
1.83753
2.04129
1.62216
1.28286
1.21435
0.88648
0.584588
0.404882
0.255112
0.0922456
-0.214962
-0.632464
-1.09463
-1.34649
-1.75418
-2.43903
-2.65505
-3.06428
-3.94712
-5.83855
-8.20639
-9.48109
-13.4122
-17.8183
-13.7635
-6.48817
-3.18622
-1.74483
-1.02455
-0.60533
-0.322854
-0.101705
1.83791
3.48764
4.9748
6.68792
5.28006
4.4037
4.94704
3.85293
3.0155
2.90639
3.39251
4.10813
3.48824
3.92568
4.81039
3.74543
3.07682
3.38002
2.63389
2.0578
1.96527
2.26737
2.7133
2.2749
2.50382
3.00163
2.26202
1.69357
1.57669
1.78017
2.10601
1.73663
1.8813
2.24007
1.67351
1.27636
1.30318
0.915371
0.582419
0.421377
0.291624
0.161805
-0.155208
-0.602151
-1.11973
-1.29818
-1.69009
-2.51709
-2.58387
-2.89905
-3.71006
-5.82969
-8.60913
-9.38558
-14.2057
-20.6381
-15.2832
-5.95594
-2.64744
-1.39075
-0.802485
-0.470329
-0.24988
-0.0785898
2.29876
3.78717
5.31842
7.64901
5.48216
4.3356
5.39228
3.90445
2.88
2.78296
3.40713
4.432
3.38426
3.97207
5.32657
3.79696
2.96954
3.62556
2.63588
1.94439
1.86616
2.26573
2.91861
2.20431
2.52948
3.32111
2.29346
1.60682
1.50491
1.78429
2.27483
1.69087
1.90868
2.49271
1.71116
1.24149
1.41615
0.939282
0.568718
0.435039
0.326547
0.240984
-0.0892788
-0.568389
-1.16668
-1.23755
-1.5994
-2.64313
-2.49901
-2.70752
-3.3949
-5.77661
-9.12967
-9.02087
-14.8556
-24.1315
-17.0051
-5.04008
-1.99351
-1.00696
-0.572821
-0.33368
-0.176774
-0.0555315
2.93167
4.07094
5.5976
8.84611
5.61235
4.13426
5.97535
3.92508
2.6931
2.62034
3.39634
4.86984
3.18371
3.96904
5.9985
3.80283
2.77525
3.9621
2.61936
1.79803
1.74184
2.24849
3.19945
2.07254
2.5252
3.73913
2.30249
1.48774
1.41268
1.77517
2.50266
1.59752
1.91222
2.81874
1.72789
1.1683
1.56445
0.955565
0.540967
0.446551
0.358532
0.331839
-0.0170227
-0.528739
-1.24418
-1.16159
-1.47051
-2.83709
-2.39605
-2.49475
-2.98878
-5.66581
-9.84147
-8.30467
-15.2644
-28.4861
-18.9507
-3.61291
-1.24082
-0.605811
-0.341146
-0.197924
-0.104661
-0.032853
3.80397
4.32041
5.76723
10.3573
5.6376
3.75409
6.75291
3.89854
2.44883
2.41685
3.34659
5.46715
2.85221
3.89582
6.8799
3.74244
2.46429
4.42695
2.5741
1.61481
1.59111
2.20686
3.58545
1.85721
2.4781
4.28877
2.27603
1.33207
1.29974
1.74578
2.81279
1.43925
1.88213
3.24343
1.71385
1.04427
1.76307
0.960138
0.496318
0.457203
0.385659
0.436945
0.061291
-0.479307
-1.36341
-1.06682
-1.28748
-3.12476
-2.26707
-2.26894
-2.47701
-5.47513
-10.8451
-7.13946
-15.3012
-33.9369
-21.1393
-1.51515
-0.422852
-0.201267
-0.112737
-0.0652798
-0.0344892
-0.0108221
)
;

boundaryField
{
    left
    {
        type            calculated;
        value           uniform 0;
    }
    right
    {
        type            calculated;
        value           uniform 0;
    }
    interface
    {
        type            calculated;
        value           nonuniform List<scalar> 
64
(
3.80397
4.32041
5.76723
10.3573
5.6376
3.75409
6.75291
3.89854
2.44883
2.41685
3.34659
5.46715
2.85221
3.89582
6.8799
3.74244
2.46429
4.42695
2.5741
1.61481
1.59111
2.20686
3.58545
1.85721
2.4781
4.28877
2.27603
1.33207
1.29974
1.74578
2.81279
1.43925
1.88213
3.24343
1.71385
1.04427
1.76307
0.960138
0.496318
0.457203
0.385659
0.436945
0.061291
-0.479307
-1.36341
-1.06682
-1.28748
-3.12476
-2.26707
-2.26894
-2.47701
-5.47513
-10.8451
-7.13946
-15.3012
-33.9369
-21.1393
-1.51515
-0.422852
-0.201267
-0.112737
-0.0652798
-0.0344892
-0.0108221
)
;
    }
    bottom
    {
        type            calculated;
        value           nonuniform List<scalar> 
64
(
0.00630503
0.0187346
0.030639
0.0417206
0.0517504
0.060579
0.0681361
0.0744195
0.0794788
0.083397
0.0862737
0.0882133
0.0893178
0.089684
0.0894043
0.0885679
0.0872616
0.085569
0.0835678
0.0813265
0.0789009
0.0763317
0.0736438
0.0708473
0.0679399
0.0649096
0.0617368
0.058396
0.0548562
0.0510817
0.0470321
0.0426638
0.0379317
0.0327911
0.0272002
0.0211215
0.0145226
0.00737741
-0.000333656
-0.00862227
-0.01749
-0.0269245
-0.0368945
-0.0473424
-0.0581769
-0.0692632
-0.080414
-0.0913823
-0.101857
-0.111465
-0.119783
-0.12636
-0.130754
-0.13257
-0.131512
-0.127416
-0.120278
-0.110248
-0.0976158
-0.0827653
-0.0661298
-0.0481504
-0.029247
-0.00980741
)
;
    }
    defaultFaces
    {
        type            empty;
    }
}


// ************************************************************************* //
