/*--------------------------------*- C++ -*----------------------------------*\
| =========                 |                                                 |
| \\      /  F ield         | OpenFOAM: The Open Source CFD Toolbox           |
|  \\    /   O peration     | Version:  5.x                                   |
|   \\  /    A nd           | Web:      www.OpenFOAM.org                      |
|    \\/     M anipulation  |                                                 |
\*---------------------------------------------------------------------------*/
FoamFile
{
    version     2.0;
    format      ascii;
    class       volScalarField;
    location    "2.9001";
    object      gradTy;
}
// * * * * * * * * * * * * * * * * * * * * * * * * * * * * * * * * * * * * * //

dimensions      [0 -1 0 1 0 0 0];

internalField   nonuniform List<scalar> 
6300
(
32285.1
32255.2
32225.2
32195
32164.6
32133.9
32102.8
32071.3
32039.3
32006.8
31973.8
31940.2
31906
31871.2
31835.9
0.052044
0.155647
0.257772
0.35733
0.453083
0.5436
0.62724
0.702173
0.766443
0.818081
0.855293
0.876694
0.881582
0.870204
0.843937
0.0872604
0.261015
0.432418
0.599713
0.760878
0.913545
1.05496
1.18201
1.29129
1.37932
1.44286
1.47928
1.48713
1.46662
1.42002
0.123245
0.368744
0.611184
0.848244
1.07719
1.29477
1.49708
1.67964
1.83741
1.9651
2.05757
2.11048
2.12109
2.08917
2.0178
0.160222
0.479534
0.795333
1.10489
1.40489
1.69125
1.95897
2.20207
2.41363
2.58611
2.71186
2.784
2.79759
2.75118
2.64825
0.19833
0.593836
0.98573
1.37109
1.74622
2.10638
2.44549
2.75603
3.02892
3.25385
3.41977
3.51605
3.53411
3.46973
3.32574
0.237591
0.711752
1.18266
1.64752
2.10253
2.54255
2.9606
3.34763
3.6922
3.9806
4.19734
4.32634
4.35308
4.26788
4.07045
0.277872
0.83292
1.38566
1.93379
2.47386
3.00067
3.50675
3.9817
4.41165
4.77902
5.06265
5.2389
5.284
5.1783
4.91306
0.31885
0.956399
1.59326
2.22813
2.85843
3.47954
4.08405
4.66076
5.1937
5.66119
6.03536
6.28263
6.36575
6.2483
5.90302
0.359979
1.08057
1.80284
2.52707
3.2522
3.97502
4.68914
5.3836
6.04122
6.63671
7.13501
7.49054
7.64809
7.54615
7.12291
0.400473
1.20308
2.01046
2.8251
3.64827
4.47921
5.3139
6.1433
6.95088
7.70943
8.37748
8.89644
9.18992
9.16522
8.71041
0.439309
1.32081
2.21082
3.11461
4.0366
4.97967
5.94396
6.92484
7.90961
8.87268
9.76904
10.5278
11.0498
11.214
10.8763
0.475266
1.43002
2.39742
3.38593
4.40384
5.4589
6.55746
7.70251
8.89009
10.1027
11.2982
12.3958
13.2668
13.764
13.8341
0.507008
1.52657
2.56293
3.62786
4.73392
5.89467
7.12449
8.43767
9.84561
11.3497
12.9253
14.4901
15.8569
16.7397
17.2426
0.533208
1.60632
2.69988
3.82866
5.00934
6.26137
7.60815
9.07812
10.705
12.5251
14.5629
16.7821
18.9299
20.0938
17.7342
31802.9
31772.6
31742
31710.9
31679.6
31648
31616.1
31583.9
31551.5
31518.9
31486.1
31453.1
31420
31386.7
31353.3
31319.9
31286.3
31252.7
31219.1
31185.4
31151.7
31118
31084.4
31050.7
31017
30983.2
30949.5
30915.8
30882.1
30848.4
30814.7
30781.1
30747.4
30713.8
30680.3
30646.8
30613.3
30579.9
30546.5
30513.1
30479.7
30446.4
30413.1
30379.8
30346.6
30313.3
30280.2
30247
30213.9
30180.9
30147.9
30115
30082.1
30049.3
30016.5
29983.7
29951
29918.3
29885.6
29853
29820.4
29787.8
29755.3
29722.9
29690.6
29658.3
29626
29593.9
29561.7
29529.7
29497.6
29465.6
29433.7
29401.8
29369.9
29338.1
29306.3
29274.6
29242.9
29211.3
29179.7
29148.1
29116.6
29085
29053.4
29021.7
28989.9
28958.1
28926.1
28894.1
0.808517
0.769896
0.727045
0.682096
0.636833
0.592456
0.549458
0.507642
0.466284
0.424418
0.381152
0.335986
0.289031
0.241107
0.19368
0.148652
0.10805
0.0736632
0.0467127
0.0276195
0.0159062
0.0102539
0.00869751
0.00892771
0.00864766
0.0059288
-0.000492134
-0.0110236
-0.0251715
-0.0416448
-0.0586016
-0.0739936
-0.0859458
-0.0931
-0.0948606
-0.0915003
-0.0841141
-0.074433
-0.0645338
-0.0564918
-0.0520342
-0.0522497
-0.0574032
-0.0668884
-0.0793312
-0.0928303
-0.105294
-0.114813
-0.119994
-0.120205
-0.115669
-0.107429
-0.0971534
-0.0868565
-0.078554
-0.0739221
-0.074012
-0.0790664
-0.0884735
-0.100867
-0.114361
-0.126883
-0.136534
-0.141919
-0.142379
-0.138092
-0.130022
-0.119734
-0.109113
-0.100016
-0.0939397
-0.0917248
-0.0933757
-0.0980069
-0.103939
-0.108933
-0.110524
-0.106401
-0.0947758
-0.0746679
-0.0460915
-0.010112
0.0312182
0.0750325
0.117914
0.156232
0.186515
0.205848
0.212225
0.204806
1.35749
1.28961
1.21478
1.13701
1.05964
0.984879
0.913504
0.844928
0.77751
0.709117
0.637778
0.562298
0.482717
0.400497
0.318412
0.240134
0.16961
0.110344
0.0647454
0.0336685
0.0162288
0.00991682
0.010979
0.0149991
0.0175843
0.0150484
0.00498521
-0.0133619
-0.0390008
-0.0693894
-0.100911
-0.12955
-0.151635
-0.164513
-0.167022
-0.15969
-0.144637
-0.12521
-0.105422
-0.0892805
-0.0801267
-0.0800693
-0.0896245
-0.107617
-0.131375
-0.157195
-0.181001
-0.199076
-0.208719
-0.20871
-0.199498
-0.183109
-0.162782
-0.142416
-0.125912
-0.116518
-0.116277
-0.125666
-0.143507
-0.167147
-0.192921
-0.216797
-0.235088
-0.245098
-0.245573
-0.236887
-0.220939
-0.200791
-0.180125
-0.162581
-0.151104
-0.147395
-0.151541
-0.161914
-0.175344
-0.187568
-0.193871
-0.189827
-0.171988
-0.138431
-0.0890857
-0.0258309
0.0476373
0.126121
0.203393
0.272796
0.327925
0.36336
0.375341
0.362293
1.92241
1.8194
1.70684
1.59143
1.47879
1.37251
1.27361
1.18064
1.09024
0.998165
0.900472
0.794626
0.680315
0.55981
0.43778
0.320571
0.215081
0.127471
0.0619978
0.0202137
0.000664304
-0.000899507
0.00914357
0.0232822
0.0340432
0.0351578
0.0225446
-0.00504453
-0.0458327
-0.0953419
-0.147211
-0.194381
-0.230417
-0.250689
-0.253184
-0.238828
-0.211287
-0.176336
-0.140882
-0.111832
-0.0949438
-0.0938694
-0.109518
-0.139865
-0.180272
-0.224282
-0.264782
-0.295302
-0.311165
-0.310286
-0.293483
-0.264283
-0.228291
-0.192238
-0.162857
-0.145761
-0.144499
-0.159925
-0.190018
-0.230184
-0.274049
-0.314588
-0.345402
-0.361845
-0.3618
-0.345985
-0.317747
-0.282444
-0.246493
-0.21626
-0.19694
-0.191611
-0.200602
-0.221284
-0.248355
-0.274598
-0.291993
-0.292995
-0.271715
-0.224811
-0.151998
-0.0561486
0.056939
0.179054
0.300301
0.410006
0.497785
0.55473
0.57458
0.554672
2.5108
2.36296
2.20299
2.04185
1.88879
1.7495
1.62519
1.51266
1.40538
1.29531
1.17491
1.03915
0.886836
0.721321
0.550207
0.384133
0.234806
0.112722
0.0251368
-0.0252603
-0.0408008
-0.0284313
0.00140879
0.036427
0.0643908
0.0750329
0.0616666
0.0222768
-0.0401096
-0.1179
-0.200281
-0.275249
-0.331903
-0.362467
-0.363619
-0.336956
-0.288615
-0.228189
-0.167129
-0.116875
-0.0869953
-0.0835952
-0.10825
-0.157634
-0.223987
-0.296427
-0.362943
-0.412641
-0.437725
-0.434801
-0.405329
-0.355246
-0.293895
-0.232459
-0.182117
-0.152214
-0.148698
-0.173073
-0.22203
-0.287905
-0.359972
-0.426392
-0.476419
-0.502339
-0.500746
-0.472977
-0.424737
-0.365035
-0.304635
-0.254231
-0.222635
-0.215213
-0.232831
-0.271455
-0.322563
-0.374371
-0.413723
-0.428251
-0.408339
-0.348502
-0.248082
-0.111288
0.0532417
0.233238
0.413829
0.578788
0.712047
0.799517
0.831069
0.802278
3.13213
2.92401
2.7008
2.48065
2.27894
2.1049
1.95979
1.8371
1.72456
1.6073
1.47148
1.3075
1.11237
0.890891
0.65537
0.42357
0.215295
0.048284
-0.0652855
-0.120939
-0.122468
-0.0811331
-0.013795
0.0597172
0.119668
0.149466
0.138248
0.0826982
-0.0122203
-0.133862
-0.264042
-0.382506
-0.470978
-0.516617
-0.514125
-0.466318
-0.383365
-0.280976
-0.177833
-0.0926017
-0.0409364
-0.0329432
-0.071393
-0.15099
-0.258957
-0.377126
-0.485345
-0.565447
-0.604639
-0.597569
-0.546879
-0.462456
-0.359647
-0.256729
-0.171971
-0.120691
-0.112759
-0.150846
-0.229702
-0.336731
-0.45405
-0.561825
-0.642171
-0.682473
-0.677404
-0.629468
-0.54825
-0.448651
-0.348399
-0.265139
-0.213533
-0.202775
-0.234826
-0.303665
-0.395775
-0.492095
-0.571207
-0.613111
-0.602461
-0.530642
-0.39655
-0.206376
0.0272666
0.28656
0.549861
0.793212
0.992239
1.12482
1.17445
1.13357
3.79975
3.50678
3.19424
2.89291
2.62924
2.41863
2.26209
2.14693
2.0505
1.946
1.8086
1.6207
1.37582
1.08068
0.755164
0.429124
0.136351
-0.0931226
-0.23912
-0.294572
-0.265874
-0.171296
-0.0379061
0.102518
0.21835
0.282943
0.278651
0.199791
0.0541309
-0.13755
-0.344697
-0.532972
-0.671755
-0.7401
-0.729911
-0.646316
-0.50613
-0.334872
-0.162773
-0.0200187
0.0679838
0.08456
0.0246895
-0.103523
-0.279264
-0.472182
-0.648263
-0.777193
-0.838201
-0.823179
-0.737032
-0.596174
-0.425583
-0.254879
-0.113646
-0.0267752
-0.0105831
-0.0699413
-0.196833
-0.370769
-0.561899
-0.736782
-0.865616
-0.927967
-0.915817
-0.833912
-0.698258
-0.533233
-0.367717
-0.230489
-0.145636
-0.12871
-0.183868
-0.30238
-0.462944
-0.63461
-0.782286
-0.873661
-0.884679
-0.802464
-0.625783
-0.364068
-0.0356542
0.334105
0.714612
1.07145
1.36811
1.56955
1.64815
1.59027
4.53491
4.11777
3.6716
3.25099
2.90316
2.6545
2.50481
2.42975
2.38804
2.33205
2.21844
2.01596
1.71162
1.31421
0.855699
0.386762
-0.0337584
-0.35475
-0.54336
-0.589398
-0.504167
-0.317366
-0.0721676
0.180712
0.390795
0.515595
0.526409
0.413053
0.186728
-0.11899
-0.452555
-0.754734
-0.973992
-1.0767
-1.05143
-0.907834
-0.673669
-0.390013
-0.105487
0.131375
0.279725
0.312114
0.219151
0.0123527
-0.274868
-0.591519
-0.879113
-1.08678
-1.18129
-1.15124
-1.00601
-0.772743
-0.491721
-0.210629
0.0229235
0.16888
0.200348
0.108176
-0.0962585
-0.380083
-0.693178
-0.978083
-1.18483
-1.28077
-1.25471
-1.11578
-0.890591
-0.618554
-0.34633
-0.120447
0.0200503
0.0491268
-0.041704
-0.240565
-0.514147
-0.81169
-1.07445
-1.24994
-1.30116
-1.21033
-0.977478
-0.617814
-0.158122
0.36616
0.913431
1.43636
1.88106
2.19118
2.31836
2.23622
5.37577
4.77064
4.11224
3.50439
3.03439
2.74792
2.64009
2.66457
2.74613
2.80108
2.7562
2.5579
2.18142
1.63573
0.971229
0.274665
-0.347208
-0.807029
-1.05293
-1.07328
-0.888744
-0.547556
-0.117514
0.320506
0.686022
0.912358
0.952947
0.788963
0.43362
-0.0603597
-0.605639
-1.09594
-1.44409
-1.59763
-1.54338
-1.29981
-0.912513
-0.446445
0.0203981
0.410185
0.658412
0.720135
0.577495
0.243996
-0.228135
-0.752738
-1.2251
-1.55936
-1.70376
-1.64523
-1.40179
-1.01813
-0.558003
-0.0979651
0.285585
0.529355
0.589277
0.447906
0.118594
-0.347291
-0.865091
-1.33197
-1.66364
-1.80931
-1.75617
-1.52192
-1.15042
-0.70418
-0.258251
0.112513
0.346148
0.399597
0.255992
-0.0711802
-0.53087
-1.03888
-1.49232
-1.80517
-1.92224
-1.8227
-1.5118
-1.01561
-0.373612
0.365096
1.14729
1.91389
2.5878
3.07621
3.28998
3.1737
6.3978
5.50027
4.48015
3.5594
2.90154
2.58423
2.58492
2.81726
3.14252
3.41386
3.51489
3.35638
2.8949
2.1283
1.13292
0.0549945
-0.894034
-1.56738
-1.88731
-1.85221
-1.49894
-0.905727
-0.174377
0.564675
1.18164
1.57657
1.67404
1.4404
0.880115
0.0721071
-0.837934
-1.64186
-2.19449
-2.41782
-2.30798
-1.8988
-1.26483
-0.504039
0.257199
0.892794
1.30562
1.42239
1.21063
0.675224
-0.10589
-0.989232
-1.77001
-2.30538
-2.51852
-2.40553
-1.99953
-1.37369
-0.624209
0.124788
0.749476
1.15452
1.26802
1.05822
0.530061
-0.23979
-1.11038
-1.88062
-2.41033
-2.62419
-2.51845
-2.12574
-1.51792
-0.789402
-0.0619758
0.542894
0.931672
1.03379
0.817986
0.288995
-0.478049
-1.34465
-2.11268
-2.64235
-2.85523
-2.73945
-2.31294
-1.62341
-0.728372
0.301396
1.40358
2.52486
3.56164
4.35668
4.73684
4.57623
7.76271
6.4061
4.7047
3.23573
2.27838
1.96278
2.19634
2.83622
3.61657
4.2719
4.64732
4.59114
4.04774
2.9503
1.41345
-0.3503
-1.83786
-2.83669
-3.23295
-3.08934
-2.45466
-1.46285
-0.242361
0.984626
1.99696
2.66908
2.87192
2.56217
1.68331
0.35147
-1.22307
-2.54967
-3.41914
-3.71779
-3.50367
-2.82153
-1.79982
-0.562315
0.674883
1.69614
2.37912
2.59768
2.30977
1.46023
0.163518
-1.37346
-2.66836
-3.51547
-3.80297
-3.5878
-2.91388
-1.90735
-0.68977
0.526497
1.52961
2.19945
2.41225
2.12692
1.28951
0.0127231
-1.5002
-2.77569
-3.61191
-3.89931
-3.69403
-3.03936
-2.05925
-0.873101
0.310738
1.2844
1.92995
2.12573
1.83094
0.991934
-0.281894
-1.7924
-3.07628
-3.93573
-4.2615
-4.10366
-3.49284
-2.52713
-1.27716
0.133407
1.63235
3.2575
4.88355
6.23456
6.96236
6.76154
9.8395
7.80719
4.59333
2.1744
0.730772
0.550565
1.22275
2.65299
4.27069
5.53303
6.40126
6.52753
5.99838
4.40506
2.02072
-1.15332
-3.48548
-4.97374
-5.35601
-5.03364
-3.9247
-2.34927
-0.319726
1.71366
3.30217
4.43737
4.80789
4.50345
3.13876
0.980313
-1.96528
-4.11579
-5.4658
-5.7562
-5.37334
-4.23328
-2.64561
-0.620174
1.40349
2.9866
4.12132
4.50228
4.21763
2.88911
0.778883
-2.10632
-4.21155
-5.53143
-5.81128
-5.43075
-4.30722
-2.74494
-0.753489
1.23511
2.7896
3.90247
4.27376
3.99058
2.68163
0.60523
-2.23197
-4.30333
-5.6038
-5.88394
-5.51676
-4.42164
-2.89733
-0.953501
0.986063
2.49838
3.57584
3.92407
3.62751
2.32099
0.255049
-2.56649
-4.65106
-5.99761
-6.36414
-6.12019
-5.18376
-3.84017
-2.05722
-0.161843
1.67941
3.98884
6.60155
9.00986
10.5251
10.3783
13.4837
10.9078
3.3351
-0.293524
-2.63718
-2.08937
-0.842456
2.19981
5.43653
7.3617
9.22363
9.40771
9.48145
6.99889
3.76514
-3.16866
-6.34832
-8.70346
-8.49376
-8.11064
-6.06651
-3.88966
-0.402648
3.08329
5.26012
7.30677
7.71579
7.97148
5.7372
2.74262
-3.85244
-6.83465
-9.03835
-8.76414
-8.33343
-6.28963
-4.12181
-0.675527
2.76644
4.92268
6.94892
7.36529
7.62865
5.44359
2.51017
-3.96239
-6.88569
-9.0451
-8.77058
-8.34364
-6.33242
-4.2006
-0.813152
2.5688
4.68546
6.67331
7.07764
7.33128
5.17883
2.29324
-4.06662
-6.94108
-9.065
-8.80078
-8.38774
-6.42198
-4.33955
-1.02781
2.27658
4.33848
6.27179
6.65086
6.87837
4.74359
1.88001
-4.40184
-7.28861
-9.47072
-9.34589
-9.13385
-7.46101
-5.78588
-2.99916
-0.379139
1.05235
4.28357
8.61398
13.0713
16.4813
16.9744
20.3775
21.2056
-3.60002
-4.61251
-10.1698
-5.73612
-5.49291
1.46664
8.49104
9.28148
14.4622
12.4468
16.6457
10.6745
10.8377
-10.5899
-10.3985
-16.1265
-11.8812
-13.5795
-8.39941
-7.31661
-0.483977
6.33812
7.40559
12.5344
10.8446
15.0251
9.43053
9.6897
-10.942
-10.6745
-16.1791
-11.9974
-13.6163
-8.52451
-7.43893
-0.724601
5.9809
7.04603
12.0948
10.4487
14.5654
9.07578
9.33791
-10.9293
-10.6598
-16.0636
-11.9493
-13.5379
-8.53124
-7.46429
-0.86484
5.72457
6.76686
11.7245
10.0986
14.1368
8.7318
8.98424
-10.9202
-10.6596
-15.9651
-11.9318
-13.4946
-8.59027
-7.55194
-1.09146
5.35632
6.36381
11.2059
9.59594
13.5309
8.2157
8.42733
-11.126
-10.9408
-16.2657
-12.4531
-14.251
-9.74145
-9.33222
-3.70097
1.11517
-2.16612
2.99589
10.4441
18.6412
26.6384
31.1107
30.191
68.4215
-44.7918
-2.38151
-32.0882
-3.34793
-19.813
0.642042
20.5244
4.88139
30.065
6.53963
38.4569
5.51904
49.0034
-49.1398
-5.92178
-37.9082
-6.70709
-28.95
-4.82917
-19.0202
-0.546939
17.8829
3.70596
27.5844
5.52335
36.1585
4.69797
46.7232
-48.1227
-6.1989
-37.264
-6.87379
-28.5587
-4.98643
-18.8574
-0.75688
17.3216
3.43707
26.8855
5.23785
35.3396
4.42961
45.7322
-47.465
-6.25985
-36.7838
-6.91153
-28.2248
-5.05261
-18.6905
-0.897753
16.8725
3.21451
26.2602
4.96748
34.5448
4.14227
44.7053
-46.8073
-6.35884
-36.3089
-7.00086
-27.91
-5.18775
-18.5685
-1.13307
16.2738
2.871
25.4344
4.55982
33.5074
3.73241
43.4396
-46.2709
-6.6554
-36.2161
-7.47852
-28.4484
-6.11496
-20.3958
-3.22652
14.2723
-17.5419
-1.58291
11.1969
24.5001
41.8724
69.8243
28858.7
28820.1
28781.3
28742.4
28703.5
28664.7
28625.9
28587.2
28548.6
28510.1
28471.7
28433.4
28395.2
28357.1
28319
0.181975
0.14053
0.0874688
0.0288234
-0.0292644
-0.0813819
-0.123386
-0.152621
-0.167882
-0.169209
-0.15761
-0.134793
-0.102921
-0.0644351
-0.0219288
0.321342
0.246855
0.151773
0.0472551
-0.0555334
-0.146971
-0.219908
-0.269961
-0.295343
-0.296422
-0.275186
-0.234741
-0.178893
-0.111854
-0.0380405
0.490587
0.373835
0.22557
0.0640091
-0.0931055
-0.23102
-0.339277
-0.411939
-0.447079
-0.445926
-0.411953
-0.350076
-0.266048
-0.166045
-0.0564187
0.706675
0.532331
0.312666
0.0763185
-0.149876
-0.344723
-0.494238
-0.591436
-0.635105
-0.628248
-0.576621
-0.487561
-0.369179
-0.229857
-0.0780081
0.992808
0.736144
0.41644
0.078473
-0.237994
-0.503757
-0.701518
-0.824463
-0.873655
-0.855341
-0.778721
-0.654368
-0.493247
-0.306198
-0.103764
1.38204
1.00299
0.538474
0.0591254
-0.376817
-0.730795
-0.983613
-1.13124
-1.17971
-1.14074
-1.02855
-0.857943
-0.643243
-0.397921
-0.134616
1.92314
1.35531
0.675335
-0.0036313
-0.597606
-1.05899
-1.3709
-1.53717
-1.57321
-1.49935
-1.3368
-1.10561
-0.823858
-0.507627
-0.171393
2.69053
1.81974
0.811183
-0.151385
-0.950983
-1.53667
-1.90381
-2.07333
-2.07662
-1.94664
-1.71369
-1.40384
-1.03895
-0.637335
-0.214721
3.80158
2.42192
0.901026
-0.462119
-1.51828
-2.23288
-2.63435
-2.77573
-2.71327
-2.4969
-2.16747
-1.7571
-1.29077
-0.78804
-0.264875
5.44718
3.16529
0.833099
-1.07986
-2.42714
-3.24224
-3.62496
-3.68197
-3.50383
-3.16021
-2.70217
-2.16634
-1.57897
-0.959182
-0.321615
7.94083
3.95895
0.345917
-2.26328
-3.86819
-4.68397
-4.94129
-4.82335
-4.45987
-3.93794
-3.31466
-2.62713
-1.89957
-1.14811
-0.384016
11.7574
4.38378
-1.14512
-4.45098
-6.09837
-6.68415
-6.63286
-6.21027
-5.57434
-4.81702
-3.99139
-3.12793
-2.24406
-1.34966
-0.450359
17.2564
2.96405
-4.85917
-8.29714
-9.39015
-9.32139
-8.69574
-7.81051
-6.81019
-5.76441
-4.70593
-3.64913
-2.59909
-1.55611
-0.518115
21.9345
-4.92458
-12.9584
-14.4882
-13.8437
-12.5155
-11.0182
-9.52585
-8.0915
-6.72448
-5.41877
-4.16358
-2.94705
-1.75759
-0.584102
0.551633
1.66238
2.79603
3.9695
5.20242
6.51881
7.94952
9.53582
11.3347
13.4265
15.9217
18.9507
22.5425
25.8921
23.2592
0.562686
1.69589
2.85313
4.0523
5.31447
6.66602
8.14187
9.79108
11.6866
13.9445
16.7643
20.5284
26.0898
35.7803
57.6098
0.568301
1.71272
2.88112
4.09136
5.36448
6.72691
8.21385
9.87528
11.787
14.0724
16.9513
20.8578
26.7695
37.2416
60.0839
0.568491
1.7129
2.88006
4.08675
5.35249
6.70134
8.16465
9.78573
11.6278
13.7883
16.4248
19.7952
24.2823
30.1106
34.824
0.563522
1.69729
2.85155
4.04114
5.2828
6.59628
8.0059
9.54271
11.2474
13.1738
15.389
17.9579
20.8652
23.7519
25.4271
0.553888
1.66744
2.79851
3.95938
5.16324
6.42447
7.75883
9.18308
10.7132
12.3587
14.1077
15.8865
17.4642
18.2359
16.7324
0.540241
1.62543
2.72479
3.84779
5.00384
6.20188
7.44935
8.74992
10.0987
11.4718
12.8056
13.9551
14.6236
14.301
12.604
0.523324
1.5736
2.63465
3.71324
4.8153
5.94498
7.10299
8.28331
9.46721
10.6121
11.6315
12.3577
12.4715
11.3207
7.17314
0.503889
1.51428
2.53233
3.56241
4.60759
5.66844
6.74116
7.81422
8.86279
9.83961
10.6607
11.1856
11.1974
10.4212
8.82472
0.482639
1.44966
2.42165
3.40111
4.389
5.38367
6.37911
7.36215
8.30822
9.17521
9.89559
10.3697
10.4706
10.0913
9.29779
0.460181
1.38157
2.30581
3.23396
4.1657
5.09838
6.0257
6.93578
7.8086
8.61262
9.30149
9.81302
10.0771
10.049
9.80702
0.437012
1.31151
2.18724
3.06432
3.94177
4.81683
5.68426
6.53532
7.35678
8.13003
8.83056
9.42819
9.8865
10.1554
10.1352
0.413513
1.2406
2.06773
2.89444
3.71949
4.5406
5.35421
6.15542
6.93847
7.69795
8.43112
9.14014
9.82744
10.4627
10.8919
0.389971
1.16967
1.94853
2.72571
3.49995
4.26959
5.03277
5.78815
6.53654
7.28415
8.04848
8.86719
9.80457
10.913
11.8947
0.3666
1.09931
1.8305
2.55902
3.28361
4.00307
4.71675
5.42575
6.13517
6.85877
7.62807
8.51185
9.66289
11.4515
14.9197
0.34357
1.03001
1.71433
2.39508
3.07085
3.74056
4.404
5.06306
5.72397
6.40167
7.12819
7.97093
9.07848
10.8235
14.3535
0.321028
0.962185
1.60064
2.23459
2.86231
3.48242
4.09431
4.69908
5.30113
5.91066
6.54763
7.24613
8.05136
8.95615
9.45231
0.299111
0.896241
1.49008
2.07842
2.65907
3.22999
3.78956
4.33702
4.8731
5.40062
5.92434
6.44723
6.95513
7.37253
7.50814
0.277953
0.832582
1.38335
1.9276
2.46259
2.98545
3.49323
3.98287
4.45102
4.89323
5.30165
5.65876
5.92178
5.98461
5.57033
0.257684
0.771606
1.28115
1.78323
2.27453
2.75138
3.2095
3.64367
4.04697
4.40932
4.7146
4.93564
5.02745
4.92803
4.62636
0.238419
0.713676
1.18412
1.64634
2.09653
2.53033
2.94241
3.3259
3.67137
3.96506
4.18607
4.30227
4.26594
4.01192
3.44338
0.220254
0.659088
1.09282
1.5178
1.92992
2.32437
2.69518
3.03455
3.33173
3.57128
3.73034
3.77482
3.65561
3.31424
2.76937
0.203253
0.608042
1.00761
1.39819
1.77558
2.13483
2.46979
2.7725
3.03213
3.23342
3.35418
3.36107
3.19958
2.75789
1.68463
0.187443
0.560627
0.92863
1.28775
1.63386
1.96216
2.26681
2.54038
2.77306
2.95147
3.05712
3.06427
2.93814
2.64014
2.19435
0.172817
0.516812
0.855828
1.18634
1.5045
1.80592
2.08542
2.33668
2.55167
2.72007
2.82848
2.86002
2.79606
2.62503
2.3675
0.15933
0.476455
0.788932
1.09352
1.38678
1.66491
1.92366
2.15815
2.36265
2.53035
2.65321
2.72212
2.72836
2.66999
2.5753
0.146911
0.439328
0.727514
1.00858
1.27956
1.53736
1.77876
2.00047
2.19919
2.37177
2.51544
2.62775
2.70552
2.74021
2.70218
0.135467
0.405142
0.671041
0.930655
1.1815
1.4212
1.64754
1.85877
2.05389
2.23329
2.39945
2.55738
2.71262
2.86093
2.96373
0.124898
0.373579
0.618936
0.858817
1.0912
1.31431
1.52683
1.72826
1.91952
2.104
2.28918
2.4889
2.72455
3.01327
3.27035
0.115103
0.344327
0.570636
0.79219
1.00734
1.21479
1.41384
1.60482
1.78987
1.97425
2.16884
2.39547
2.69963
3.18762
4.15503
0.10599
0.317102
0.525641
0.730013
0.928837
1.12111
1.30644
1.48551
1.6607
1.8374
2.02627
2.24823
2.54707
3.02904
4.01506
0.0974817
0.291665
0.483543
0.671692
0.85489
1.03225
1.20342
1.36889
1.5305
1.69212
1.86073
2.0476
2.26737
2.52045
2.66895
0.0895151
0.267832
0.444037
0.616814
0.785003
0.947695
1.10435
1.25497
1.4003
1.54199
1.68252
1.82415
1.96454
2.08451
2.13282
0.0820444
0.245468
0.406914
0.565125
0.71894
0.867339
1.00948
1.14474
1.27265
1.39268
1.50358
1.60156
1.67593
1.69833
1.59251
0.0750363
0.224479
0.372041
0.516493
0.656644
0.791333
0.919404
1.03962
1.15047
1.24972
1.33361
1.3954
1.42341
1.40122
1.32692
0.0684662
0.204798
0.339329
0.470853
0.598146
0.719929
0.834787
0.94102
1.03635
1.11743
1.179
1.2127
1.20576
1.14032
0.989076
0.0623135
0.18637
0.308709
0.428156
0.543481
0.653339
0.756167
0.849996
0.932144
0.998708
1.04377
1.05824
1.02874
0.93902
0.794753
0.0565575
0.169137
0.280099
0.388324
0.492617
0.59164
0.683804
0.767092
0.838769
0.894929
0.929774
0.93434
0.893556
0.77561
0.478908
0.051174
0.153029
0.253393
0.351228
0.445418
0.534709
0.617612
0.69226
0.756178
0.805964
0.836819
0.841941
0.811966
0.736346
0.622174
0.0461335
0.137958
0.228446
0.316666
0.401627
0.48222
0.557162
0.624886
0.683412
0.730157
0.761746
0.773927
0.762086
0.723864
0.666657
0.0414007
0.123818
0.205075
0.284374
0.360873
0.433663
0.50173
0.56391
0.618836
0.664885
0.700161
0.722605
0.73054
0.724576
0.713697
0.0369354
0.110485
0.183067
0.254029
0.3227
0.388392
0.450394
0.507979
0.560433
0.607105
0.6475
0.681373
0.708659
0.728714
0.737291
0.0326937
0.097825
0.162188
0.225278
0.286601
0.34569
0.402132
0.455622
0.506056
0.553694
0.599379
0.644729
0.691812
0.740839
0.783722
0.0286307
0.0856999
0.142197
0.197759
0.252059
0.304832
0.355928
0.405394
0.453631
0.501652
0.551505
0.606894
0.673632
0.757246
0.841449
0.0247019
0.0739737
0.122857
0.171121
0.218582
0.265146
0.310862
0.356028
0.401367
0.448348
0.499799
0.561192
0.643749
0.773261
1.01935
0.0208653
0.062519
0.10395
0.145043
0.185734
0.226056
0.266186
0.306551
0.347973
0.391953
0.441202
0.500808
0.581275
0.708343
0.961995
0.0170829
0.0512204
0.0852816
0.119247
0.153148
0.187103
0.221356
0.256348
0.292811
0.331909
0.375427
0.425953
0.486459
0.555542
0.594997
0.0133207
0.0399764
0.0666822
0.093499
0.120531
0.147949
0.176019
0.205132
0.235831
0.268807
0.304798
0.344181
0.385703
0.423335
0.443615
0.00954924
0.028699
0.0480085
0.0676055
0.08765
0.108349
0.129965
0.152823
0.177278
0.203621
0.231827
0.260938
0.287666
0.303194
0.284278
0.00574273
0.0173122
0.0291378
0.0414048
0.0543196
0.0681162
0.0830562
0.0994134
0.117423
0.137153
0.158239
0.179361
0.197422
0.206986
0.204673
0.00187843
0.00574908
0.0099632
0.0147579
0.0203815
0.0270954
0.0351697
0.0448644
0.0563809
0.0697537
0.0846372
0.0999214
0.113092
0.119038
0.105764
-0.00206432
-0.00605114
-0.00961212
-0.0124611
-0.0143092
-0.0148645
-0.0138357
-0.0109423
-0.00594147
0.0013146
0.0107671
0.0219608
0.0337899
0.0444475
0.0533878
-0.00610502
-0.0181456
-0.0296794
-0.0403719
-0.0498933
-0.0579192
-0.0641296
-0.0682053
-0.0698218
-0.0686408
-0.0643023
-0.0564312
-0.0446881
-0.0289407
-0.00977545
-0.0102628
-0.0305907
-0.0503286
-0.0690926
-0.0865117
-0.10223
-0.1159
-0.127169
-0.135637
-0.14078
-0.141816
-0.137502
-0.125937
-0.104694
-0.0732018
-0.0145575
-0.0434442
-0.0716519
-0.098744
-0.124307
-0.147957
-0.169331
-0.188071
-0.203754
-0.215764
-0.223035
-0.2236
-0.213899
-0.187556
-0.130984
-0.01901
-0.056768
-0.0937475
-0.129454
-0.163428
-0.195259
-0.224587
-0.251089
-0.274413
-0.294032
-0.308901
-0.316819
-0.313407
-0.291401
-0.245957
-0.023644
-0.0706311
-0.116725
-0.161363
-0.204033
-0.244295
-0.281801
-0.316306
-0.347639
-0.37559
-0.399584
-0.417896
-0.425819
-0.411514
-0.344818
-0.0284866
-0.0851132
-0.140712
-0.194637
-0.246307
-0.295239
-0.341093
-0.38372
-0.423207
-0.459886
-0.494206
-0.526178
-0.553655
-0.567998
-0.550111
-0.0335693
-0.100308
-0.165859
-0.229474
-0.290478
-0.348316
-0.402621
-0.453307
-0.500717
-0.545814
-0.590448
-0.637571
-0.690602
-0.746852
-0.753648
-0.0389294
-0.116326
-0.192348
-0.266121
-0.336844
-0.403843
-0.466655
-0.525165
-0.579826
-0.632056
-0.684954
-0.744851
-0.825302
-0.960036
-1.25525
-0.04461
-0.133297
-0.220397
-0.304884
-0.385793
-0.462274
-0.533673
-0.599688
-0.660617
-0.717825
-0.774589
-0.837848
-0.922294
-1.06176
-1.34598
-0.0506598
-0.151371
-0.250259
-0.346128
-0.437814
-0.524228
-0.604426
-0.677736
-0.743986
-0.803894
-0.859707
-0.916122
-0.981066
-1.06294
-1.14421
-0.0571322
-0.170708
-0.282217
-0.390274
-0.493492
-0.590496
-0.679958
-0.760682
-0.831753
-0.892801
-0.944397
-0.988463
-1.02807
-1.06452
-1.08768
-0.0640822
-0.19148
-0.31657
-0.437778
-0.553483
-0.661996
-0.761554
-0.850327
-0.926474
-0.988264
-1.03431
-1.06389
-1.07726
-1.07532
-1.05753
-0.071564
-0.213855
-0.353616
-0.489101
-0.618465
-0.739713
-0.850635
-0.948735
-1.03116
-1.09466
-1.13564
-1.15057
-1.13706
-1.09712
-1.04514
-0.0796269
-0.237985
-0.39363
-0.544673
-0.689081
-0.824596
-0.948616
-1.05802
-1.14898
-1.21667
-1.25507
-1.25699
-1.21522
-1.12728
-1.00956
-0.0883119
-0.263997
-0.43684
-0.60485
-0.765869
-0.91746
-1.05674
-1.18012
-1.28296
-1.35903
-1.39983
-1.39375
-1.32542
-1.17813
-0.962801
-0.0976482
-0.291983
-0.483405
-0.669879
-0.849201
-1.01887
-1.1759
-1.31648
-1.43552
-1.52587
-1.57713
-1.57374
-1.49046
-1.27621
-0.772167
-0.107652
-0.32199
-0.533405
-0.739874
-0.939233
-1.12906
-1.30647
-1.4678
-1.60802
-1.71984
-1.79238
-1.8092
-1.74644
-1.57553
-1.30396
-0.118328
-0.354025
-0.586838
-0.814805
-1.03588
-1.24786
-1.44822
-1.63378
-1.80022
-1.94109
-2.04632
-2.09992
-2.07754
-1.94474
-1.64757
-0.129668
-0.388063
-0.643636
-0.894517
-1.13885
-1.37474
-1.60023
-1.81303
-2.01017
-2.1871
-2.3361
-2.44339
-2.48532
-2.42809
-2.26246
-0.141663
-0.42406
-0.70369
-0.978778
-1.24766
-1.50885
-1.76104
-2.00316
-2.23415
-2.45251
-2.65483
-2.83226
-2.96194
-2.98672
-2.7585
-0.154303
-0.461978
-0.766896
-1.06734
-1.36183
-1.6492
-1.92886
-2.20101
-2.4669
-2.72905
-2.99086
-3.25429
-3.51142
-3.72103
-3.78117
-0.167589
-0.501809
-0.833205
-1.16005
-1.48092
-1.7949
-2.10189
-2.40319
-2.70224
-3.00582
-3.32575
-3.6807
-4.09388
-4.55914
-4.80599
-0.181539
-0.543602
-0.90267
-1.25691
-1.60481
-1.94544
-2.27887
-2.60694
-2.93444
-3.27123
-3.63631
-4.06667
-4.64017
-5.54894
-7.386
-0.196192
-0.587475
-0.975485
-1.35817
-1.73375
-2.10097
-2.45957
-2.81109
-3.16018
-3.51698
-3.90155
-4.35323
-4.95364
-5.89407
-7.70626
-0.211611
-0.63362
-1.052
-1.46436
-1.86849
-2.26248
-2.64519
-3.01692
-3.38056
-3.74344
-4.12019
-4.5365
-5.03097
-5.63382
-6.19428
-0.227872
-0.682286
-1.13268
-1.57628
-2.01026
-2.43182
-2.83843
-3.22837
-3.60146
-3.96027
-4.31135
-4.66549
-5.03303
-5.40301
-5.69219
-0.245057
-0.733745
-1.21807
-1.69488
-2.16066
-2.61153
-3.04326
-3.45151
-3.83227
-4.18246
-4.50037
-4.78518
-5.03339
-5.22832
-5.31426
-0.263233
-0.78823
-1.30869
-1.82113
-2.32142
-2.80453
-3.26438
-3.69373
-4.08432
-4.42707
-4.71238
-4.93027
-5.07076
-5.12931
-5.13726
-0.282428
-0.845867
-1.40487
-1.95581
-2.4941
-3.01369
-3.50667
-3.96287
-4.36958
-4.71155
-4.97121
-5.12911
-5.16503
-5.06543
-4.86123
-0.302606
-0.906587
-1.50663
-2.09928
-2.67976
-3.24132
-3.7745
-4.26636
-4.6998
-5.05319
-5.3007
-5.41265
-5.35339
-5.07418
-4.57677
-0.323638
-0.970039
-1.61353
-2.25121
-2.87856
-3.48864
-4.07101
-4.61042
-5.08559
-5.46836
-5.72431
-5.81508
-5.6945
-5.23445
-3.6852
-0.345276
-1.03551
-1.72448
-2.41029
-3.08934
-3.75522
-4.39734
-4.99908
-5.53553
-5.9716
-6.26263
-6.36426
-6.27135
-6.15112
-6.83609
-0.367137
-1.10185
-1.8376
-2.57408
-3.30926
-4.03828
-4.75172
-5.43308
-6.05517
-6.57555
-6.93246
-7.04854
-6.86717
-6.50863
-6.86721
-0.388693
-1.16747
-1.95022
-2.73875
-3.53346
-4.33216
-5.12837
-5.90821
-6.64544
-7.293
-7.76952
-7.93938
-7.58602
-6.36818
-3.5951
-0.409278
-1.23034
-2.05881
-2.89914
-3.75486
-4.62777
-5.51636
-6.41293
-7.29798
-8.12921
-8.81952
-9.19354
-8.9052
-7.3078
-3.39044
-0.428118
-1.28807
-2.15917
-3.04883
-3.96433
-4.91248
-5.8988
-6.92563
-7.98789
-9.06325
-10.0892
-10.9077
-11.1334
-9.85849
-5.17435
-0.444378
-1.33805
-2.24663
-3.18056
-4.15112
-5.17068
-6.2531
-7.41372
-8.66867
-10.0316
-11.5028
-13.0334
-14.4038
-14.7766
-10.8919
-0.457223
-1.37768
-2.31647
-3.28687
-4.30386
-5.38522
-6.55308
-7.8363
-9.27444
-10.9248
-12.8752
-15.2703
-18.3669
-22.6514
-29.0395
-12.0225
-27.2965
-25.7888
-22.0269
-18.5349
-15.6078
-13.1562
-11.0575
-9.21442
-7.55613
-6.03178
-4.60395
-3.24406
-1.92928
-0.640293
-117.345
-61.2119
-39.5235
-28.8107
-22.4236
-18.0804
-14.8423
-12.2613
-10.0978
-8.2121
-6.51674
-4.95326
-3.48015
-2.06595
-0.685055
-130.435
-71.2073
-45.6363
-32.5904
-24.893
-19.7856
-16.0721
-13.175
-10.7881
-8.73589
-6.9101
-5.23981
-3.67533
-2.17948
-0.722326
-71.6194
-57.8302
-43.0511
-32.6557
-25.5638
-20.5226
-16.7349
-13.7343
-11.2461
-9.10239
-7.19548
-5.45287
-3.82284
-2.26615
-0.750912
-50.5397
-45.1403
-37.4216
-30.4269
-24.8104
-20.3892
-16.851
-13.9378
-11.465
-9.3044
-7.36673
-5.58773
-3.9194
-2.32403
-0.77018
-32.0918
-34.0611
-31.2892
-27.2408
-23.227
-19.6424
-16.533
-13.8355
-11.4669
-9.35161
-7.42779
-5.64574
-3.96529
-2.35306
-0.78008
-23.6774
-26.2744
-26.0433
-24.0307
-21.3453
-18.5658
-15.9289
-13.5049
-11.2928
-9.26585
-7.39038
-5.63317
-3.96381
-2.35482
-0.781078
-13.1738
-20.4516
-22.0345
-21.2879
-19.529
-17.39
-15.1771
-13.027
-10.9901
-9.07488
-7.27082
-5.5596
-3.9204
-2.3321
-0.774029
-15.913
-18.5835
-19.6433
-19.2479
-17.9765
-16.2655
-14.3816
-12.4705
-10.6029
-8.80672
-7.08678
-5.436
-3.84163
-2.28839