/*--------------------------------*- C++ -*----------------------------------*\
| =========                 |                                                 |
| \\      /  F ield         | OpenFOAM: The Open Source CFD Toolbox           |
|  \\    /   O peration     | Version:  5.x                                   |
|   \\  /    A nd           | Web:      www.OpenFOAM.org                      |
|    \\/     M anipulation  |                                                 |
\*---------------------------------------------------------------------------*/
FoamFile
{
    version     2.0;
    format      ascii;
    class       volScalarField;
    location    "2.9001";
    object      T;
}
// * * * * * * * * * * * * * * * * * * * * * * * * * * * * * * * * * * * * * //

dimensions      [0 0 0 1 0 0 0];

internalField   nonuniform List<scalar> 
6300
(
322.851
322.551
322.251
321.949
321.644
321.337
321.026
320.711
320.391
320.066
319.735
319.399
319.057
318.71
318.356
322.851
322.552
322.253
321.951
321.647
321.34
321.03
320.715
320.396
320.071
319.741
319.405
319.063
318.715
318.362
322.852
322.554
322.256
321.956
321.653
321.348
321.038
320.725
320.406
320.082
319.752
319.417
319.075
318.727
318.373
322.853
322.557
322.261
321.963
321.663
321.359
321.051
320.739
320.422
320.099
319.77
319.435
319.093
318.745
318.39
322.854
322.562
322.268
321.973
321.675
321.374
321.068
320.758
320.443
320.121
319.794
319.459
319.117
318.769
318.413
322.856
322.567
322.277
321.985
321.691
321.393
321.09
320.783
320.47
320.15
319.824
319.49
319.149
318.8
318.443
322.858
322.574
322.288
322
321.71
321.416
321.117
320.813
320.503
320.186
319.862
319.529
319.188
318.838
318.48
322.861
322.581
322.301
322.018
321.733
321.443
321.149
320.85
320.544
320.23
319.908
319.577
319.236
318.885
318.524
322.864
322.59
322.316
322.039
321.759
321.476
321.187
320.893
320.592
320.282
319.963
319.634
319.294
318.942
318.578
322.867
322.6
322.333
322.063
321.79
321.513
321.231
320.943
320.648
320.343
320.029
319.702
319.363
319.01
318.642
322.871
322.612
322.352
322.09
321.824
321.555
321.281
321.001
320.712
320.415
320.106
319.784
319.447
319.093
318.72
322.875
322.624
322.373
322.119
321.863
321.603
321.337
321.066
320.787
320.497
320.196
319.88
319.547
319.193
318.817
322.88
322.638
322.396
322.152
321.905
321.655
321.4
321.139
320.871
320.592
320.301
319.994
319.668
319.317
318.938
322.884
322.653
322.421
322.187
321.951
321.712
321.469
321.22
320.964
320.699
320.422
320.128
319.812
319.469
319.093
322.89
322.669
322.447
322.224
322
321.773
321.542
321.308
321.067
320.819
320.56
320.284
319.985
319.652
319.283
318.027
317.724
317.417
317.107
316.794
316.478
316.159
315.838
315.514
315.188
314.86
314.53
314.199
313.866
313.533
313.198
312.863
312.527
312.19
311.854
311.517
311.18
310.843
310.507
310.17
309.832
309.495
309.158
308.821
308.484
308.147
307.811
307.474
307.139
306.803
306.468
306.133
305.799
305.465
305.131
304.798
304.464
304.131
303.798
303.466
303.134
302.802
302.471
302.14
301.809
301.48
301.15
300.821
300.493
300.165
299.837
299.51
299.183
298.856
298.53
298.204
297.879
297.554
297.23
296.906
296.583
296.261
295.939
295.618
295.297
294.977
294.657
294.337
294.018
293.7
293.381
293.064
292.746
292.43
292.113
291.797
291.481
291.166
290.85
290.533
290.216
289.899
289.58
289.261
288.94
318.032
317.729
317.422
317.112
316.798
316.482
316.163
315.841
315.517
315.191
314.863
314.533
314.201
313.868
313.534
313.199
312.863
312.527
312.191
311.854
311.517
311.18
310.844
310.507
310.17
309.832
309.495
309.158
308.821
308.484
308.147
307.81
307.474
307.138
306.802
306.467
306.133
305.798
305.464
305.131
304.797
304.464
304.131
303.798
303.465
303.133
302.801
302.47
302.139
301.809
301.479
301.15
300.821
300.492
300.164
299.837
299.509
299.182
298.856
298.529
298.203
297.878
297.553
297.229
296.905
296.582
296.26
295.938
295.617
295.296
294.976
294.656
294.337
294.018
293.699
293.381
293.063
292.746
292.429
292.113
291.797
291.481
291.166
290.85
290.534
290.217
289.9
289.582
289.262
288.942
318.043
317.739
317.432
317.121
316.807
316.49
316.17
315.848
315.523
315.196
314.868
314.537
314.205
313.871
313.537
313.201
312.865
312.528
312.191
311.854
311.518
311.181
310.844
310.507
310.17
309.833
309.495
309.158
308.821
308.483
308.146
307.809
307.473
307.137
306.801
306.466
306.132
305.797
305.464
305.13
304.797
304.463
304.13
303.797
303.464
303.132
302.8
302.468
302.137
301.807
301.477
301.148
300.819
300.491
300.163
299.836
299.508
299.181
298.854
298.528
298.202
297.876
297.551
297.227
296.903
296.58
296.258
295.937
295.616
295.295
294.975
294.655
294.335
294.016
293.698
293.379
293.062
292.744
292.428
292.112
291.796
291.481
291.166
290.851
290.536
290.219
289.902
289.584
289.265
288.944
318.059
317.755
317.446
317.134
316.819
316.502
316.181
315.858
315.533
315.205
314.875
314.544
314.211
313.876
313.54
313.204
312.867
312.529
312.192
311.855
311.518
311.181
310.844
310.507
310.17
309.833
309.495
309.158
308.82
308.482
308.145
307.808
307.471
307.135
306.799
306.464
306.13
305.796
305.462
305.129
304.796
304.462
304.129
303.796
303.463
303.13
302.798
302.466
302.135
301.804
301.475
301.146
300.818
300.49
300.162
299.834
299.507
299.18
298.853
298.526
298.199
297.873
297.548
297.224
296.9
296.577
296.255
295.934
295.613
295.293
294.973
294.653
294.334
294.014
293.695
293.377
293.059
292.742
292.426
292.11
291.795
291.481
291.167
290.853
290.538
290.223
289.906
289.589
289.27
288.949
318.081
317.775
317.466
317.153
316.836
316.517
316.196
315.871
315.545
315.216
314.886
314.553
314.218
313.882
313.545
313.207
312.869
312.531
312.193
311.855
311.518
311.181
310.844
310.507
310.17
309.833
309.496
309.158
308.82
308.481
308.143
307.805
307.468
307.132
306.796
306.461
306.127
305.794
305.461
305.128
304.795
304.461
304.128
303.794
303.461
303.127
302.794
302.462
302.131
301.801
301.471
301.143
300.815
300.487
300.16
299.833
299.506
299.178
298.851
298.523
298.196
297.87
297.544
297.22
296.896
296.573
296.252
295.931
295.611
295.291
294.971
294.651
294.331
294.012
293.693
293.374
293.056
292.739
292.422
292.107
291.793
291.48
291.167
290.855
290.542
290.228
289.912
289.595
289.276
288.956
318.109
317.802
317.49
317.175
316.857
316.537
316.214
315.888
315.561
315.231
314.899
314.565
314.228
313.89
313.551
313.212
312.871
312.532
312.193
311.854
311.517
311.18
310.844
310.508
310.171
309.834
309.497
309.158
308.819
308.48
308.141
307.802
307.464
307.127
306.792
306.457
306.124
305.791
305.459
305.127
304.794
304.461
304.127
303.793
303.458
303.124
302.79
302.458
302.126
301.796
301.467
301.139
300.812
300.485
300.158
299.831
299.504
299.176
298.848
298.52
298.192
297.865
297.539
297.214
296.89
296.568
296.247
295.927
295.607
295.288
294.969
294.649
294.329
294.009
293.689
293.369
293.051
292.733
292.418
292.103
291.79
291.479
291.168
290.857
290.546
290.234
289.921
289.605
289.286
288.965
318.144
317.834
317.52
317.202
316.882
316.559
316.235
315.908
315.58
315.249
314.915
314.579
314.241
313.9
313.558
313.216
312.873
312.532
312.191
311.852
311.515
311.179
310.844
310.508
310.173
309.836
309.499
309.16
308.819
308.479
308.138
307.798
307.459
307.121
306.786
306.452
306.12
305.788
305.457
305.126
304.794
304.461
304.126
303.791
303.455
303.12
302.785
302.451
302.119
301.789
301.46
301.134
300.808
300.482
300.157
299.83
299.503
299.175
298.846
298.517
298.187
297.859
297.531
297.206
296.882
296.561
296.241
295.922
295.604
295.285
294.967
294.647
294.327
294.006
293.685
293.364
293.044
292.726
292.41
292.097
291.785
291.476
291.168
290.86
290.553
290.244
289.932
289.618
289.3
288.978
318.185
317.872
317.554
317.233
316.91
316.585
316.259
315.931
315.602
315.27
314.935
314.597
314.256
313.912
313.566
313.22
312.874
312.53
312.188
311.848
311.512
311.177
310.843
310.51
310.176
309.84
309.502
309.162
308.82
308.477
308.134
307.792
307.451
307.113
306.777
306.445
306.114
305.785
305.456
305.126
304.795
304.462
304.127
303.791
303.453
303.115
302.777
302.442
302.109
301.779
301.452
301.127
300.803
300.48
300.156
299.831
299.504
299.175
298.844
298.513
298.181
297.85
297.521
297.195
296.872
296.551
296.233
295.916
295.6
295.283
294.966
294.646
294.325
294.003
293.68
293.357
293.035
292.716
292.4
292.087
291.778
291.471
291.167
290.864
290.561
290.256
289.948
289.636
289.319
288.997
318.235
317.916
317.593
317.267
316.94
316.612
316.285
315.957
315.627
315.295
314.959
314.619
314.275
313.927
313.576
313.224
312.873
312.525
312.18
311.841
311.505
311.173
310.842
310.512
310.181
309.847
309.509
309.168
308.823
308.476
308.129
307.783
307.439
307.1
306.765
306.434
306.106
305.78
305.455
305.128
304.799
304.467
304.131
303.791
303.45
303.108
302.767
302.429
302.095
301.766
301.44
301.118
300.798
300.478
300.157
299.834
299.507
299.177
298.844
298.509
298.173
297.839
297.508
297.18
296.857
296.539
296.223
295.91
295.597
295.283
294.967
294.648
294.326
294.001
293.674
293.348
293.023
292.701
292.384
292.073
291.766
291.464
291.165
290.868
290.571
290.272
289.97
289.662
289.346
289.023
318.293
317.967
317.636
317.303
316.971
316.64
316.312
315.984
315.657
315.326
314.99
314.648
314.3
313.945
313.586
313.226
312.867
312.514
312.167
311.827
311.494
311.166
310.841
310.516
310.189
309.858
309.521
309.178
308.829
308.476
308.122
307.77
307.422
307.081
306.746
306.419
306.096
305.776
305.456
305.134
304.808
304.477
304.139
303.795
303.448
303.099
302.753
302.411
302.075
301.746
301.424
301.106
300.792
300.478
300.162
299.841
299.516
299.184
298.847
298.506
298.164
297.824
297.488
297.159
296.837
296.521
296.21
295.902
295.595
295.286
294.973
294.654
294.33
294.001
293.669
293.336
293.005
292.68
292.361
292.051
291.748
291.451
291.16
290.871
290.584
290.294
290
289.698
289.385
289.06
318.363
318.026
317.683
317.338
316.998
316.664
316.337
316.013
315.69
315.363
315.03
314.687
314.333
313.969
313.598
313.225
312.855
312.493
312.143
311.804
311.475
311.154
310.839
310.523
310.204
309.878
309.543
309.197
308.841
308.478
308.112
307.75
307.395
307.051
306.719
306.396
306.081
305.77
305.46
305.146
304.826
304.495
304.155
303.805
303.448
303.088
302.732
302.383
302.045
301.718
301.4
301.091
300.785
300.481
300.172
299.857
299.533
299.198
298.855
298.504
298.151
297.801
297.459
297.128
296.807
296.496
296.193
295.894
295.595
295.294
294.986
294.669
294.342
294.007
293.665
293.321
292.98
292.648
292.327
292.018
291.72
291.431
291.15
290.874
290.599
290.323
290.041
289.749
289.441
289.114
318.448
318.096
317.731
317.368
317.016
316.679
316.355
316.041
315.729
315.411
315.083
314.74
314.38
314.004
313.614
313.219
312.831
312.457
312.102
311.765
311.445
311.136
310.836
310.536
310.229
309.912
309.579
309.229
308.863
308.483
308.097
307.719
307.354
307.006
306.676
306.362
306.06
305.764
305.47
305.168
304.856
304.529
304.185
303.825
303.451
303.072
302.699
302.341
301.999
301.675
301.366
301.068
300.778
300.488
300.192
299.885
299.564
299.226
298.872
298.506
298.134
297.768
297.416
297.081
296.763
296.46
296.169
295.885
295.601
295.311
295.011
294.697
294.367
294.021
293.663
293.3
292.944
292.601
292.276
291.969
291.678
291.401
291.134
290.874
290.616
290.359
290.097
289.822
289.524
289.195
318.559
318.182
317.775
317.382
317.013
316.675
316.361
316.066
315.776
315.474
315.158
314.817
314.453
314.057
313.639
313.202
312.785
312.394
312.036
311.703
311.397
311.108
310.832
310.558
310.27
309.967
309.639
309.287
308.904
308.497
308.073
307.667
307.286
306.936
306.611
306.311
306.028
305.758
305.488
305.206
304.908
304.585
304.239
303.863
303.463
303.046
302.648
302.273
301.929
301.609
301.314
301.036
300.77
300.505
300.228
299.935
299.618
299.278
298.908
298.516
298.106
297.715
297.347
297.01
296.697
296.408
296.135
295.875
295.615
295.344
295.057
294.747
294.415
294.053
293.67
293.269
292.887
292.528
292.2
291.895
291.616
291.354
291.109
290.871
290.633
290.403
290.173
289.929
289.652
289.322
318.718
318.314
317.797
317.362
316.963
316.637
316.339
316.085
315.838
315.558
315.268
314.928
314.57
314.144
313.689
313.155
312.704
312.283
311.932
311.603
311.323
311.059
310.828
310.597
310.334
310.058
309.733
309.389
308.978
308.538
308.02
307.582
307.173
306.831
306.51
306.236
305.977
305.751
305.525
305.267
304.995
304.676
304.338
303.934
303.502
302.993
302.562
302.16
301.824
301.508
301.239
300.984
300.762
300.54
300.286
300.019
299.705
299.373
298.976
298.552
298.052
297.629
297.235
296.905
296.595
296.332
296.082
295.864
295.647
295.398
295.137
294.83
294.505
294.116
293.701
293.212
292.798
292.412
292.089
291.786
291.528
291.285
291.074
290.866
290.637
290.445
290.27
290.084
289.854
289.535
318.967
318.607
317.703
317.29
316.809
316.56
316.251
316.096
315.945
315.66
315.447
315.066
314.786
314.271
313.855
312.99
312.577
312.071
311.798
311.431
311.229
310.961
310.823
310.684
310.418
310.218
309.856
309.587
309.092
308.691
307.854
307.454
306.962
306.696
306.339
306.141
305.879
305.743
305.608
305.347
305.15
304.794
304.531
304.044
303.65
302.827
302.434
301.951
301.69
301.338
301.144
300.886
300.753
300.62
300.363
300.169
299.82
299.561
299.083
298.696
297.888
297.502
297.028
296.772
296.427
296.236
295.984
295.853
295.722
295.471
295.281
294.939
294.685
294.217
293.838
293.047
292.669
292.203
291.951
291.61
291.421
291.168
291.035
290.893
290.589
290.462
290.382
290.302
290.184
289.944
288.587
288.2
287.812
287.424
287.036
286.647
286.259
285.872
285.486
285.101
284.717
284.335
283.953
283.571
283.19
288.588
288.201
287.813
287.424
287.035
286.647
286.259
285.871
285.485
285.1
284.716
284.334
283.952
283.571
283.19
288.591
288.203
287.814
287.425
287.035
286.646
286.257
285.869
285.483
285.098
284.714
284.332
283.951
283.57
283.19
288.594
288.206
287.816
287.425
287.034
286.644
286.254
285.866
285.479
285.094
284.711
284.329
283.948
283.569
283.189
288.6
288.21
287.819
287.426
287.033
286.641
286.25
285.861
285.474
285.089
284.706
284.325
283.945
283.567
283.189
288.609
288.217
287.822
287.427
287.031
286.637
286.244
285.854
285.467
285.082
284.699
284.319
283.941
283.564
283.188
288.62
288.225
287.827
287.427
287.028
286.631
286.236
285.845
285.457
285.072
284.69
284.312
283.935
283.561
283.187
288.636
288.237
287.833
287.428
287.024
286.622
286.225
285.832
285.443
285.059
284.679
284.302
283.928
283.556
283.185
288.659
288.252
287.84
287.427
287.016
286.61
286.209
285.814
285.425
285.042
284.664
284.29
283.919
283.55
283.183
288.69
288.273
287.849
287.425
287.005
286.592
286.187
285.79
285.401
285.02
284.645
284.274
283.907
283.543
283.181
288.735
288.301
287.858
287.418
286.986
286.565
286.156
285.758
285.371
284.992
284.62
284.255
283.893
283.535
283.178
288.799
288.336
287.866
287.403
286.956
286.527
286.114
285.716
285.331
284.957
284.59
284.231
283.876
283.524
283.174
288.893
288.38
287.865
287.373
286.909
286.471
286.057
285.662
285.282
284.913
284.554
284.202
283.855
283.512
283.17
289.034
288.424
287.843
287.314
286.834
286.393
285.981
285.592
285.22
284.86
284.511
284.168
283.831
283.497
283.165
289.239
288.439
287.768
287.207
286.721
286.285
285.883
285.506
285.145
284.798
284.46
284.129
283.803
283.481
283.16
322.895
322.684
322.472
322.26
322.047
321.832
321.614
321.394
321.169
320.939
320.701
320.449
320.174
319.852
319.434
322.899
322.698
322.496
322.294
322.091
321.887
321.681
321.475
321.266
321.054
320.838
320.615
320.378
320.101
319.684
322.904
322.712
322.52
322.328
322.135
321.943
321.75
321.557
321.364
321.171
320.98
320.791
320.609
320.449
320.394
322.909
322.726
322.544
322.362
322.18
321.999
321.818
321.639
321.462
321.288
321.12
320.963
320.824
320.722
320.686
322.914
322.741
322.568
322.396
322.225
322.054
321.886
321.72
321.558
321.401
321.254
321.121
321.013
320.95
320.975
322.918
322.755
322.592
322.429
322.268
322.109
321.952
321.798
321.65
321.508
321.377
321.262
321.172
321.118
321.109
322.923
322.768
322.615
322.462
322.311
322.162
322.015
321.873
321.736
321.607
321.489
321.386
321.304
321.254
321.254
322.927
322.782
322.637
322.493
322.352
322.212
322.076
321.944
321.818
321.699
321.59
321.495
321.415
321.356
321.319
322.931
322.795
322.659
322.524
322.391
322.261
322.134
322.011
321.894
321.784
321.683
321.592
321.512
321.443
321.373
322.936
322.807
322.679
322.553
322.428
322.307
322.188
322.074
321.966
321.863
321.768
321.681
321.602
321.53
321.467
322.94
322.819
322.699
322.58
322.464
322.35
322.24
322.134
322.033
321.937
321.848
321.765
321.687
321.611
321.528
322.943
322.83
322.718
322.607
322.498
322.392
322.289
322.19
322.096
322.007
321.923
321.844
321.77
321.697
321.63
322.947
322.841
322.735
322.632
322.53
322.431
322.335
322.243
322.155
322.073
321.995
321.922
321.851
321.78
321.697
322.95
322.851
322.752
322.655
322.56
322.467
322.378
322.293
322.211
322.135
322.064
321.997
321.934
321.872
321.812
322.953
322.86
322.768
322.677
322.588
322.502
322.419
322.339
322.264
322.194
322.129
322.069
322.015
321.962
321.895
322.956
322.869
322.783
322.698
322.615
322.534
322.457
322.383
322.314
322.249
322.191
322.139
322.095
322.063
322.06
322.959
322.877
322.796
322.717
322.639
322.564
322.492
322.424
322.36
322.301
322.248
322.202
322.166
322.143
322.135
322.962
322.885
322.809
322.735
322.662
322.592
322.525
322.461
322.402
322.348
322.3
322.259
322.229
322.212
322.218
322.964
322.892
322.821
322.752
322.684
322.618
322.555
322.496
322.441
322.391
322.347
322.31
322.282
322.266
322.26
322.966
322.899
322.832
322.767
322.703
322.642
322.583
322.528
322.476
322.429
322.388
322.354
322.328
322.312
322.311
322.968
322.905
322.843
322.781
322.722
322.664
322.609
322.557
322.508
322.464
322.425
322.392
322.366
322.348
322.337
322.97
322.911
322.852
322.794
322.738
322.684
322.632
322.583
322.537
322.495
322.458
322.425
322.399
322.379
322.368
322.972
322.916
322.861
322.807
322.754
322.703
322.654
322.607
322.564
322.524
322.487
322.455
322.427
322.403
322.383
322.974
322.921
322.869
322.818
322.768
322.72
322.673
322.629
322.588
322.549
322.514
322.481
322.452
322.425
322.396
322.975
322.925
322.876
322.828
322.781
322.735
322.691
322.65
322.61
322.573
322.538
322.506
322.476
322.447
322.42
322.976
322.93
322.883
322.838
322.793
322.75
322.708
322.668
322.63
322.595
322.561
322.529
322.499
322.468
322.436
322.978
322.933
322.889
322.846
322.804
322.763
322.723
322.686
322.649
322.615
322.582
322.551
322.521
322.491
322.462
322.979
322.937
322.895
322.854
322.814
322.775
322.738
322.702
322.667
322.634
322.603
322.573
322.544
322.514
322.481
322.98
322.94
322.901
322.862
322.824
322.787
322.751
322.716
322.684
322.652
322.622
322.594
322.566
322.539
322.512
322.981
322.943
322.906
322.869
322.832
322.797
322.763
322.73
322.699
322.669
322.641
322.614
322.589
322.564
322.535
322.982
322.946
322.91
322.875
322.84
322.807
322.774
322.743
322.713
322.685
322.659
322.634
322.611
322.592
322.581
322.983
322.948
322.914
322.881
322.848
322.816
322.785
322.755
322.727
322.7
322.675
322.652
322.632
322.615
322.602
322.984
322.951
322.918
322.886
322.855
322.824
322.795
322.766
322.739
322.713
322.69
322.668
322.649
322.634
322.626
322.984
322.953
322.922
322.891
322.861
322.832
322.803
322.776
322.75
322.726
322.703
322.682
322.664
322.649
322.638
322.985
322.955
322.925
322.896
322.867
322.839
322.811
322.785
322.76
322.737
322.715
322.695
322.677
322.663
322.652
322.986
322.957
322.928
322.9
322.872
322.845
322.819
322.793
322.769
322.746
322.725
322.706
322.688
322.673
322.66
322.986
322.958
322.931
322.903
322.877
322.851
322.825
322.801
322.777
322.755
322.734
322.715
322.697
322.682
322.669
322.987
322.96
322.933
322.907
322.881
322.856
322.831
322.808
322.785
322.763
322.743
322.723
322.705
322.688
322.673
322.987
322.961
322.935
322.91
322.885
322.86
322.837
322.814
322.791
322.77
322.75
322.731
322.712
322.694
322.677
322.987
322.962
322.937
322.913
322.888
322.865
322.842
322.819
322.797
322.777
322.756
322.737
322.719
322.701
322.683
322.988
322.963
322.939
322.915
322.892
322.868
322.846
322.824
322.803
322.782
322.763
322.743
322.725
322.707
322.688
322.988
322.964
322.941
322.917
322.894
322.872
322.85
322.828
322.808
322.788
322.768
322.749
322.731
322.713
322.695
322.988
322.965
322.942
322.919
322.897
322.875
322.853
322.832
322.812
322.792
322.773
322.755
322.737
322.719
322.7
322.989
322.966
322.943
322.921
322.899
322.878
322.857
322.836
322.816
322.797
322.778
322.76
322.742
322.725
322.708
322.989
322.967
322.945
322.923
322.901
322.88
322.859
322.839
322.82
322.801
322.783
322.765
322.748
322.731
322.714
322.989
322.967
322.946
322.924
322.903
322.882
322.862
322.842
322.823
322.804
322.786
322.769
322.753
322.738
322.725
322.989
322.968
322.946
322.925
322.904
322.884
322.864
322.844
322.825
322.807
322.79
322.773
322.758
322.743
322.73
322.989
322.968
322.947
322.926
322.905
322.885
322.865
322.846
322.828
322.81
322.793
322.776
322.761
322.747
322.735
322.989
322.968
322.947
322.927
322.906
322.886
322.867
322.848
322.829
322.812
322.795
322.779
322.764
322.75
322.737
322.989
322.969
322.948
322.927
322.907
322.887
322.868
322.849
322.831
322.813
322.797
322.781
322.766
322.752
322.74
322.99
322.969
322.948
322.927
322.907
322.887
322.868
322.849
322.831
322.814
322.798
322.782
322.767
322.754
322.741
322.99
322.969
322.948
322.927
322.907
322.887
322.868
322.85
322.832
322.814
322.798
322.782
322.768
322.754
322.742
322.989
322.969
322.948
322.927
322.907
322.887
322.868
322.849
322.831
322.814
322.798
322.782
322.768
322.754
322.742
322.989
322.968
322.947
322.927
322.906
322.886
322.867
322.848
322.83
322.813
322.797
322.782
322.767
322.754
322.741
322.989
322.968
322.947
322.926
322.906
322.885
322.866
322.847
322.829
322.812
322.795
322.78
322.766
322.753
322.741
322.989
322.968
322.946
322.925
322.904
322.884
322.864
322.845
322.827
322.81
322.793
322.778
322.764
322.751
322.739
322.989
322.967
322.945
322.924
322.903
322.882
322.862
322.843
322.824
322.807
322.79
322.775
322.761
322.748
322.736
322.989
322.966
322.944
322.922
322.901
322.88
322.86
322.84
322.821
322.803
322.787
322.771
322.757
322.744
322.734
322.989
322.966
322.943
322.921
322.899
322.877
322.857
322.837
322.817
322.799
322.782
322.766
322.751
322.738
322.727
322.988
322.965
322.941
322.919
322.896
322.874
322.853
322.832
322.813
322.794
322.777
322.76
322.745
322.731
322.721
322.988
322.964
322.94
322.916
322.893
322.871
322.849
322.828
322.808
322.789
322.771
322.754
322.738
322.722
322.706
322.987
322.963
322.938
322.913
322.89
322.866
322.844
322.822
322.802
322.782
322.764
322.746
322.73
322.714
322.699
322.987
322.961
322.936
322.91
322.886
322.862
322.839
322.816
322.795
322.775
322.756
322.738
322.721
322.705
322.687
322.987
322.96
322.933
322.907
322.881
322.857
322.833
322.81
322.788
322.767
322.748
322.73
322.713
322.696
322.68
322.986
322.958
322.93
322.903
322.877
322.851
322.826
322.802
322.78
322.759
322.739
322.721
322.703
322.687
322.67
322.985
322.956
322.927
322.899
322.871
322.844
322.819
322.794
322.771
322.749
322.729
322.711
322.694
322.678
322.663
322.985
322.954
322.924
322.894
322.865
322.837
322.81
322.785
322.761
322.739
322.718
322.7
322.683
322.668
322.653
322.984
322.952
322.92
322.889
322.858
322.829
322.801
322.774
322.749
322.727
322.706
322.687
322.671
322.658
322.647
322.983
322.949
322.916
322.883
322.851
322.82
322.791
322.763
322.737
322.713
322.692
322.673
322.658
322.647
322.64
322.982
322.946
322.911
322.876
322.843
322.81
322.779
322.75
322.723
322.698
322.676
322.657
322.642
322.632
322.625
322.981
322.943
322.906
322.869
322.834
322.799
322.766
322.736
322.707
322.681
322.658
322.638
322.624
322.614
322.612
322.98
322.94
322.9
322.861
322.824
322.787
322.752
322.72
322.689
322.661
322.637
322.617
322.601
322.591
322.587
322.979
322.936
322.894
322.853
322.813
322.774
322.737
322.702
322.67
322.64
322.613
322.591
322.574
322.564
322.566
322.977
322.932
322.888
322.844
322.801
322.76
322.72
322.683
322.648
322.616
322.587
322.562
322.542
322.529
322.524
322.976
322.928
322.88
322.834
322.788
322.744
322.702
322.662
322.625
322.59
322.558
322.53
322.506
322.488
322.486
322.974
322.923
322.873
322.823
322.774
322.727
322.682
322.639
322.599
322.561
322.527
322.495
322.465
322.437
322.401
322.973
322.918
322.864
322.811
322.759
322.709
322.661
322.615
322.572
322.531
322.493
322.457
322.423
322.39
322.358
322.971
322.913
322.855
322.798
322.743
322.69
322.638
322.589
322.543
322.499
322.458
322.419
322.381
322.343
322.298
322.969
322.907
322.845
322.785
322.726
322.669
322.614
322.561
322.512
322.465
322.421
322.38
322.34
322.3
322.263
322.967
322.9
322.835
322.77
322.707
322.646
322.588
322.532
322.479
322.429
322.383
322.339
322.297
322.256
322.21
322.964
322.894
322.823
322.754
322.687
322.622
322.559
322.5
322.444
322.391
322.343
322.297
322.255
322.215
322.177
322.962
322.886
322.811
322.738
322.666
322.596
322.529
322.466
322.406
322.351
322.3
322.254
322.211
322.171
322.129
322.959
322.878
322.798
322.719
322.642
322.568
322.496
322.429
322.365
322.307
322.254
322.207
322.166
322.13
322.101
322.957
322.87
322.784
322.7
322.618
322.538
322.461
322.389
322.321
322.26
322.205
322.157
322.116
322.084
322.067
322.954
322.861
322.77
322.679
322.591
322.505
322.423
322.345
322.273
322.208
322.15
322.101
322.061
322.028
321.987
322.95
322.852
322.754
322.657
322.562
322.47
322.382
322.298
322.22
322.15
322.089
322.039
322.002
321.976
321.953
322.947
322.842
322.737
322.634
322.532
322.433
322.338
322.247
322.162
322.086
322.02
321.969
321.935
321.921
321.927
322.944
322.831
322.719
322.609
322.5
322.393
322.29
322.191
322.099
322.015
321.942
321.886
321.853
321.854
321.896
322.94
322.82
322.701
322.583
322.466
322.351
322.239
322.132
322.029
321.935
321.852
321.787
321.749
321.757
321.841
322.936
322.809
322.682
322.556
322.431
322.307
322.186
322.068
321.954
321.847
321.75
321.669
321.613
321.608
321.715
289.453
288.335
287.599
287.04
286.571
286.155
285.771
285.41
285.065
284.732
284.407
284.089
283.775
283.464
283.154
289.058
287.975
287.323
286.825
286.398
286.013
285.654
285.313
284.985
284.666
284.355
284.049
283.746
283.447
283.149
287.498
287.315
286.94
286.56
286.197
285.853
285.524
285.206
284.897
284.595
284.298
284.006
283.717
283.429
283.143
286.884
286.788
286.562
286.281
285.983
285.683
285.386
285.093
284.805
284.52
284.239
283.961
283.685
283.411
283.137
286.304
286.351
286.223
286.015
285.771
285.511
285.245
284.977
284.71
284.443
284.179
283.915
283.653
283.391
283.13
286.042
286.036
285.939
285.774
285.57
285.343
285.105
284.861
284.614
284.365
284.117
283.868
283.62
283.372
283.124
285.769
285.783
285.701
285.561
285.384
285.184
284.969
284.746
284.519
284.288
284.055
283.821
283.587
283.352
283.117
285.647
285.598
285.505
285.374
285.214
285.034
284.84
284.636
284.425
284.211
283.994
283.774
283.554
283.333
283.111
285.549
285.442
285.334
285.206
285.059
284.894
284.716
284.529
284.335
284.136
283.934
283.728
283.521
283.313
283.104
285.382
285.288
285.177
285.053
284.915
284.763
284.6
284.428
284.249
284.064
283.875
283.684
283.49
283.294
283.098
285.272
285.145
285.03
284.91
284.78
284.64
284.49
284.331
284.166
283.995
283.819
283.64
283.459
283.276
283.092
285.093
284.994
284.886
284.773
284.652
284.523
284.385
284.24
284.087
283.929
283.766
283.599
283.43
283.259
283.086
284.975
284.85
284.745
284.641
284.53
284.413
284.287
284.153
284.012
283.866
283.714
283.559
283.401
283.242
283.081
284.777
284.692
284.604
284.512
284.414
284.308
284.193
284.071
283.941
283.806
283.666
283.522
283.375
283.226
283.075
284.633
284.537
284.465
284.389
284.304
284.209
284.105
283.993
283.874
283.75
283.62
283.486
283.349
283.21
283.07
284.351
284.366
284.329
284.272
284.2
284.116
284.023
283.921
283.812
283.697
283.577
283.453
283.325
283.196
283.065
284.225
284.23
284.208
284.164
284.103
284.03
283.946
283.854
283.754
283.647
283.536
283.421
283.303
283.183
283.061
284.085
284.113
284.103
284.068
284.016
283.951
283.876
283.791
283.699
283.601
283.499
283.392
283.282
283.17
283.057
284.015
284.024
284.013
283.984
283.938
283.88
283.811
283.734
283.649
283.559
283.464
283.365
283.262
283.158
283.053
283.931
283.947
283.938
283.911
283.869
283.816
283.753
283.682
283.604
283.52
283.432
283.339
283.244
283.147
283.049
283.888
283.888
283.875
283.848
283.808
283.759
283.7
283.634
283.562
283.484
283.402
283.316
283.228
283.137
283.046
283.838
283.838
283.821
283.793
283.755
283.708
283.653
283.591
283.524
283.451
283.375
283.295
283.212
283.128
283.043
283.814
283.798
283.776
283.745
283.707
283.662
283.61
283.552
283.489
283.421
283.35
283.275
283.198
283.12
283.04
283.793
283.764
283.736
283.703
283.665
283.621
283.571
283.517
283.458
283.394
283.327
283.257
283.186
283.112
283.037
283.757
283.729
283.698
283.664
283.626
283.584
283.536
283.485
283.429
283.369
283.307
283.241
283.174
283.105
283.035
283.733
283.697
283.663
283.629
283.591
283.55
283.505
283.455
283.403
283.347
283.288
283.226
283.163
283.098
283.033
283.693
283.662
283.629
283.595
283.558
283.518
283.475
283.429
283.379
283.326
283.27
283.213
283.153
283.092
283.031
283.666
283.629
283.596
283.563
283.528
283.49
283.449
283.404
283.357
283.307
283.255
283.2
283.144
283.087
283.029
283.621
283.593
283.563
283.532
283.499
283.463
283.424
283.382
283.337
283.29
283.24
283.189
283.136
283.082
283.027
283.589
283.558
283.531
283.503
283.472
283.438
283.401
283.362
283.319
283.274
283.228
283.179
283.129
283.078
283.026
283.526
283.519
283.5
283.476
283.447
283.416
283.381
283.343
283.303
283.26
283.216
283.17
283.122
283.074
283.025
283.499
283.489
283.473
283.451
283.425
283.395
283.362
283.326
283.288
283.248
283.205
283.161
283.116
283.07
283.023
283.469
283.464
283.449
283.429
283.405
283.377
283.345
283.311
283.275
283.236
283.196
283.154
283.111
283.067
283.022
283.454
283.444
283.43
283.411
283.388
283.361
283.331
283.298
283.263
283.226
283.187
283.147
283.106
283.064
283.021
283.437
283.428
283.414
283.395
283.373
283.347
283.318
283.286
283.253
283.217
283.18
283.141
283.102
283.061
283.021
283.428
283.416
283.401
283.382
283.36
283.335
283.307
283.276
283.244
283.209
283.173
283.136
283.098
283.059
283.02
283.419
283.407
283.391
283.372