/*--------------------------------*- C++ -*----------------------------------*\
| =========                 |                                                 |
| \\      /  F ield         | OpenFOAM: The Open Source CFD Toolbox           |
|  \\    /   O peration     | Version:  5.x                                   |
|   \\  /    A nd           | Web:      www.OpenFOAM.org                      |
|    \\/     M anipulation  |                                                 |
\*---------------------------------------------------------------------------*/
FoamFile
{
    version     2.0;
    format      ascii;
    class       volScalarField;
    location    "0.2001";
    object      gradTy;
}
// * * * * * * * * * * * * * * * * * * * * * * * * * * * * * * * * * * * * * //

dimensions      [0 -1 0 1 0 0 0];

internalField   nonuniform List<scalar> 
6300
(
32284.3
32252.7
32221.1
32189.4
32157.4
32125.1
32092.5
32059.5
32026.1
31992.2
31957.8
31923
31887.5
31851.6
31815.2
0.0493594
0.14755
0.24418
0.338151
0.428188
0.512815
0.590351
0.658923
0.716533
0.761181
0.791044
0.804726
0.80154
0.78179
0.746943
0.0827967
0.247582
0.409908
0.567969
0.71968
0.862602
0.993914
1.11042
1.20867
1.28511
1.33645
1.36004
1.35445
1.31996
1.25901
0.117009
0.350008
0.579827
0.804053
1.01986
1.22389
1.41216
1.58006
1.72247
1.834
1.90943
1.94438
1.93611
1.88447
1.79273
0.152297
0.455713
0.755462
1.04869
1.33198
1.60112
1.85097
2.07541
2.26739
2.41924
2.52318
2.57224
2.56147
2.48947
2.35994
0.188776
0.565112
0.937647
1.30332
1.65831
1.9977
2.31527
2.6033
2.85255
3.0525
3.19193
3.26005
3.2482
3.15218
2.97502
0.226469
0.678314
1.12669
1.56865
2.00023
2.41611
2.80912
3.16999
3.48704
3.74632
3.93205
4.02792
4.0192
3.89613
3.65853
0.265252
0.794982
1.32217
1.84434
2.35788
2.85738
3.33515
3.78052
4.17935
4.51372
4.76209
4.90045
4.90465
4.75474
4.44192
0.304809
0.914196
1.52265
2.1287
2.72955
3.3204
3.89358
4.43761
4.93616
5.36715
5.70222
5.90723
5.9443
5.77642
5.37581
0.344599
1.03435
1.72553
2.41824
3.11125
3.80111
4.48118
5.14019
5.76058
6.31656
6.77249
7.08201
7.18903
7.03095
6.54474
0.383835
1.15308
1.92687
2.70751
3.49609
4.29163
5.08986
5.88143
6.64942
7.36606
7.98922
8.45938
8.69896
8.61373
8.08956
0.421491
1.26728
2.12137
2.98885
3.87398
4.77946
5.70521
6.64629
7.58962
8.5091
9.35899
10.0674
10.5337
10.6355
10.2256
0.456342
1.37318
2.30247
3.25254
4.23153
5.24705
6.30525
7.40891
8.55374
9.72176
10.8703
11.9174
12.7332
13.1687
13.1703
0.487042
1.46662
2.46282
3.48732
4.55256
5.672
6.85989
8.1304
9.49473
10.954
12.4831
13.9989
15.3126
16.1357
16.574
0.512258
1.54343
2.59489
3.68137
4.81944
6.0285
7.33193
8.75812
10.3408
12.1163
14.1091
16.2825
18.3823
19.4869
17.0139
31781.4
31750.3
31718.9
31687.3
31655.5
31623.4
31591.1
31558.7
31526.1
31493.4
31460.6
31427.7
31394.7
31361.8
31328.8
31295.8
31262.8
31229.9
31197
31164.2
31131.5
31098.9
31066.3
31033.9
31001.5
30969.2
30937
30904.8
30872.7
30840.7
30808.7
30776.9
30745.1
30713.4
30681.8
30650.2
30618.7
30587.3
30556
30524.6
30493.3
30462.1
30430.9
30399.6
30368.4
30337.2
30306.1
30274.9
30243.8
30212.7
30181.6
30150.5
30119.3
30088.2
30057
30025.8
29994.6
29963.3
29932
29900.6
29869.2
29837.7
29806.2
29774.6
29743
29711.4
29679.7
29648
29616.1
29584.3
29552.3
29520.3
29488.2
29456
29423.8
29391.5
29359.2
29326.8
29294.4
29261.9
29229.3
29196.7
29164
29131.2
29098.3
29065.3
29032.1
28998.8
28965.3
28931.6
0.703519
0.65768
0.607785
0.556062
0.5044
0.454107
0.405768
0.359264
0.313934
0.268845
0.223123
0.176265
0.12836
0.0801919
0.0331788
-0.0108266
-0.0498461
-0.0821269
-0.106464
-0.122431
-0.130472
-0.131854
-0.128477
-0.122586
-0.116427
-0.111911
-0.11033
-0.112169
-0.117065
-0.123895
-0.131012
-0.136559
-0.138824
-0.136564
-0.12923
-0.11707
-0.101091
-0.0828845
-0.0643652
-0.0474483
-0.0337326
-0.0242328
-0.019209
-0.0181219
-0.0197284
-0.0223018
-0.0239414
-0.0229152
-0.0179691
-0.00854789
0.00510936
0.0220127
0.0405906
0.0589555
0.07522
0.0878139
0.095749
0.0987889
0.0974905
0.0931078
0.0873681
0.0821595
0.0791863
0.0796581
0.0840703
0.0921141
0.10273
0.11429
0.124885
0.132661
0.136162
0.134616
0.128124
0.117708
0.105219
0.0930919
0.0840049
0.080482
0.0845159
0.0972609
0.118837
0.148264
0.183516
0.221699
0.259317
0.292618
0.317984
0.332349
0.333571
0.320708
1.18314
1.10318
1.01649
0.927294
0.839127
0.754383
0.674016
0.597569
0.523501
0.44974
0.374341
0.2961
0.215017
0.132486
0.0511912
-0.0252905
-0.093105
-0.14882
-0.190062
-0.215968
-0.227364
-0.226657
-0.217471
-0.204091
-0.190801
-0.181238
-0.177841
-0.1815
-0.191453
-0.205471
-0.220297
-0.232277
-0.238048
-0.235172
-0.222574
-0.200733
-0.171594
-0.138235
-0.104351
-0.073641
-0.0491949
-0.0329748
-0.0254835
-0.025672
-0.0311175
-0.0384503
-0.04396
-0.0442677
-0.0369324
-0.0208776
0.00343017
0.0340719
0.0680074
0.101587
0.131164
0.153698
0.167274
0.171432
0.167254
0.157184
0.144598
0.13319
0.126293
0.126273
0.134098
0.149169
0.169428
0.191712
0.212297
0.227555
0.234601
0.231851
0.21939
0.199081
0.174388
0.149917
0.130757
0.121718
0.126608
0.147663
0.185192
0.237466
0.300835
0.370049
0.438733
0.500006
0.547189
0.574573
0.578142
0.556122
1.67834
1.55808
1.42855
1.29677
1.16865
1.04808
0.936346
0.832172
0.732348
0.632718
0.529369
0.419747
0.303474
0.182712
0.0619854
-0.0525239
-0.154077
-0.236642
-0.296033
-0.330689
-0.34197
-0.333954
-0.312789
-0.285744
-0.260083
-0.241956
-0.235462
-0.242031
-0.260247
-0.286136
-0.313932
-0.337178
-0.34996
-0.348007
-0.329448
-0.295116
-0.248374
-0.19453
-0.139944
-0.0909826
-0.0529691
-0.0292947
-0.0208363
-0.0257795
-0.0399069
-0.0573325
-0.0715682
-0.0767155
-0.0685309
-0.0451606
-0.00742804
0.041341
0.0958993
0.149959
0.197232
0.232474
0.252364
0.256089
0.245518
0.224907
0.200161
0.177758
0.163538
0.161635
0.173738
0.198807
0.23327
0.27164
0.307449
0.334346
0.347221
0.343149
0.322039
0.286854
0.243325
0.199185
0.163028
0.142989
0.145519
0.174441
0.230413
0.310788
0.409836
0.519257
0.628914
0.727771
0.804995
0.851198
0.859681
0.827442
2.19752
2.0269
1.84444
1.66156
1.48795
1.32972
1.18845
1.0612
0.941614
0.821756
0.694144
0.55369
0.399117
0.233609
0.0645448
-0.0976996
-0.241683
-0.357134
-0.436929
-0.478385
-0.483694
-0.459524
-0.415928
-0.364774
-0.317905
-0.285331
-0.273694
-0.285239
-0.317461
-0.363548
-0.413633
-0.456687
-0.482656
-0.484342
-0.458646
-0.407005
-0.335042
-0.251575
-0.167143
-0.0922915
-0.0358522
-0.00348757
0.00329792
-0.0125015
-0.0438155
-0.0807054
-0.11219
-0.128315
-0.121978
-0.0901326
-0.0342114
0.0402168
0.124429
0.207999
0.280499
0.333206
0.360558
0.361138
0.338018
0.298339
0.252087
0.210252
0.182735
0.176501
0.194361
0.234554
0.291106
0.354868
0.41503
0.460921
0.483827
0.478556
0.444531
0.386212
0.312707
0.236526
0.171657
0.131333
0.125999
0.161849
0.240083
0.356816
0.503505
0.667736
0.83427
0.986319
1.10711
1.1818
1.19955
1.15539
2.75
2.51301
2.2612
2.01331
1.7854
1.58729
1.42072
1.27953
1.15165
1.02234
0.877789
0.708346
0.510892
0.290011
0.0576649
-0.168792
-0.369999
-0.5286
-0.632669
-0.677775
-0.667517
-0.612721
-0.529618
-0.437307
-0.354826
-0.29825
-0.278251
-0.298394
-0.354448
-0.434954
-0.523225
-0.60058
-0.650114
-0.659916
-0.62503
-0.547989
-0.43812
-0.309863
-0.180413
-0.0669641
0.0160417
0.0592493
0.0600346
0.0231813
-0.0396484
-0.111834
-0.174918
-0.212266
-0.212178
-0.169809
-0.0876923
0.0249444
0.153814
0.281898
0.392174
0.470348
0.507188
0.500181
0.454218
0.381074
0.297472
0.221933
0.171074
0.156447
0.182589
0.246494
0.338306
0.443018
0.542891
0.62032
0.66073
0.655086
0.60172
0.507155
0.385657
0.257291
0.144657
0.0690123
0.0468979
0.0879527
0.194047
0.359445
0.571659
0.812653
1.06024
1.28964
1.47539
1.59417
1.62835
1.56951
3.34933
3.02067
2.6725
2.33655
2.0402
1.79971
1.61674
1.47899
1.36404
1.24518
1.09761
0.903661
0.656725
0.363248
0.0426255
-0.275929
-0.559355
-0.778287
-0.913011
-0.956595
-0.915186
-0.806397
-0.656291
-0.49542
-0.354186
-0.258252
-0.224771
-0.259616
-0.356016
-0.494987
-0.648363
-0.784374
-0.874641
-0.899707
-0.85199
-0.736132
-0.567567
-0.369765
-0.170547
0.00228997
0.125324
0.183142
0.171025
0.0963085
-0.0219879
-0.156063
-0.274723
-0.350153
-0.363305
-0.30678
-0.185187
-0.0137765
0.18425
0.381354
0.549984
0.666906
0.716843
0.695192
0.609418
0.47871
0.331072
0.197881
0.10703
0.0774592
0.116203
0.218001
0.366675
0.537873
0.702804
0.832758
0.903677
0.900062
0.81796
0.666603
0.468219
0.255125
0.0641181
-0.070664
-0.123435
-0.079862
0.0623568
0.294414
0.598127
0.947835
1.31219
1.65559
1.93988
2.12816
2.19092
2.11311
4.01736
3.55662
3.0665
2.60303
2.21489
1.92968
1.74802
1.64601
1.58248
1.50979
1.3846
1.17569
0.869984
0.475984
0.0250104
-0.433253
-0.841191
-1.14885
-1.32422
-1.35743
-1.25952
-1.05922
-0.798118
-0.524921
-0.287986
-0.128011
-0.0726048
-0.131918
-0.296021
-0.534038
-0.798283
-1.03384
-1.19288
-1.24414
-1.17692
-1.00003
-0.738981
-0.431578
-0.122567
0.143376
0.328624
0.407834
0.372233
0.232247
0.0184266
-0.222482
-0.436792
-0.57776
-0.614825
-0.537519
-0.354503
-0.0909163
0.215917
0.52171
0.782142
0.959802
1.02946
0.982393
0.829156
0.600536
0.343654
0.112623
-0.0455155
-0.10018
-0.0412781
0.121698
0.362293
0.641427
0.912755
1.12987
1.25362
1.25772
1.13359
0.893429
0.571622
0.220813
-0.0977235
-0.328772
-0.432831
-0.39005
-0.199015
0.125893
0.558066
1.06164
1.59404
2.10638
2.54238
2.84264
2.95565
2.8526
4.79329
4.13514
3.42243
2.76142
2.24178
1.91097
1.76511
1.75815
1.81461
1.85055
1.79269
1.58766
1.21092
0.671291
0.0184187
-0.662526
-1.26692
-1.70941
-1.93962
-1.94662
-1.75082
-1.39911
-0.956908
-0.501756
-0.11053
0.153231
0.24516
0.147059
-0.129232
-0.534989
-0.989212
-1.39322
-1.66606
-1.75895
-1.65957
-1.38491
-0.976953
-0.495522
-0.0123893
0.400836
0.684781
0.797999
0.723883
0.474604
0.0979163
-0.327167
-0.704469
-0.955014
-1.0311
-0.920559
-0.639933
-0.230434
0.248973
0.727272
1.13337
1.4081
1.50999
1.42232
1.15726
0.762841
0.318763
-0.0778818
-0.347376
-0.441698
-0.348991
-0.0867577
0.302018
0.755817
1.20036
1.56103
1.77543
1.79962
1.61587
1.23741
0.716362
0.139603
-0.385972
-0.770165
-0.954091
-0.914132
-0.65356
-0.197475
0.414815
1.13356
1.90445
2.66675
3.34001
3.82642
4.03123
3.89456
5.7546
4.79246
3.7042
2.71659
1.99716
1.62642
1.58272
1.77951
2.07688
2.32695
2.41332
2.24748
1.787
1.03026
0.0528313
-1.00146
-1.92522
-2.57508
-2.87592
-2.82728
-2.46609
-1.86881
-1.13383
-0.386036
0.250963
0.682387
0.837021
0.683062
0.224391
-0.465781
-1.25211
-1.94118
-2.39808
-2.55036
-2.3944
-1.96151
-1.32051
-0.561702
0.198664
0.844668
1.28698
1.45811
1.32793
0.900561
0.247187
-0.500602
-1.15466
-1.58351
-1.71615
-1.5486
-1.11104
-0.470728
0.283516
1.03669
1.67365
2.10516
2.26336
2.11755
1.67143
0.996438
0.225307
-0.451781
-0.901817
-1.05291
-0.901219
-0.477857
0.147673
0.883087
1.6083
2.20237
2.57068
2.64051
2.37805
1.78625
0.940857
-0.0157817
-0.878284
-1.50041
-1.79821
-1.75635
-1.39009
-0.746208
0.117858
1.12997
2.22685
3.35493
4.40637
5.21533
5.59817
5.4202
7.06712
5.63144
3.84109
2.28564
1.25052
0.871061
1.0542
1.65626
2.40751
3.0393
3.39739
3.3318
2.78993
1.70724
0.198139
-1.52818
-2.97777
-3.94315
-4.31532
-4.15786
-3.52119
-2.53665
-1.32905
-0.110625
0.908628
1.61025
1.87337
1.65794
0.911448
-0.258062
-1.65505
-2.82346
-3.56878
-3.78566
-3.52805
-2.83781
-1.83376
-0.63013
0.574402
1.58183
2.27969
2.55211
2.35992
1.65194
0.532356
-0.809091
-1.92928
-2.63868
-2.83362
-2.56562
-1.87425
-0.875227
0.319468
1.51335
2.50967
3.19568
3.45441
3.2451
2.51506
1.36831
-0.0037664
-1.15286
-1.88698
-2.10038
-1.84494
-1.16037
-0.165206
1.02475
2.20477
3.16849
3.79547
3.9596
3.61418
2.69999
1.32525
-0.307012
-1.71702
-2.69797
-3.13169
-3.06597
-2.52662
-1.61225
-0.392513
1.00412
2.50412
4.1533
5.82168
7.21764
7.97249
7.76199
9.10841
6.98079
3.63919
1.10469
-0.441109
-0.695356
-0.0785383
1.31718
2.90913
4.14474
4.99048
5.10084
4.57053
2.99706
0.655051
-2.45458
-4.72881
-6.16669
-6.51862
-6.17974
-5.07845
-3.52694
-1.54105
0.450385
2.02249
3.16835
3.59766
3.39637
2.20645
0.276016
-2.38837
-4.31618
-5.50158
-5.70536
-5.28575
-4.16699
-2.63533
-0.700745
1.23316
2.76398
3.88432
4.31445
4.13394
2.99536
1.13632
-1.43687
-3.29609
-4.43523
-4.61826
-4.19274
-3.08086
-1.5618
0.356354
2.27434
3.79241
4.9014
5.31937
5.1225
3.95871
2.06462
-0.553943
-2.45151
-3.62193
-3.82286
-3.40648
-2.28997
-0.758352
1.18098
3.11305
4.61982
5.68709
6.01284
5.6697
4.27732
2.08089
-0.917856
-3.17316
-4.68306
-5.18384
-5.0571
-4.20267
-2.91745
-1.15707
0.729983
2.56712
4.92453
7.62978
10.1436
11.7374
11.5995
12.7505
10.0775
2.27398
-1.50142
-3.99438
-3.51811
-2.3351
0.693212
3.92142
5.80906
7.63995
7.78981
7.85063
5.39087
2.21459
-4.58677
-7.68701
-9.95682
-9.71955
-9.30236
-7.28686
-5.14555
-1.76381
1.61251
3.74745
5.75562
6.22737
6.5558
4.56516
1.86435
-4.185
-6.88062
-8.85042
-8.52513
-8.05249
-6.09289
-4.01912
-0.77227
2.4706
4.53558
6.48127
6.9546
7.28609
5.37486
2.76722
-3.09413
-5.70125
-7.60973
-7.28027
-6.80905
-4.8745
-2.82362
0.393093
3.61098
5.66411
7.60213
8.06975
8.39234
6.45412
3.80429
-2.14222
-4.7971
-6.75265
-6.43384
-5.97564
-4.01667
-1.93781
1.34852
4.63471
6.70509
8.64757
9.03036
9.23726
7.01365
3.99306
-2.59805
-5.70141
-8.11998
-8.13828
-8.0947
-6.49762
-4.90546
-2.1026
0.529147
1.88234
5.1963
9.71483
14.3958
17.9969
18.5539
19.6915
20.5629
-4.8898
-5.95131
-11.82
-7.355
-7.2452
-0.214865
6.86784
7.55879
12.7138
10.6107
14.7641
8.82023
8.99802
-12.0448
-11.8373
-17.3535
-13.1759
-14.7229
-9.6729
-8.54681
-1.97525
4.56577
5.65858
10.5589
9.06701
13.0581
7.94991
8.27772
-10.8081
-10.4878
-15.5019
-11.555
-12.9584
-8.18124
-7.09018
-0.836085
5.4063
6.48113
11.2006
9.80113
13.6698
8.75904
9.085
-9.43632
-9.11183
-14.0066
-10.1464
-11.5326
-6.83577
-5.76432
0.428069
6.62489
7.70168
12.4203
11.029
14.9177
9.97406
10.2907
-8.47124
-8.15105
-13.16
-9.24734
-10.7078
-5.91799
-4.858
1.51428
7.90519
8.97259
13.852
12.2992
16.3026
10.8955
11.0445
-9.30293
-9.21823
-15.0158
-11.1843
-13.3717
-8.78775
-8.63911
-2.80387
2.16735
-1.62798
3.73154
11.564
20.2011
28.6378
33.394
29.4602
68.9558
-47.1751
-3.47663
-34.5234
-4.91745
-22.1177
-1.19532
19.0213
2.8833
28.2423
4.42546
36.2207
3.43741
46.3421
-50.1003
-7.74259
-38.7062
-8.38609
-29.6405
-6.40564
-19.7868
-2.13989
15.3673
2.08978
24.5699
4.01397
32.6665
3.50943
42.6494
-45.3742
-6.41133
-35.0558
-6.8789
-26.7631
-4.96011
-17.5946
-0.881444
15.785
3.18017
24.7329
5.06338
32.6976
4.60392
42.5443
-42.9161
-5.00631
-33.0107
-5.45765
-25.016
-3.5767
-16.0794
0.456617
17.0118
4.49514
26.037
6.38544
34.1617
5.91909
44.2501
-42.2796
-3.83211
-32.4163
-4.32507
-24.442
-2.45007
-15.4297
1.65157
18.84
5.74917
28.3174
7.56526
36.9176
6.77464
47.6089
-45.4321
-4.26673
-35.7794
-5.56493
-28.4016
-4.69287
-20.5632
-2.26268
16.4276
-18.3227
-1.2958
12.253
26.2933
44.5769
73.9421
28894.4
28853.6
28812.7
28771.6
28730.4
28689.1
28647.9
28606.7
28565.6
28524.5
28483.5
28442.7
28401.8
28361.1
28320.4
0.291454
0.242446
0.181336
0.11428
0.0475918
-0.0131383
-0.0636104
-0.101052
-0.124185
-0.133017
-0.128565
-0.112567
-0.0872456
-0.055111
-0.0188329
0.504536
0.41739
0.308732
0.189987
0.0726528
-0.0333249
-0.120518
-0.184342
-0.222889
-0.236483
-0.227129
-0.197996
-0.152994
-0.0964564
-0.0329318
0.74852
0.613866
0.446232
0.264304
0.0863739
-0.0722815
-0.200782
-0.292899
-0.346542
-0.362896
-0.345476
-0.299308
-0.230296
-0.1448
-0.0493721
1.04083
0.843102
0.597828
0.334443
0.0806617
-0.141532
-0.317552
-0.440028
-0.507566
-0.523145
-0.492615
-0.423489
-0.324101
-0.203088
-0.0691313
1.40571
1.11972
0.767384
0.394841
0.0432385
-0.257064
-0.487961
-0.64218
-0.720616
-0.729559
-0.678394
-0.577965
-0.43955
-0.274331
-0.0932008
1.87772
1.4625
0.956995
0.434159
-0.0456072
-0.442111
-0.735143
-0.920197
-1.00323
-0.996142
-0.913486
-0.770462
-0.58183
-0.361501
-0.122547
2.50794
1.89536
1.16375
0.430241
-0.217859
-0.730754
-1.09041
-1.30033
-1.37606
-1.33836
-1.209
-1.00861
-0.755837
-0.467314
-0.158038
3.37448
2.447
1.37217
0.340698
-0.5255
-1.17278
-1.59554
-1.81475
-1.8624
-1.77231
-1.57561
-1.29919
-0.965628
-0.593901
-0.200335
4.60083
3.14567
1.53694
0.0856025
-1.05229
-1.83953
-2.30436
-2.50084
-2.48659
-2.31295
-2.02201
-1.64695
-1.21362
-0.742348
-0.249742
6.38823
3.99768
1.54406
-0.483248
-1.93003
-2.82892
-3.28171
-3.39779
-3.27028
-2.97098
-2.5526
-2.05305
-1.49959
-0.912152
-0.306035
9.06775
4.9129
1.12488
-1.63282
-3.35596
-4.26467
-4.59597
-4.53848
-4.2259
-3.74818
-3.16442
-2.51314
-1.81958
-1.10066
-0.368288
13.1409
5.46195
-0.324013
-3.81687
-5.59654
-6.27807
-6.29928
-5.93444
-5.3468
-4.63157
-3.84388
-3.01557
-2.16498
-1.30266
-0.43476
18.9862
4.1169
-4.06558
-7.71395
-8.93542
-8.95206
-8.38887
-7.55341
-6.59547
-5.58755
-4.56407
-3.54037
-2.52219
-1.51027
-0.502879
23.9824
-3.91748
-12.3415
-14.0379
-13.4793
-12.2061
-10.751
-9.29506
-7.89428
-6.55925
-5.28457
-4.05976
-2.87318
-1.71338
-0.569386
0.529824
1.59691
2.68679
3.81631
5.00504
6.27701
7.66307
9.20458
10.9588
13.0062
15.458
18.446
22.0015
25.324
22.6762
0.540129
1.62819
2.74018
3.89394
5.11053
6.4163
7.84627
9.44964
11.2997
13.5129
16.29
20.0156
25.5497
35.2441
57.1708
0.545024
1.64286
2.76457
3.92797
5.15409
6.46935
7.90907
9.52342
11.3884
13.6282
16.463
20.329
26.2078
36.6708
59.5969
0.544522
1.64096
2.76003
3.91846
5.13576
6.436
7.85063
9.42314
11.217
13.3301
15.9201
19.2442
23.6817
29.443
34.0193
0.538887
1.62333
2.72814
3.86807
5.05983
6.32318
7.68253
9.16911
10.8239
12.7009
14.8672
17.3861
20.2357
23.0378
24.552
0.528615
1.59156
2.67185
3.78167
4.93414
6.14365
7.42603
8.7982
10.2764
11.8708
13.5694
15.2982
16.8225
17.5269
15.9196
0.514369
1.54774
2.59504
3.66563
4.76882
5.91349
7.10712
8.35358
9.64831
10.9682
12.2506
13.3522
13.9787
13.6213
11.8757
0.496901
1.49423
2.50204
3.52693
4.57466
5.64929
6.75149
7.87539
9.00264
10.0916
11.0573
11.7362
11.8179
10.6797
6.70756
0.47698
1.43343
2.39717
3.37235
4.3618
5.36591
6.38075
7.39482
8.38354
9.30041
10.0632
10.5347
10.5044
9.70607
8.09704
0.455326
1.36757
2.28435
3.20784
4.13872
5.07504
6.01052
6.9318
7.81429
8.61624
9.27118
9.68165
9.72416
9.29541
8.46058
0.432563
1.29854
2.16685
3.03818
3.91184
4.78473
5.65012
6.49567
7.30093
8.0341
8.64894
9.08409
9.27116
9.16673
8.84077
0.409205
1.2279
2.04723
2.8669
3.68545
4.4996
5.30345
6.08749
6.83759
7.53408
8.15143
8.65878
9.02053
9.19185
9.09046
0.385647
1.1568
1.92735
2.69638
3.4621
4.22161
4.9705
5.70283
6.41143
7.08898
7.73027
8.33451
8.90211
9.40631
9.71238
0.362188
1.0861
1.80853
2.52812
3.24305
3.95095
4.64901
5.33463
6.00679
6.66902
7.33477
8.03565
8.82767
9.7583
10.5696
0.339046
1.01644
1.69166
2.36309
3.02887
3.68708
4.33613
4.97573
5.609
6.24657
6.91484
7.67343
8.65692
10.1931
13.2035
0.316388
0.948266
1.57742
2.20195
2.81992
3.42956
4.02978
4.62119
5.20818
5.80276
6.43213
7.15499
8.10229
9.60402
12.6782
0.29435
0.88198
1.46638
2.04535
2.61673
3.17856
3.72951
4.26969
4.80206
5.33472
5.88446
6.48065
7.16257
7.92283
8.30841
0.273055
0.817931
1.35909
1.89401
2.42015
2.93508
3.43669
3.92358
4.39568
4.85479
5.30446
5.74672
6.1684
6.50174
6.57569
0.252613
0.756457
1.25612
1.74874
2.23135
2.70084
3.15405
3.58771
3.99829
4.38137
4.72958
5.02704
5.23554
5.2607
4.85707
0.23313
0.697876
1.15804
1.61042
2.05162
2.47788
2.88497
3.26782
3.61995
3.93212
4.18988
4.36911
4.42996
4.31736
4.02061
0.214696
0.642472
1.06535
1.47986
1.88224
2.26821
2.63268
2.96925
3.26932
3.52062
3.70468
3.79333
3.74479
3.50185
2.97878
0.197381
0.590466
0.978449
1.35771
1.72425
2.07345
2.39975
2.69599
2.95254
3.15577
3.2857
3.31279
3.1946
2.88083
2.38766
0.181231
0.541996
0.897601
1.24438
1.57827
1.89459
2.18766
2.45026
2.67276
2.84178
2.93811
2.9331
2.7802
2.38434
1.44702
0.166258
0.497103
0.822875
1.13998
1.44447
1.73185
1.99671
2.23236
2.43008
2.57823
2.66087
2.65607
2.53449
2.26384
1.86521
0.152443
0.455728
0.754159
1.04433
1.32256
1.58472
1.82603
2.04076
2.2218
2.36015
2.44431
2.46012
2.39227
2.23219
2.00037
0.139739
0.417719
0.691171
0.956962
1.21178
1.45205
1.67379
1.87254
2.04315
2.17966
2.27519
2.32224
2.31407
2.25035
2.15607
0.128074
0.38285
0.633495
0.877204
1.1111
1.33222
1.5375
1.72384
1.88816
2.0276
2.13973
2.22266
2.27444
2.28968
2.24791
0.11736
0.350845
0.580628
0.80425
1.01928
1.22337
1.41435
1.59041
1.75043
1.89449
2.0245
2.1447
2.26015
2.36858
2.43992
0.107502
0.321407
0.532033
0.737252
0.935047
1.12361
1.30154
1.46809
1.62376
1.7711
1.91607
2.07001
2.25071
2.47322
2.67275
0.098405
0.294242
0.487187
0.6754
0.857209
1.03123
1.19661
1.35332
1.50287
1.64932
1.80139
1.97672
2.2122
2.59378
3.35879
0.0899824
0.269083
0.445619
0.617987
0.784766
0.944852
1.09767
1.24351
1.3841
1.52362
1.67053
1.84164
2.07221
2.44805
3.22977
0.0821588
0.2457
0.406941
0.564448
0.716961
0.863505
1.00356
1.13732
1.26606
1.39276
1.52286
1.66524
1.83131
2.02042
2.11811
0.0748733
0.223912
0.370849
0.514368
0.65329
0.786652
0.913815
1.0346
1.14944
1.25951
1.36664
1.47238
1.57438
1.65624
1.6753
0.0680787
0.203579
0.337126
0.467475
0.593471
0.714093
0.828487
0.935991
1.0361
1.12828
1.21137
1.28211
1.33143
1.33564
1.2317
0.0617392
0.1846
0.305619
0.423596
0.537376
0.645848
0.74793
0.842505
0.928259
1.00334
1.06466
1.10669
1.11979
1.09013
1.0149
0.0558275
0.166898
0.276218
0.382626
0.484959
0.582031
0.672576
0.755131
0.827817
0.88794
0.931325
0.951347
0.937822
0.876257
0.743734
0.0503206
0.150409
0.248836
0.344479
0.436188
0.522737
0.602758
0.674598
0.736086
0.78415
0.814203
0.81929
0.789206
0.711643
0.590527
0.0451968
0.135071
0.223381
0.309059
0.390991
0.467968
0.538612
0.601241
0.653666
0.692854
0.714404
0.711643
0.673551
0.577262
0.350416
0.0404328
0.120817
0.19975
0.276236
0.349228
0.417589
0.48002
0.53496
0.580427
0.613794
0.631473
0.62852
0.598302
0.533536
0.439457
0.0360023
0.107569
0.177814
0.245832
0.310675
0.37132
0.426621
0.475246
0.515579
0.545617
0.562858
0.564321
0.547033
0.510155
0.461234
0.0318753
0.0952355
0.15742
0.217628
0.27503
0.328752
0.377849
0.421278
0.45787
0.486314
0.505189
0.513131
0.509358
0.495128
0.477349
0.0280186
0.0837166
0.138395
0.191366
0.241935
0.289389
0.333004
0.372049
0.405808
0.433643
0.455099
0.470064
0.478934
0.482553
0.481416
0.0243968
0.0729036
0.120551
0.166768
0.210994
0.252683
0.291325
0.326479
0.357849
0.385392
0.409504
0.431217
0.452145
0.473268
0.490639
0.0209734
0.0626853
0.103695
0.143548
0.18181
0.218086
0.252057
0.283528
0.312535
0.33951
0.365563
0.392902
0.425209
0.466574
0.510622
0.0177124
0.0529519
0.0876401
0.121428
0.153996
0.185082
0.214515
0.242278
0.268622
0.294255
0.320715
0.351125
0.39197
0.457999
0.587643
0.0145794
0.0435989
0.0722064
0.100148
0.127205
0.153218
0.178122
0.202003
0.225189
0.248413
0.273112
0.302087
0.341229
0.405228
0.540939
0.0115423
0.0345295
0.057231
0.079477
0.101132
0.122116
0.142431
0.162199
0.181719
0.201533
0.222526
0.245974
0.273214
0.302632
0.309858
0.0085718
0.025656
0.0425677
0.0592105
0.0755184
0.0914704
0.107109
0.122557
0.13803
0.153823
0.170221
0.187215
0.203674
0.215427
0.213946
0.00564169
0.0168998
0.0280868
0.0391707
0.0501439
0.0610331
0.0719087
0.0828859
0.0941073
0.105677
0.117489
0.128814
0.137392
0.137394
0.113943
0.0027282
0.00819026
0.0136728
0.0192015
0.0248197
0.030596
0.0366271
0.0430331
0.0499292
0.0573503
0.0650796
0.072307
0.0770527
0.0756324
0.0648882
-0.000190193
-0.000536434
-0.000777839
-0.000836563
-0.000622415
-2.80329e-05
0.00107397
0.00282735
0.00537272
0.00879455
0.0130042
0.0175098
0.020984
0.0203302
0.00747242
-0.00313333
-0.00933898
-0.0153604
-0.0210711
-0.0263374
-0.031015
-0.0349435
-0.0379416
-0.0398067
-0.0403234
-0.0392921
-0.0365854
-0.03223
-0.0265117
-0.0204304
-0.00611995
-0.0182727
-0.0301643
-0.0416216
-0.0524706
-0.0625334
-0.0716197
-0.0795115
-0.0859377
-0.0905323
-0.0927679
-0.0918404
-0.0864032
-0.0736197
-0.0444213
-0.00916827
-0.0273913
-0.0452757
-0.0626024
-0.0791598
-0.094742
-0.109139
-0.122114
-0.133357
-0.142396
-0.148458
-0.150243
-0.145692
-0.132141
-0.109838
-0.0122967
-0.0367488
-0.0607807
-0.0841261
-0.106537
-0.127786
-0.147661
-0.165937
-0.182323
-0.196347
-0.207135
-0.213064
-0.211244
-0.196754
-0.159712
-0.0155248
-0.0464021
-0.0767692
-0.106308
-0.134733
-0.1618
-0.187308
-0.211088
-0.23295
-0.252565
-0.269208
-0.281286
-0.285614
-0.277047
-0.253075
-0.018874
-0.0564142
-0.0933402
-0.129274
-0.163885
-0.196911
-0.228174
-0.257592
-0.285159
-0.310868
-0.334472
-0.354913
-0.368959
-0.36806
-0.329702
-0.0223692
-0.0668578
-0.110608
-0.153169
-0.194152
-0.233262
-0.27034
-0.305402
-0.338682
-0.370656
-0.401959
-0.433006
-0.462706
-0.485111
-0.486033
-0.0260397
-0.0778191
-0.128712
-0.178173
-0.225734
-0.271043
-0.313927
-0.354472
-0.393139
-0.430937
-0.469651
-0.512061
-0.561544
-0.617113
-0.639581
-0.0299205
-0.0894021
-0.147819
-0.204511
-0.258897
-0.310529
-0.359163
-0.404871
-0.448227
-0.490612
-0.534807
-0.586235
-0.656186
-0.772138
-1.01858
-0.0340532
-0.101731
-0.168135
-0.232464
-0.293991
-0.352119
-0.406455
-0.456933
-0.504019
-0.549064
-0.594974
-0.647578
-0.718916
-0.836591
-1.07504
-0.038486
-0.114951
-0.189905
-0.262378
-0.331465
-0.396366
-0.456454
-0.511383
-0.561262
-0.606952
-0.65053
-0.695948
-0.749502
-0.817226
-0.881824
-0.0432736
-0.129228
-0.21341
-0.294662
-0.371869
-0.443983
-0.510068
-0.569373
-0.621451
-0.666346
-0.704847
-0.738704
-0.770282
-0.800082
-0.81989
-0.0484759
-0.144744
-0.238963
-0.329776
-0.415836
-0.495816
-0.568424
-0.63242
-0.68667
-0.730223
-0.762432
-0.783082
-0.79233
-0.789925
-0.772107
-0.0541562
-0.161693
-0.266899
-0.368212
-0.464051
-0.552803
-0.632797
-0.702277
-0.759363
-0.802024
-0.828093
-0.835424
-0.822508
-0.790517
-0.749619
-0.0603789
-0.18027
-0.297555
-0.410473
-0.517219
-0.615907
-0.704514
-0.780788
-0.842124
-0.885402
-0.906821
-0.901873
-0.865974
-0.79734
-0.705163
-0.0672072
-0.200669
-0.331263
-0.457046
-0.576015
-0.686054
-0.784843
-0.869724
-0.937481
-0.984018
-1.00392
-0.989873
-0.932218
-0.820561
-0.663554
-0.0747015
-0.223071
-0.368332
-0.508381
-0.641051
-0.764056
-0.874881
-0.97061
-1.04764
-1.1012
-1.12466
-1.10822
-1.03602
-0.875323
-0.521982
-0.0829181
-0.247646
-0.409044
-0.564871
-0.71284
-0.850566
-0.97546
-1.08455
-1.17416
-1.23936
-1.27317
-1.26537
-1.20133
-1.06393
-0.860035
-0.0919093
-0.274548
-0.453649
-0.626853
-0.791788
-0.94604
-1.08708
-1.21209
-1.3177
-1.39941
-1.45068
-1.46165
-1.41768
-1.29876
-1.07523
-0.101725
-0.303924
-0.502377
-0.694615
-0.878203
-1.05075
-1.20989
-1.35319
-1.47794
-1.58069
-1.65629
-1.69619
-1.68616
-1.60634
-1.45283
-0.112415
-0.335917
-0.55545
-0.768423
-0.972338
-1.16484
-1.34378
-1.50725
-1.65356
-1.78094
-1.88681
-1.96553
-2.00322
-1.96521
-1.76177
-0.124034
-0.370685
-0.613109
-0.848566
-1.07445
-1.28842
-1.4885
-1.67334
-1.84242
-1.99627
-2.13631
-2.2635
-2.373
-2.43913
-2.39649
-0.136642
-0.408408
-0.67564
-0.935399
-1.18491
-1.42171
-1.64389
-1.85048
-2.04199
-2.22132
-2.3949
-2.57394
-2.77307
-2.98877
-3.04996
-0.150312
-0.4493
-0.743394
-1.0294
-1.30426
-1.56523
-1.81021
-2.0382
-2.25016
-2.45053
-2.64986
-2.87061
-3.16183
-3.64599
-4.70196
-0.165125
-0.493611
-0.816804
-1.13118
-1.43331
-1.71995
-1.98844
-2.23716
-2.46653
-2.68063
-2.89015
-3.11856
-3.41685
-3.90647
-4.92561
-0.18117
-0.54162
-0.896368
-1.24153
-1.57317
-1.88737
-2.18049
-2.44969
-2.69366
-2.91408
-3.11752
-3.31819
-3.53927
-3.79967
-4.00595
-0.198536
-0.59361
-0.982624
-1.36133
-1.72521
-2.0695
-2.38928
-2.67985
-2.93731
-3.15949
-3.34703
-3.50388
-3.63461
-3.7309
-3.7354
-0.217296
-0.649829
-1.07607
-1.49147
-1.89093
-2.26873
-2.61846
-2.93314
-3.20563
-3.42916
-3.59806
-3.70793
-3.75409
-3.72629
-3.59806
-0.237493
-0.710437
-1.17709
-1.63272
-2.07176
-2.48755
-2.87207
-3.21586
-3.50809
-3.73695
-3.8903
-3.95643
-3.92514
-3.79182
-3.57278
-0.259113
-0.77543
-1.28581
-1.78554
-2.26881
-2.72816
-3.15408
-3.5345
-3.8547
-4.09736
-4.24333
-4.27278
-4.16727
-3.91729
-3.56137
-0.282064
-0.84457
-1.40194
-1.94984
-2.48251
-2.99208
-3.46776
-3.89509
-4.2553
-4.5251
-4.67746
-4.68306
-4.5099
-4.1167
-3.48752
-0.306149
-0.917293
-1.52468
-2.12475
-2.71232
-3.27959
-3.8151
-4.30241
-4.7188
-5.03453
-5.21369
-5.21765
-5.0055
-4.48033
-3.05885
-0.331041
-0.992646
-1.65251
-2.3084
-2.95627
-3.58922
-4.19599
-4.75907
-5.25232
-5.63894
-5.87174
-5.90248
-5.71862
-5.46669
-5.89163
-0.356268
-1.06922
-1.78313
-2.49764
-3.21063
-3.91707
-4.60729
-5.26429
-5.86
-6.35028
-6.67025
-6.73646
-6.47913
-5.98324
-6.01827
-0.381209
-1.14514
-1.91337
-2.68797
-3.46957
-4.25625
-5.04171
-5.81215
-6.54097
-7.17998
-7.64508
-7.79521
-7.40543
-6.13134
-3.34385
-0.405108
-1.21808
-2.03919
-2.87346
-3.72501
-4.59632
-5.48662
-6.38896
-7.28439
-8.13052
-8.83872
-9.22898
-8.94588
-7.33059
-3.37799
-0.427096
-1.28537
-2.15591
-3.04697
-3.96676
-4.92323
-5.92322
-6.97063
-8.0621
-9.17692
-10.2532
-11.1304
-11.4115
-10.153
-5.35892
-0.446254
-1.34415
-2.2584
-3.20054
-4.18309
-5.21997
-6.32693
-7.52175
-8.82364
-10.2502
-11.806
-13.4458
-14.9461
-15.4308
-11.4536
-0.461673
-1.39159
-2.34154
-3.32608
-4.36172
-5.46807
-6.66967
-7.99855
-9.49869
-11.2336
-13.3005
-15.8581
-19.1858
-23.8069
-30.6937
-11.1538
-26.9473
-25.52
-21.7673
-18.2805
-15.3649
-12.9307
-10.8536
-9.03482
-7.40255
-5.90528
-4.50513
-3.1733
-1.88676
-0.626112
-119.478
-61.832
-39.6382
-28.7318
-22.2663
-17.8944
-14.6521
-12.0801
-9.93312
-8.06849
-6.39688
-4.85882
-3.41213
-2.02493
-0.671352
-132.906
-72.0975
-45.918
-32.6126
-24.7984
-19.6397
-15.9082
-13.0114
-10.6355
-8.60046
-6.79583
-5.1491
-3.60969
-2.13979
-0.709046
-72.2845
-58.3152
-43.2576
-32.6802
-25.4865
-20.3939
-16.5848
-13.5812
-11.1012
-8.97254
-7.08518
-5.36492
-3.759
-2.22748
-0.737962
-50.6234
-45.2887
-37.4859
-30.398
-24.7157
-20.2568
-16.7023
-13.7875
-11.3229
-9.17715
-7.25854
-5.50139
-3.85668
-2.28601
-0.757446
-31.8417
-33.9762
-31.218
-27.1399
-23.0955
-19.4918
-16.3755
-13.6813
-11.3233
-9.22406
-7.31984
-5.55981
-3.90297
-2.31531
-0.767442
-23.345
-26.0616
-25.8668
-23.8584
-21.1692
-18.3883
-15.7557
-13.3416
-11.1442
-9.13558
-7.28105
-5.54662
-3.90124
-2.317
-0.768426
-12.9278
-20.1689
-21.7751
-21.0499
-19.3068
-17.182
-14.9843
-12.8514
-10.834
-8.94014
-7.15891
-5.47161
-3.85708
-2.29393
-0.761276
-15.4376
-18.1894
-19.3025
-18.9482
-17.7096
-16.0264
-14.1679
-12.2812
-10.438
-8.66654
-6.97158
-5.3461
-3.77725
-2.2497
-0.747118
-16.0574
-17.3481
-17.8489
-17.4608