/*--------------------------------*- C++ -*----------------------------------*\
| =========                 |                                                 |
| \\      /  F ield         | OpenFOAM: The Open Source CFD Toolbox           |
|  \\    /   O peration     | Version:  5.x                                   |
|   \\  /    A nd           | Web:      www.OpenFOAM.org                      |
|    \\/     M anipulation  |                                                 |
\*---------------------------------------------------------------------------*/
FoamFile
{
    version     2.0;
    format      ascii;
    class       volScalarField;
    location    "5.2";
    object      gradTy;
}
// * * * * * * * * * * * * * * * * * * * * * * * * * * * * * * * * * * * * * //

dimensions      [0 -1 0 1 0 0 0];

internalField   nonuniform List<scalar> 
2048
(
-26.4235
-26.3959
-26.3415
-26.2619
-26.1591
-26.0357
-25.8944
-25.7382
-25.5696
-25.3914
-25.2059
-25.0153
-24.8215
-24.6262
-24.4308
-24.2368
-24.0452
-23.8569
-23.6727
-23.4932
-23.3188
-23.1499
-22.9867
-22.8295
-22.6785
-22.5339
-22.396
-22.2652
-22.1418
-22.0263
-21.9193
-21.8214
-21.7334
-21.6561
-21.5903
-21.5373
-21.498
-21.4736
-21.4653
-21.4745
-21.5023
-21.55
-21.6189
-21.7101
-21.8245
-21.9629
-22.1257
-22.3128
-22.5236
-22.7567
-23.0097
-23.2793
-23.5613
-23.8504
-24.1406
-24.4253
-24.6976
-24.9511
-25.1796
-25.3778
-25.5412
-25.6666
-25.7515
-25.7943
-26.4458
-26.4176
-26.3619
-26.2806
-26.1758
-26.0501
-25.9066
-25.7481
-25.5775
-25.3973
-25.2101
-25.0179
-24.8227
-24.6262
-24.4298
-24.2349
-24.0425
-23.8536
-23.669
-23.4891
-23.3144
-23.1453
-22.9819
-22.8245
-22.6732
-22.5284
-22.3903
-22.2591
-22.1354
-22.0195
-21.912
-21.8135
-21.7247
-21.6466
-21.5801
-21.5261
-21.4859
-21.4605
-21.4513
-21.4594
-21.4862
-21.5329
-21.6009
-21.6912
-21.805
-21.9431
-22.106
-22.2937
-22.5056
-22.7405
-22.9962
-23.2693
-23.5555
-23.8496
-24.1451
-24.4352
-24.7129
-24.9713
-25.2041
-25.4058
-25.572
-25.6994
-25.7856
-25.829
-26.4885
-26.459
-26.401
-26.3163
-26.2075
-26.0775
-25.9295
-25.7668
-25.5921
-25.4083
-25.2178
-25.0227
-24.8249
-24.6261
-24.4277
-24.2311
-24.0373
-23.8473
-23.6617
-23.4812
-23.306
-23.1365
-22.9728
-22.815
-22.6634
-22.5182
-22.3795
-22.2478
-22.1233
-22.0066
-21.8981
-21.7984
-21.7084
-21.6289
-21.5608
-21.5051
-21.4631
-21.4358
-21.4246
-21.4308
-21.4556
-21.5005
-21.5667
-21.6555
-21.7681
-21.9055
-22.0684
-22.257
-22.4711
-22.7094
-22.9701
-23.2498
-23.5442
-23.8476
-24.1534
-24.4541
-24.7422
-25.01
-25.251
-25.4595
-25.6309
-25.7619
-25.8504
-25.895
-26.5497
-26.5183
-26.4567
-26.3671
-26.2524
-26.1161
-25.9618
-25.7928
-25.6125
-25.4235
-25.2284
-25.0292
-24.8277
-24.6257
-24.4245
-24.2254
-24.0297
-23.8381
-23.6513
-23.4699
-23.2941
-23.124
-22.9599
-22.8017
-22.6496
-22.5038
-22.3644
-22.2319
-22.1064
-21.9885
-21.8786
-21.7774
-21.6856
-21.604
-21.5336
-21.4756
-21.431
-21.4011
-21.3872
-21.3906
-21.4126
-21.4547
-21.5183
-21.6048
-21.7156
-21.8519
-22.0146
-22.2044
-22.4212
-22.6643
-22.932
-23.2211
-23.5271
-23.8441
-24.1649
-24.481
-24.784
-25.0656
-25.3184
-25.5364
-25.7151
-25.8512
-25.9429
-25.9889
-26.6281
-26.5942
-26.5278
-26.4315
-26.309
-26.1644
-26.0018
-25.825
-25.6374
-25.442
-25.2411
-25.0368
-24.8308
-24.6247
-24.42
-24.218
-24.0198
-23.8262
-23.638
-23.4556
-23.279
-23.1084
-22.9438
-22.7851
-22.6324
-22.4859
-22.3457
-22.2122
-22.0855
-21.9662
-21.8546
-21.7514
-21.6573
-21.5731
-21.4999
-21.4388
-21.391
-21.3578
-21.3404
-21.3402
-21.3587
-21.3973
-21.4576
-21.5411
-21.6493
-21.7839
-21.9461
-22.1369
-22.3569
-22.6057
-22.8819
-23.1829
-23.5038
-23.8385
-24.1787
-24.515
-24.8376
-25.137
-25.4049
-25.6349
-25.8224
-25.9647
-26.0601
-26.1079
-26.7227
-26.6855
-26.6129
-26.5083
-26.376
-26.2211
-26.0483
-25.862
-25.6658
-25.4628
-25.2552
-25.045
-24.8338
-24.623
-24.4142
-24.2087
-24.0076
-23.8118
-23.622
-23.4384
-23.2612
-23.09
-22.925
-22.7658
-22.6125
-22.4652
-22.324
-22.1893
-22.0613
-21.9403
-21.8267
-21.7212
-21.6244
-21.5372
-21.4607
-21.396
-21.3444
-21.3072
-21.2857
-21.2813
-21.2956
-21.3299
-21.386
-21.4657
-21.5707
-21.7029
-21.864
-22.0556
-22.2787
-22.5337
-22.8199
-23.1348
-23.4737
-23.8299
-24.1942
-24.5555
-24.9023
-25.2234
-25.5095
-25.7536
-25.9513
-26.1003
-26.1997
-26.2493
-26.8329
-26.7916
-26.7113
-26.5963
-26.4521
-26.2848
-26.0999
-25.9026
-25.6967
-25.4851
-25.2701
-25.0534
-24.8363
-24.6204
-24.407
-24.1975
-23.9932
-23.7949
-23.6034
-23.4187
-23.2408
-23.0693
-22.9038
-22.7441
-22.5902
-22.442
-22.2998
-22.1639
-22.0344
-21.9116
-21.7959
-21.6877
-21.5878
-21.4972
-21.4168
-21.3481
-21.2922
-21.2505
-21.2243
-21.2152
-21.2245
-21.2539
-21.3052
-21.3803
-21.4812
-21.6102
-21.7694
-21.9611
-22.1871
-22.4485
-22.7454
-23.076
-23.4359
-23.8175
-24.2105
-24.6019
-24.9777
-25.3246
-25.6317
-25.8916
-26.1003
-26.2562
-26.3595
-26.4108
-26.9581
-26.9118
-26.8221
-26.6945
-26.5361
-26.3541
-26.1554
-25.9456
-25.7289
-25.5082
-25.2853
-25.0616
-24.8383
-24.6167
-24.3982
-24.1843
-23.9764
-23.7755
-23.5823
-23.3966
-23.2183
-23.0465
-22.8808
-22.7207
-22.5661
-22.417
-22.2737
-22.1365
-22.0054
-21.8807
-21.7627
-21.6517
-21.5484
-21.4539
-21.3693
-21.296
-21.2353
-21.1887
-21.1574
-21.143
-21.1468
-21.1707
-21.2164
-21.286
-21.382
-21.5068
-21.6633
-21.8542
-22.0823
-22.3499
-22.658
-23.0058
-23.3892
-23.8002
-24.227
-24.6538
-25.0637
-25.4404
-25.7713
-26.0484
-26.2683
-26.4307
-26.5374
-26.5901
-27.0984
-27.0459
-26.9448
-26.8021
-26.6268
-26.4278
-26.2134
-25.9898
-25.7615
-25.5311
-25.3001
-25.0693
-24.8394
-24.6117
-24.3877
-24.169
-23.9572
-23.7536
-23.5587
-23.3723
-23.1937
-23.022
-22.8563
-22.6959
-22.5406
-22.3905
-22.2461
-22.1075
-21.9749
-21.8483
-21.7278
-21.6138
-21.5069
-21.4082
-21.3189
-21.2406
-21.1748
-21.1228
-21.086
-21.0658
-21.0637
-21.0814
-21.1208
-21.1843
-21.2744
-21.3941
-21.5466
-21.7355
-21.9647
-22.2376
-22.5569
-22.9229
-23.3323
-23.7768
-24.2427
-24.711
-25.1606
-25.5715
-25.9286
-26.2236
-26.4542
-26.6223
-26.7314
-26.7849
-27.2537
-27.1937
-27.0789
-26.9183
-26.7231
-26.5046
-26.2725
-26.034
-25.7935
-25.5534
-25.3142
-25.0762
-24.8396
-24.6055
-24.3755
-24.1515
-23.9356
-23.7292
-23.5327
-23.3459
-23.1675
-22.9962
-22.8307
-22.67
-22.514
-22.363
-22.2173
-22.0773
-21.9432
-21.8148
-21.6918
-21.5747
-21.4639
-21.3606
-21.2663
-21.1826
-21.1113
-21.0536
-21.011
-20.9847
-20.9762
-20.9872
-21.0197
-21.0762
-21.1595
-21.2729
-21.4202
-21.6058
-21.8346
-22.1116
-22.4414
-22.8261
-23.2637
-23.7459
-24.2567
-24.7733
-25.2689
-25.7185
-26.1041
-26.4171
-26.6573
-26.8293
-26.9393
-26.9928
-27.4244
-27.3554
-27.2241
-27.0421
-26.8238
-26.5831
-26.3315
-26.077
-25.8241
-25.5743
-25.3273
-25.0823
-24.839
-24.5981
-24.3616
-24.1319
-23.9115
-23.7021
-23.5043
-23.3175
-23.1398
-22.9694
-22.8044
-22.6436
-22.4869
-22.3346
-22.1876
-22.0463
-21.9108
-21.7807
-21.6553
-21.5349
-21.4199
-21.3117
-21.212
-21.1227
-21.0455
-20.9819
-20.9332
-20.9006
-20.8853
-20.8891
-20.9141
-20.9629
-21.0385
-21.1445
-21.2852
-21.4658
-21.6923
-21.9717
-22.3107
-22.7141
-23.1818
-23.7057
-24.2679
-24.8405
-25.3894
-25.8826
-26.2986
-26.6291
-26.8768
-27.0502
-27.1591
-27.2115
-27.6108
-27.531
-27.38
-27.1728
-26.9277
-26.6619
-26.3889
-26.1176
-25.8523
-25.5934
-25.3392
-25.0875
-24.8374
-24.5896
-24.346
-24.1099
-23.8847
-23.6724
-23.4735
-23.2871
-23.1109
-22.942
-22.7777
-22.6169
-22.4593
-22.3057
-22.1572
-22.0147
-21.8781
-21.7464
-21.6188
-21.495
-21.3756
-21.2621
-21.1566
-21.0612
-20.9779
-20.9082
-20.8533
-20.8142
-20.792
-20.7882
-20.8051
-20.8454
-20.9125
-21.01
-21.1427
-21.3163
-21.5384
-21.8177
-22.164
-22.5853
-23.0845
-23.6544
-24.2752
-24.9128
-25.5234
-26.0657
-26.5134
-26.8597
-27.1117
-27.2833
-27.3885
-27.4383
-27.8138
-27.7209
-27.5464
-27.3096
-27.0335
-26.7395
-26.4433
-26.1545
-25.8773
-25.6103
-25.3498
-25.0921
-24.8353
-24.58
-24.3287
-24.0856
-23.8551
-23.6397
-23.4401
-23.255
-23.0811
-22.9142
-22.7512
-22.5904
-22.4318
-22.2765
-22.1264
-21.9827
-21.8452
-21.7124
-21.5826
-21.4554
-21.3314
-21.2122
-21.1004
-20.9987
-20.9091
-20.8333
-20.7721
-20.7264
-20.697
-20.6853
-20.6936
-20.7249
-20.7826
-20.8705
-20.9937
-21.1585
-21.3735
-21.6498
-22.0005
-22.4382
-22.9696
-23.5898
-24.277
-24.9903
-25.6727
-26.2698
-26.7502
-27.1093
-27.3612
-27.5266
-27.625
-27.6706
-28.0341
-27.9256
-27.7232
-27.4515
-27.1397
-26.8143
-26.4932
-26.1867
-25.8982
-25.6246
-25.3591
-25.0961
-24.8328
-24.5698
-24.3099
-24.0588
-23.8225
-23.6041
-23.4042
-23.2211
-23.0505
-22.8866
-22.7252
-22.5644
-22.4045
-22.2471
-22.095
-21.9504
-21.8125
-21.6789
-21.5473
-21.4167
-21.2878
-21.1624
-21.0438
-20.9354
-20.8394
-20.7574
-20.6901
-20.6378
-20.6011
-20.5812
-20.5804
-20.6021
-20.6498
-20.7272
-20.8394
-20.9933
-21.1985
-21.4681
-21.8196
-22.2711
-22.8348
-23.509
-24.2715
-25.0731
-25.8394
-26.4979
-27.0107
-27.3783
-27.6243
-27.7783
-27.8662
-27.9057
-28.2727
-28.1455
-27.9101
-27.5975
-27.2449
-26.8848
-26.5372
-26.2129
-25.9145
-25.6361
-25.3674
-25.1
-24.8304
-24.5592
-24.2896
-24.0294
-23.7868
-23.5651
-23.3654
-23.1856
-23.0194
-22.8596
-22.7002
-22.5394
-22.3778
-22.2175
-22.0631
-21.9177
-21.7801
-21.6465
-21.5132
-21.3792
-21.2451
-21.113
-20.9871
-20.8717
-20.7692
-20.681
-20.6077
-20.5491
-20.5051
-20.4767
-20.4664
-20.478
-20.515
-20.5811
-20.6811
-20.8222
-21.0145
-21.2733
-21.6209
-22.0824
-22.6774
-23.4091
-24.2562
-25.1613
-26.0265
-26.7536
-27.2973
-27.667
-27.8996
-28.0361
-28.1093
-28.1407
-28.5309
-28.3813
-28.1071
-27.7466
-27.3473
-26.9493
-26.5738
-26.2318
-25.9254
-25.6448
-25.3751
-25.1042
-24.8285
-24.5487
-24.2679
-23.9972
-23.7476
-23.5228
-23.3237
-23.1483
-22.9883
-22.8336
-22.6766
-22.5156
-22.3518
-22.1879
-22.0305
-21.8846
-21.7481
-21.6153
-21.4808
-21.3434
-21.2039
-21.0644
-20.9304
-20.8078
-20.6987
-20.6044
-20.5255
-20.4608
-20.4096
-20.3724
-20.3523
-20.3533
-20.3793
-20.4334
-20.5199
-20.6463
-20.8228
-21.066
-21.404
-21.8704
-22.4946
-23.2864
-24.228
-25.2552
-26.238
-27.0413
-27.6124
-27.9753
-28.1857
-28.2977
-28.3518
-28.373
-28.8101
-28.6336
-28.3142
-27.8976
-27.445
-27.0063
-26.6016
-26.2421
-25.9303
-25.6507
-25.3827
-25.1093
-24.8276
-24.5388
-24.245
-23.9618
-23.7048
-23.4767
-23.2787
-23.1093
-22.9573
-22.8093
-22.6549
-22.4934
-22.3271
-22.1582
-21.9968
-21.8509
-21.7168
-21.5859
-21.4504
-21.3095
-21.1644
-21.0166
-20.8737
-20.7437
-20.6281
-20.5279
-20.4438
-20.3734
-20.3152
-20.269
-20.2385
-20.2287
-20.2434
-20.2852
-20.3572
-20.4673
-20.625
-20.8473
-21.1688
-21.6336
-22.2838
-23.1369
-24.1825
-25.3544
-26.4789
-27.3665
-27.9586
-28.3032
-28.4805
-28.5604
-28.5908
-28.5997
-29.1119
-28.9032
-28.5313
-28.0492
-27.5357
-27.054
-26.6194
-26.2427
-25.9287
-25.6541
-25.391
-25.1157
-24.828
-24.5304
-24.2211
-23.9227
-23.6582
-23.4268
-23.23
-23.0686
-22.9269
-22.7873
-22.6355
-22.4732
-22.3039
-22.1283
-21.9615
-21.8163
-21.6862
-21.5587
-21.4224
-21.2779
-21.1273
-20.9699
-20.817
-20.6795
-20.5575
-20.4516
-20.3629
-20.2875
-20.2225
-20.167
-20.1257
-20.1046
-20.1082
-20.1374
-20.194
-20.2867
-20.423
-20.6186
-20.9157
-21.3706
-22.0422
-22.956
-24.1143
-25.4588
-26.7559
-27.7355
-28.3384
-28.6497
-28.7817
-28.8214
-28.8237
-28.8184
-29.4382
-29.1904
-28.7588
-28.1999
-27.6167
-27.0912
-26.6259
-26.232
-25.92
-25.6552
-25.4011
-25.1241
-24.8303
-24.5244
-24.1962
-23.8793
-23.6077
-23.3727
-23.177
-23.0261
-22.8975
-22.7684
-22.6188
-22.4551
-22.2829
-22.0982
-21.9239
-21.7806
-21.6564
-21.5342
-21.3971
-21.2489
-21.0929
-20.9245
-20.76
-20.6154
-20.487
-20.3755
-20.2831
-20.2035
-20.1321
-20.0669
-20.0141
-19.9814
-19.9742
-19.9911
-20.0315
-20.1062
-20.2192
-20.3815
-20.6451
-21.0801
-21.7674
-22.739
-24.0157
-25.5671
-27.0778
-28.1562
-28.7543
-29.0135
-29.0864
-29.0779
-29.0478
-29.0266
-29.791
-29.4953
-28.9974
-28.3479
-27.6848
-27.1168
-26.6203
-26.2082
-25.9039
-25.6546
-25.4146
-25.1348
-24.8345
-24.5222
-24.1705
-23.8304
-23.5533
-23.3146
-23.119
-22.9817
-22.8694
-22.7538
-22.6051
-22.4391
-22.2648
-22.0677
-21.8828
-21.7432
-21.6276
-21.5133
-21.3747
-21.2224
-21.0621
-20.8805
-20.7021
-20.5513
-20.4169
-20.2996
-20.2047
-20.1218
-20.0446
-19.9692
-19.904
-19.8595
-19.842
-19.8473
-19.8704
-19.9271
-20.016
-20.1379
-20.358
-20.7606
-21.4578
-22.4812
-23.8764
-25.6775
-27.4567
-28.6376
-29.2078
-29.3923
-29.3914
-29.3267
-29.2607
-29.2223
-30.1729
-29.8175
-29.2484
-28.4917
-27.7356
-27.1305
-26.6023
-26.1693
-25.8802
-25.6525
-25.4334
-25.1482
-24.8403
-24.5261
-24.1442
-23.7741
-23.4954
-23.2524
-23.0548
-22.9356
-22.843
-22.7447
-22.5947
-22.4252
-22.251
-22.0366
-21.8368
-21.7039
-21.5999
-21.4969
-21.3553
-21.1983
-21.0357
-20.8378
-20.6427
-20.4876
-20.3473
-20.2236
-20.1279
-20.0427
-19.9607
-19.8742
-19.7957
-19.7388
-19.7122
-19.707
-19.7112
-19.7509
-19.8167
-19.8902
-20.0559
-20.4107
-21.1125
-22.1787
-23.6822
-25.7864
-27.909
-29.1899
-29.6998
-29.7825
-29.6927
-29.565
-29.4603
-29.4036
-30.5871
-30.1552
-29.5143
-28.6291
-27.7635
-27.133
-26.5719
-26.1123
-25.849
-25.6494
-25.4604
-25.1641
-24.8467
-24.5391
-24.1173
-23.7078
-23.4352
-23.1867
-22.9826
-22.8877
-22.8185
-22.7432
-22.5875
-22.4125
-22.2432
-22.005
-21.7835
-21.6623
-21.5733
-21.4866
-21.3389
-21.176
-21.0154
-20.7967
-20.5804
-20.4246
-20.2784
-20.1471
-20.053
-19.9667
-19.881
-19.7822
-19.6891
-19.6192
-19.5851
-19.5716
-19.5541
-19.5789
-19.6249
-19.6405
-19.7408
-20.0282
-20.732
-21.8291
-23.414
-25.8882
-28.4571
-29.8242
-30.2293
-30.1796
-29.9862
-29.7897
-29.6445
-29.5692
-31.0377
-30.5046
-29.7992
-28.7581
-27.7607
-27.1265
-26.53
-26.0331
-25.8112
-25.645
-25.4997
-25.182
-24.8517
-24.5658
-24.0902
-23.6272
-23.3745
-23.1183
-22.8998
-22.8388
-22.7959
-22.7517
-22.583
-22.3996
-22.2444
-21.9725
-21.72
-21.6185
-21.5475
-21.4843
-21.3252
-21.1545
-21.0033
-20.757
-20.5132
-20.3632
-20.2106
-20.0692
-19.9804
-19.8939
-19.8065
-19.6935
-19.5842
-19.5004
-19.4609
-19.4425
-19.3986
-19.4117
-19.4453
-19.391
-19.4159
-19.6099
-20.3185
-21.433
-23.046
-25.9739
-29.1321
-30.552
-30.7931
-30.5777
-30.2674
-29.9982
-29.8118
-29.7181
-31.5299
-30.8589
-30.1103
-28.8765
-27.7164
-27.1158
-26.4783
-25.9258
-25.7685
-25.6385
-25.557
-25.2006
-24.8515
-24.613
-24.0627
-23.526
-23.3167
-23.0485
-22.8025
-22.7898
-22.7745
-22.7742
-22.5804
-22.3842
-22.2589
-21.9393
-21.642
-21.573
-21.5221
-21.4931
-21.3134
-21.1316
-21.0025
-20.7188
-20.4383
-20.3047
-20.1445
-19.9887
-19.9107
-19.8244
-19.7382
-19.6082
-19.481
-19.3816
-19.3397
-19.322
-19.2433
-19.2494
-19.2835
-19.1432
-19.0855
-19.1507
-19.8761
-20.9966
-22.5433
-26.0296
-29.977
-31.3838
-31.3851
-30.9694
-30.5317
-30.188
-29.9612
-29.8498
-32.0712
-31.2061
-30.4586
-28.9819
-27.6154
-27.1092
-26.4199
-25.7817
-25.7247
-25.6272
-25.6407
-25.2176
-24.8398
-24.6908
-24.0351
-23.3949
-23.2676
-22.9793
-22.6851
-22.7431
-22.7525
-22.816
-22.5782
-22.3621
-22.293
-21.9052
-21.5434
-21.5276
-21.4954
-21.5173
-21.3024
-21.1043
-21.018
-20.6819
-20.3512
-20.2514
-20.0808
-19.9035
-19.8449
-19.7579
-19.6774
-19.5264
-19.3793
-19.262
-19.2213
-19.2131
-19.086
-19.0912
-19.147
-18.8975
-18.7563
-18.6422
-19.4111
-20.5339
-21.859
-26.0348
-31.0517
-32.3275
-31.9955
-31.3466
-30.7746
-30.3573
-30.0919
-29.9638
-32.6721
-31.5274
-30.8617
-29.0722
-27.4364
-27.1203
-26.359
-25.5881
-25.6865
-25.6059
-25.7625
-25.2296
-24.8068
-24.8136
-24.0071
-23.2204
-23.2359
-22.9136
-22.539
-22.7031
-22.7263
-22.8848
-22.574
-22.3269
-22.3562
-21.8701
-21.4159
-21.4856
-21.4648
-21.5631
-21.2904
-21.0676
-21.0567
-20.6461
-20.2458
-20.2072
-20.0206
-19.8107
-19.7847
-19.6938
-19.626
-19.4478
-19.2792
-19.1402
-19.1049
-19.1203
-18.9228
-18.9352
-19.0456
-18.6522
-18.4387
-18.071
-18.932
-20.0712
-20.931
-25.9593
-32.4383
-33.3851
-32.6101
-31.7001
-30.992
-30.5045
-30.2037
-30.0606
-33.3473
-31.7932
-31.3455
-29.1451
-27.1495
-27.1697
-26.3014
-25.3268
-25.6654
-25.5649
-25.9394
-25.2315
-24.7377
-25.0024
-23.9786
-22.9832
-23.235
-22.8553
-22.3521
-22.6771
-22.6895
-22.9917
-22.5645
-22.2691
-22.4618
-21.8336
-21.2481
-21.4533
-21.4251
-21.6394
-21.2745
-21.0139
-21.1288
-20.611
-20.1133
-20.1779
-19.9649
-19.7058
-19.7327
-19.6304
-19.5865
-19.3719
-19.1809
-19.0146
-18.9892
-19.0502
-18.7484
-18.7775
-18.9928
-18.4018
-18.1482
-17.4169
-18.4491
-19.6521
-19.6779
-25.7603
-34.2496
-34.5487
-33.2103
-32.0205
-31.1806
-30.6289
-30.2966
-30.1404
-34.1179
-31.9593
-31.9486
-29.1983
-26.7135
-27.2878
-26.2548
-24.9716
-25.6803
-25.4877
-26.1952
-25.2163
-24.611
-25.2861
-23.9491
-22.6564
-23.2846
-22.8094
-22.107
-22.6771
-22.6312
-23.1525
-22.5449
-22.1748
-22.6286
-21.7954
-21.0242
-21.441
-21.3678
-21.7588
-21.251
-20.9326
-21.2484
-20.5758
-19.9415
-20.1721
-19.9154
-19.5826
-19.6934
-19.5652
-19.5625
-19.2973
-19.0849
-18.8833
-18.8717
-19.0121
-18.5552
-18.6117
-19.0069
-18.1355
-17.9082
-16.6498
-17.9733
-19.3445
-17.9933
-25.3772
-36.6388
-35.7944
-33.7728
-32.2988
-31.3377
-30.7301
-30.3712
-30.2042
-35.0133
-31.9612
-32.726
-29.2295
-26.0723
-27.5182
-26.2284
-24.4858
-25.7601
-25.3482
-26.5636
-25.1743
-24.3961
-25.7049
-23.9177
-22.2031
-23.4128
-22.7821
-21.7794
-22.722
-22.5341
-23.3889
-22.5088
-22.0244
-22.8824
-21.7542
-20.723
-21.4649
-21.2791
-21.9389
-21.2146
-20.8084
-21.4352
-20.5393
-19.7139
-20.2021
-19.8736
-19.4323
-19.6732
-19.4937
-19.5588
-19.2222
-18.9922
-18.7436
-18.7482
-19.0195
-18.3327
-18.4285
-19.1133
-17.8339
-17.754
-15.7268
-17.5146
-19.2487
-15.7412
-24.7269
-39.8117
-37.0738
-34.271
-32.5274
-31.4619
-30.8085
-30.4285
-30.2528
-36.0745
-31.7078
-33.7548
-29.2364
-25.1502
-27.9216
-26.2335
-23.8189
-25.9491
-25.106
-27.0904
-25.0933
-24.051
-26.313
-23.8827
-21.5735
-23.6585
-22.781
-21.3357
-22.8406
-22.3717
-23.7313
-22.4479
-21.7906
-23.2582
-21.7084
-20.3161
-21.5497
-21.1379
-22.2038
-21.1586
-20.6204
-21.7159
-20.4997
-19.4081
-20.2855
-19.8413
-19.2428
-19.682
-19.409
-19.5821
-19.1432
-18.9048
-18.5931
-18.6122
-19.0907
-18.0675
-18.2139
-19.3466
-17.4654
-17.7366
-14.5883
-17.0795
-19.5071
-12.7488
-23.6963
-44.0418
-38.304
-34.6766
-32.7002
-31.5528
-30.865
-30.4694
-30.2875
-37.3572
-31.0729
-35.1409
-29.2161
-23.8476
-28.5805
-26.2828
-22.9023
-26.3114
-24.7013
-27.8382
-24.9572
-23.5185
-27.1823
-23.8419
-20.702
-24.075
-22.8147
-20.7305
-23.0747
-22.1046
-24.2209
-22.3512
-21.437
-23.8027
-21.6551
-19.7659
-21.7315
-20.9125
-22.5867
-21.074
-20.3405
-22.1261
-20.4542
-18.995
-20.4462
-19.8199
-18.9981
-19.7339
-19.3008
-19.642
-19.0555
-18.8256
-18.4288
-18.4542
-19.2509
-17.7421
-17.9484
-19.7545
-16.9815
-17.9291
-13.1536
-16.6675
-20.3161
-8.79989
-22.1347
-49.6875
-39.3538
-34.9631
-32.8145
-31.6114
-30.901
-30.4953
-30.3094
-38.9364
-29.8857
-37.0268
-29.1656
-22.0352
-29.6044
-26.3907
-21.645
-26.9389
-24.0487
-28.8908
-24.7463
-22.7232
-28.4064
-23.7917
-19.5031
-24.733
-22.8932
-19.9034
-23.4841
-21.6764
-24.9125
-22.2053
-20.9149
-24.5766
-21.5895
-19.0234
-22.0611
-20.5574
-23.1315
-20.9494
-19.9317
-22.7124
-20.3989
-18.4366
-20.7163
-19.8104
-18.6766
-19.8491
-19.154
-19.7512
-18.9517
-18.7592
-18.2479
-18.2598
-19.5332
-17.3348
-17.6049
-20.4013
-16.3106
-18.4334
-11.3165
-16.2664
-21.9388
-3.62779
-19.844
-57.2129
-40.0274
-35.1109
-32.8703
-31.6396
-30.9182
-30.5076
-30.3198
)
;

boundaryField
{
    left
    {
        type            calculated;
        value           nonuniform List<scalar> 
32
(
-26.4235
-26.4458
-26.4885
-26.5497
-26.6281
-26.7227
-26.8329
-26.9581
-27.0984
-27.2537
-27.4244
-27.6108
-27.8138
-28.0341
-28.2727
-28.5309
-28.8101
-29.1119
-29.4382
-29.791
-30.1729
-30.5871
-31.0377
-31.5299
-32.0712
-32.6721
-33.3473
-34.1179
-35.0133
-36.0745
-37.3572
-38.9364
)
;
    }
    right
    {
        type            calculated;
        value           nonuniform List<scalar> 
32
(
-25.7943
-25.829
-25.895
-25.9889
-26.1079
-26.2493
-26.4108
-26.5901
-26.7849
-26.9928
-27.2115
-27.4383
-27.6706
-27.9057
-28.1407
-28.373
-28.5997
-28.8184
-29.0266
-29.2223
-29.4036
-29.5692
-29.7181
-29.8498
-29.9638
-30.0606
-30.1404
-30.2042
-30.2528
-30.2875
-30.3094
-30.3198
)
;
    }
    interface
    {
        type            calculated;
        value           nonuniform List<scalar> 
64
(
-39.8108
-29.1297
-38.1151
-29.1325
-20.9835
-30.2232
-26.4611
-20.9182
-27.3323
-23.6479
-29.5053
-24.6193
-22.2491
-29.1204
-23.7637
-18.8099
-25.1324
-22.945
-19.4258
-23.7412
-21.4138
-25.3168
-22.118
-20.6049
-25.0294
-21.553
-18.5972
-22.2703
-20.3407
-23.4507
-20.8755
-19.6897
-23.056
-20.3681
-18.1158
-20.8833
-19.8087
-18.4937
-19.9254
-19.0687
-19.82
-18.8947
-18.7299
-18.153
-18.1515
-19.7097
-17.1075
-17.4097
-20.7937
-15.9179
-18.7784
-10.2823
-16.066
-22.991
-0.699196
-18.4883
-61.5106
-40.2411
-35.1483
-32.8839
-31.6464
-30.9224
-30.5106
-30.3222
)
;
    }
    bottom
    {
        type            calculated;
        value           nonuniform List<scalar> 
64
(
-26.4177
-26.3903
-26.3362
-26.257
-26.1547
-26.0319
-25.8913
-25.7356
-25.5676
-25.3899
-25.2049
-25.0146
-24.8212
-24.6262
-24.4311
-24.2373
-24.0459
-23.8578
-23.6737
-23.4943
-23.32
-23.1511
-22.988
-22.8308
-22.6798
-22.5353
-22.3975
-22.2667
-22.1435
-22.0281
-21.9213
-21.8235
-21.7357
-21.6585
-21.593
-21.5402
-21.5011
-21.477
-21.469
-21.4784
-21.5065
-21.5545
-21.6236
-21.715
-21.8295
-21.968
-22.1308
-22.3178
-22.5283
-22.7608
-23.0131
-23.2819
-23.5628
-23.8506
-24.1394
-24.4227
-24.6937
-24.9459
-25.1732
-25.3705
-25.5332
-25.6581
-25.7427
-25.7853
)
;
    }
    defaultFaces
    {
        type            empty;
    }
}


// ************************************************************************* //
