/*--------------------------------*- C++ -*----------------------------------*\
| =========                 |                                                 |
| \\      /  F ield         | OpenFOAM: The Open Source CFD Toolbox           |
|  \\    /   O peration     | Version:  5.x                                   |
|   \\  /    A nd           | Web:      www.OpenFOAM.org                      |
|    \\/     M anipulation  |                                                 |
\*---------------------------------------------------------------------------*/
FoamFile
{
    version     2.0;
    format      ascii;
    class       volScalarField;
    location    "5.2";
    object      gradTx;
}
// * * * * * * * * * * * * * * * * * * * * * * * * * * * * * * * * * * * * * //

dimensions      [0 -1 0 1 0 0 0];

internalField   nonuniform List<scalar> 
2048
(
0.00630439
0.0187328
0.0306364
0.041717
0.0517459
0.0605737
0.0681301
0.0744128
0.0794715
0.0833892
0.0862655
0.0882049
0.0893093
0.0896755
0.089396
0.08856
0.0872541
0.085562
0.0835615
0.0813209
0.0788962
0.0763279
0.0736408
0.0708452
0.0679387
0.0649093
0.0617373
0.0583973
0.0548583
0.0510844
0.0470354
0.0426675
0.0379358
0.0327954
0.0272047
0.021126
0.0145271
0.00738174
-0.000329558
-0.00861847
-0.0174865
-0.0269215
-0.0368918
-0.0473402
-0.0581751
-0.0692617
-0.0804129
-0.0913815
-0.101856
-0.111465
-0.119783
-0.12636
-0.130754
-0.132571
-0.131513
-0.127417
-0.120278
-0.110248
-0.0976161
-0.0827655
-0.06613
-0.0481505
-0.029247
-0.00980743
0.0187868
0.0558136
0.0912499
0.124197
0.153968
0.180124
0.202464
0.220996
0.235883
0.247382
0.255799
0.261448
0.264633
0.265639
0.264739
0.262195
0.258266
0.253199
0.247228
0.240559
0.233357
0.225744
0.217792
0.209529
0.200947
0.192007
0.182651
0.172803
0.16237
0.151247
0.139313
0.126438
0.112486
0.0973246
0.080828
0.0628844
0.0433979
0.0222905
-0.000496482
-0.0249995
-0.051226
-0.0791441
-0.108667
-0.139631
-0.171773
-0.204703
-0.237873
-0.270557
-0.301832
-0.330586
-0.355549
-0.375362
-0.388676
-0.394292
-0.391299
-0.379195
-0.357964
-0.328076
-0.290414
-0.246153
-0.196609
-0.14311
-0.0869055
-0.0291383
0.0311375
0.0924761
0.151096
0.205471
0.254455
0.297331
0.333803
0.363927
0.388015
0.406534
0.420011
0.428978
0.433936
0.435349
0.433656
0.429285
0.422658
0.414189
0.404266
0.393235
0.381373
0.368881
0.355873
0.342389
0.328408
0.313861
0.298649
0.282646
0.265702
0.247642
0.228266
0.207358
0.184691
0.160042
0.133201
0.103983
0.072232
0.0378177
0.000641839
-0.0393604
-0.0822104
-0.127869
-0.176212
-0.226993
-0.279807
-0.334038
-0.388815
-0.442961
-0.494968
-0.542992
-0.584901
-0.618388
-0.64114
-0.65108
-0.646614
-0.626866
-0.591804
-0.542256
-0.479772
-0.406391
-0.324375
-0.235962
-0.143224
-0.0480093
0.0435963
0.129416
0.211259
0.28692
0.354771
0.413843
0.463789
0.504781
0.537347
0.562211
0.580161
0.591955
0.598286
0.599784
0.597038
0.590628
0.581136
0.569143
0.555203
0.539808
0.523353
0.506115
0.488245
0.469784
0.450686
0.430846
0.410122
0.388337
0.365287
0.340731
0.31439
0.285957
0.25511
0.221531
0.184927
0.145038
0.101647
0.0545759
0.00368528
-0.0511234
-0.109897
-0.172607
-0.239117
-0.30913
-0.382136
-0.45734
-0.533591
-0.609305
-0.682412
-0.750337
-0.810049
-0.85821
-0.891425
-0.9066
-0.901335
-0.874297
-0.825438
-0.756017
-0.668384
-0.565595
-0.450975
-0.327746
-0.198793
-0.0666108
0.0563789
0.167257
0.272703
0.369745
0.456253
0.53103
0.593754
0.644805
0.685019
0.715454
0.737201
0.751259
0.758506
0.759711
0.755593
0.746864
0.734264
0.718551
0.700458
0.68064
0.659619
0.637747
0.615201
0.592009
0.568085
0.543275
0.517389
0.490206
0.46147
0.430877
0.39807
0.362645
0.324176
0.282245
0.236468
0.186512
0.132103
0.0730169
0.00907378
-0.0598643
-0.133883
-0.212986
-0.297054
-0.385781
-0.478599
-0.574588
-0.672375
-0.770023
-0.864936
-0.953808
-1.03266
-1.097
-1.14218
-1.16387
-1.15869
-1.12471
-1.06186
-0.971949
-0.858334
-0.725319
-0.577485
-0.419136
-0.253975
-0.0850561
0.0696902
0.206585
0.336319
0.455042
0.560082
0.650062
0.724787
0.784972
0.831887
0.867021
0.891819
0.907536
0.915213
0.915724
0.909879
0.898505
0.882497
0.862802
0.840358
0.81601
0.790418
0.764012
0.73698
0.709312
0.680861
0.65141
0.620716
0.588518
0.554519
0.518361
0.479604
0.43774
0.392225
0.342529
0.288171
0.228748
0.163932
0.0934607
0.0171156
-0.0652847
-0.153878
-0.248727
-0.349763
-0.456714
-0.569009
-0.685669
-0.805171
-0.925294
-1.04297
-1.15418
-1.25392
-1.33642
-1.39554
-1.42544
-1.42144
-1.38086
-1.30359
-1.19215
-1.0512
-0.886628
-0.704544
-0.510468
-0.308918
-0.103385
0.0837343
0.247981
0.402977
0.543845
0.667336
0.771957
0.85778
0.926028
0.978564
1.01743
1.04448
1.06123
1.06886
1.06828
1.06034
1.04597
1.0262
1.0022
0.975148
0.946116
0.915927
0.885085
0.853769
0.821899
0.789234
0.755473
0.720319
0.683482
0.644642
0.603395
0.559216
0.51148
0.459509
0.402641
0.340293
0.271989
0.197361
0.116117
0.0280083
-0.0671926
-0.169691
-0.279633
-0.397039
-0.521718
-0.653156
-0.790388
-0.931829
-1.07507
-1.21664
-1.35185
-1.47463
-1.57775
-1.65328
-1.6935
-1.69205
-1.64522
-1.55282
-1.41832
-1.24812
-1.05015
-0.832389
-0.601758
-0.363565
-0.121568
0.0987229
0.292041
0.473552
0.637169
0.779025
0.897612
0.993458
1.06851
1.12544
1.16697
1.19544
1.21262
1.21975
1.21771
1.20734
1.18959
1.16566
1.13697
1.105
1.07109
1.03626
1.00109
0.965718
0.929946
0.893397
0.85566
0.81638
0.775261
0.731988
0.686126
0.637067
0.584045
0.526219
0.462775
0.393015
0.316398
0.232527
0.141102
0.0418548
-0.0654876
-0.181212
-0.305576
-0.43873
-0.580609
-0.730821
-0.888493
-1.05208
-1.2191
-1.3858
-1.54688
-1.69519
-1.82186
-1.91683
-1.96998
-1.97277
-1.92007
-1.81152
-1.65187
-1.44986
-1.21608
-0.960869
-0.692713
-0.417662
-0.139505
0.114882
0.339395
0.548955
0.736037
0.896122
1.02783
1.1324
1.21278
1.2727
1.31574
1.34479
1.36184
1.36809
1.3643
1.35117
1.32966
1.30113
1.2673
1.23003
1.19101
1.15149
1.11211
1.07295
1.03361
0.99353
0.952147
0.909053
0.863979
0.816658
0.766654
0.713266
0.65556
0.592495
0.523073
0.446465
0.362072
0.269496
0.168453
0.0586761
-0.0601503
-0.188408
-0.326498
-0.474738
-0.633241
-0.80179
-0.979691
-1.16555
-1.35696
-1.55006
-1.73903
-1.91567
-2.06931
-2.18735
-2.25664
-2.26576
-2.20758
-2.0815
-1.89395
-1.65682
-1.38424
-1.08946
-0.78274
-0.470766
-0.157037
0.132457
0.390726
0.630152
0.841498
1.01957
1.16333
1.27504
1.35903
1.42035
1.46366
1.49246
1.5089
1.514
1.50826
1.49211
1.46644
1.43281
1.39332
1.35031
1.30589
1.26161
1.2182
1.17556
1.13305
1.08981
1.04511
0.998473
0.949725
0.89871
0.845029
0.787878
0.726114
0.658444
0.583639
0.500725
0.409058
0.308273
0.19814
0.0784216
-0.0512319
-0.191314
-0.342401
-0.50502
-0.679507
-0.865873
-1.06368
-1.27182
-1.48811
-1.7088
-1.92776
-2.13581
-2.32034
-2.46574
-2.5551
-2.57315
-2.51
-2.36453
-2.14549
-1.86906
-1.55403
-1.21724
-0.870957
-0.522259
-0.173941
0.15172
0.446779
0.718183
0.954652
1.15032
1.30475
1.42169
1.50726
1.5682
1.61048
1.63825
1.65371
1.65755
1.64977
1.6304
1.60018
1.5609
1.51514
1.46584
1.41569
1.3666
1.31936
1.27363
1.2284
1.18242
1.13471
1.08477
1.03256
0.97816
0.921259
0.860933
0.795767
0.724146
0.644556
0.555849
0.457361
0.348811
0.230074
0.100978
-0.0388469
-0.190023
-0.353343
-0.52959
-0.719355
-0.922923
-1.14018
-1.37042
-1.61191
-1.86123
-2.11226
-2.35503
-2.57487
-2.75269
-2.86688
-2.89713
-2.82962
-2.66238
-2.40726
-2.0863
-1.72443
-1.34295
-0.956207
-0.571359
-0.189945
0.172975
0.508381
0.814179
1.07666
1.28929
1.45267
1.57255
1.65733
1.7159
1.75578
1.78183
1.79612
1.79876
1.78901
1.7663
1.73115
1.68557
1.63283
1.57661
1.52032
1.46637
1.41557
1.36725
1.31983
1.27157
1.22116
1.16805
1.11251
1.05498
0.995313
0.932429
0.864557
0.78967
0.705892
0.611869
0.506954
0.391021
0.264114
0.126175
-0.0231649
-0.184681
-0.359434
-0.548513
-0.752794
-0.972848
-1.20894
-1.4609
-1.72764
-2.00642
-2.29149
-2.57241
-2.83248
-3.0486
-3.19342
-3.23999
-3.169
-2.97693
-2.67984
-2.30787
-1.89402
-1.46495
-1.03709
-0.617152
-0.204733
0.19656
0.576445
0.919374
1.20874
1.43742
1.60758
1.72766
1.80894
1.86293
1.89901
1.92277
1.93591
1.93761
1.92616
1.90012
1.8596
1.80702
1.74645
1.68255
1.61966
1.5608
1.50682
1.4565
1.40752
1.35749
1.30465
1.24844
1.18958
1.12911
1.06712
1.00234
0.932507
0.855077
0.767714
0.668807
0.557786
0.434779
0.300076
0.153796
-0.00440353
-0.175479
-0.360829
-0.561908
-0.779891
-1.01563
-1.26979
-1.54285
-1.8346
-2.14331
-2.46417
-2.78674
-3.09241
-3.35363
-3.53606
-3.60422
-3.53098
-3.31021
-2.96367
-2.53269
-2.0609
-1.58124
-1.11198
-0.658617
-0.217961
0.222855
0.651982
1.03512
1.35221
1.59562
1.76987
1.88696
1.96164
2.00858
2.03946
2.06055
2.07282
2.07412
2.06144
2.03218
1.98585
1.92541
1.85604
1.78357
1.71352
1.64973
1.59304
1.54147
1.49167
1.44044
1.38545
1.32606
1.26374
1.20041
1.13658
1.07062
0.999633
0.920433
0.830096
0.72668
0.609784
0.47993
0.337739
0.183581
0.0171782
-0.162643
-0.357715
-0.569937
-0.800783
-1.05133
-1.32264
-1.61592
-1.93208
-2.27078
-2.62882
-2.99646
-3.35354
-3.66759
-3.89604
-3.99251
-3.91884
-3.66447
-3.25896
-2.75923
-2.2227
-1.6895
-1.1791
-0.694676
-0.229273
0.252287
0.736109
1.16287
1.50845
1.76479
1.93985
2.05027
2.11483
2.15203
2.17629
2.19458
2.20659
2.20827
2.1951
2.16288
2.11023
2.04092
1.96165
1.87955
1.80166
1.73293
1.67417
1.62226
1.57251
1.52074
1.46385
1.40105
1.3349
1.26874
1.20355
1.13722
1.06595
0.98581
0.893131
0.785507
0.662858
0.526296
0.37685
0.215228
0.041286
-0.146424
-0.350302
-0.572798
-0.815666
-1.0801
-1.36749
-1.67989
-2.01946
-2.38768
-2.78377
-3.19975
-3.61438
-3.98996
-4.27439
-4.40782
-4.33648
-4.04232
-3.5657
-2.98538
-2.37656
-1.78714
-1.23656
-0.724241
-0.238317
0.285338
0.830049
1.30424
1.67897
1.94577
2.11767
2.21728
2.2678
2.29226
2.30856
2.32423
2.33695
2.34007
2.32741
2.29269
2.23311
2.15375
2.0633
1.97033
1.88377
1.81013
1.75012
1.69901
1.65028
1.59875
1.54021
1.47356
1.40296
1.33384
1.26786
1.20208
1.13145
1.05129
0.956943
0.845315
0.716901
0.573681
0.417129
0.248405
0.067595
-0.127092
-0.338812
-0.570716
-0.8248
-1.10218
-1.40446
-1.73464
-2.09624
-2.49287
-2.92725
-3.39446
-3.87305
-4.31979
-4.67191
-4.85338
-4.78854
-4.4468
-3.88354
-3.20839
-2.51911
-1.87132
-1.28246
-0.746272
-0.24477
0.322558
0.935129
1.46094
1.86536
2.13937
2.30335
2.3876
2.41972
2.42812
2.43517
2.44886
2.46367
2.46952
2.45871
2.4222
2.3549
2.26403
2.16106
2.05576
1.9595
1.881
1.82083
1.77189
1.72526
1.67485
1.61499
1.54374
1.46773
1.39541
1.32932
1.26514
1.19615
1.11698
1.0217
0.906135
0.771782
0.621875
0.458279
0.282745
0.0957539
-0.104922
-0.323459
-0.563928
-0.828497
-1.11791
-1.43378
-1.7802
-2.16209
-2.5853
-3.05736
-3.57819
-4.1273
-4.65565
-5.08894
-5.33273
-5.2807
-4.88149
-4.21168
-3.42469
-2.64644
-1.93907
-1.31497
-0.759838
-0.248353
0.364585
1.05277
1.63479
2.06939
2.34626
2.49668
2.56078
2.56968
2.55831
2.55494
2.56782
2.58663
2.5966
2.58935
2.55214
2.47603
2.37189
2.255
2.13567
2.02841
1.94515
1.88623
1.84113
1.79771
1.74949
1.68876
1.6118
1.52894
1.45305
1.3877
1.3264
1.26004
1.18298
1.08763
0.968011
0.827338
0.670669
0.499989
0.317848
0.125387
-0.0801902
-0.30444
-0.552673
-0.827119
-1.12772
-1.45578
-1.81675
-2.21689
-2.66404
-3.17212
-3.7483
-4.37452
-4.99562
-5.5252
-5.84961
-5.82
-5.35068
-4.54863
-3.62981
-2.7542
-1.9874
-1.33241
-0.764182
-0.248857
0.412184
1.18446
1.8277
2.29301
2.56697
2.69717
2.73637
2.71675
2.68136
2.66653
2.6805
2.70581
2.72124
2.7197
2.68343
2.59692
2.47734
2.34527
2.2099
2.08996
2.00209
1.94627
1.90704
1.86786
1.82313
1.76223
1.67795
1.5862
1.50628
1.44281
1.38589
1.32307
1.24941
1.15507
1.03099
0.883356
0.719862
0.541947
0.353282
0.156097
-0.0531635
-0.281917
-0.537169
-0.821072
-1.13214
-1.47087
-1.84461
-2.26079
-2.7283
-3.26956
-3.90191
-4.61187
-5.33727
-5.97949
-6.40789
-6.41522
-5.85951
-4.89197
-3.81815
-2.83756
-2.01339
-1.3334
-0.75877
-0.246155
0.466316
1.33173
2.04159
2.5385
2.8018
2.90393
2.914
2.85999
2.79563
2.76848
2.78637
2.82142
2.84324
2.85008
2.81729
2.71799
2.58025
2.43214
2.27833
2.14352
2.05124
2.00094
1.97005
1.93586
1.89622
1.83635
1.74244
1.639
1.55445
1.49442
1.44376
1.38513
1.31634
1.22448
1.0951
0.939547
0.769287
0.583847
0.388576
0.187459
-0.0240955
-0.255997
-0.517606
-0.810797
-1.13179
-1.4795
-1.86424
-2.29429
-2.77757
-3.34768
-4.03598
-4.83628
-5.67773
-6.44926
-7.01139
-7.07751
-6.41419
-5.23786
-3.98283
-2.89142
-2.0144
-1.31693
-0.74334
-0.240214
0.528243
1.49608
2.27832
2.80858
3.05072
3.11557
3.09355
2.99854
2.89928
2.85916
2.88502
2.93397
2.96216
2.98075
2.95536
2.83958
2.68022
2.51608
2.34089
2.1883
2.0919
2.05028
2.0308
2.00172
1.96918
1.91238
1.80554
1.68664
1.59681
1.54235
1.5003
1.44601
1.38384
1.29652
1.16037
0.995503
0.818846
0.625401
0.42321
0.219029
0.00677784
-0.226719
-0.494123
-0.796766
-1.12742
-1.48216
-1.87617
-2.31826
-2.81155
-3.4045
-4.14725
-5.04466
-6.01387
-6.93014
-7.6635
-7.82113
-7.02219
-5.58053
-4.11556
-2.9105
-1.98823
-1.28244
-0.71793
-0.231101
0.599717
1.6789
2.53954
3.10668
3.31328
3.32997
3.27534
3.13161
2.99021
2.93676
2.97617
3.04446
3.07721
3.1118
3.09988
2.96188
2.77648
2.59787
2.39759
2.22336
2.1232
2.0944
2.09023
2.06517
2.0423
1.992
1.86756
1.72818
1.63242
1.58647
1.55606
1.50532
1.45186
1.37216
1.22675
1.05064
0.868557
0.666347
0.456604
0.250334
0.0392389
-0.194033
-0.466795
-0.779476
-1.11992
-1.47927
-1.88092
-2.33412
-2.83026
-3.43813
-4.23226
-5.23399
-6.34264
-7.41529
-8.36669
-8.66449
-7.69246
-5.91143
-4.20656
-2.88965
-1.93326
-1.22994
-0.68289
-0.218981
0.683268
1.88137
2.82644
3.43734
3.58836
3.54401
3.46045
3.25857
3.06604
2.99922
3.05968
3.15462
3.18699
3.24299
3.25403
3.08483
2.86767
2.67884
2.44851
2.24752
2.14411
2.13348
2.1497
2.12556
2.11569
2.07752
1.92875
1.76239
1.66018
1.6267
1.61195
1.56238
1.52022
1.45281
1.29411
1.10412
0.918638
0.706454
0.488098
0.28088
0.0730846
-0.157784
-0.435615
-0.759431
-1.11034
-1.47116
-1.87894
-2.34385
-2.83402
-3.44673
-4.28731
-5.40152
-6.66157
-7.89455
-9.12177
-9.63153
-8.4357
-6.21824
-4.24452
-2.82412
-1.8487
-1.15996
-0.638871
-0.204111
0.782635
2.10424
3.13944
3.80669
3.87402
3.75323
3.65114
3.37889
3.12403
3.04424
3.13555
3.26719
3.28924
3.37364
3.42227
3.20795
2.9516
2.76105
2.49382
2.25934
2.15338
2.16773
2.21124
2.18167
2.18914
2.17209
1.9893
1.78768
1.67877
1.66301
1.66942
1.61608
1.58851
1.54048
1.36214
1.15475
0.969616
0.74552
0.516927
0.310157
0.108118
-0.11769
-0.400482
-0.73713
-1.10005
-1.45797
-1.87045
-2.35023
-2.82346
-3.42862
-4.30832
-5.54487
-6.96969
-8.35351
-9.92679
-10.7535
-9.26456
-6.48344
-4.21684
-2.71001
-1.73468
-1.07367
-0.586795
-0.186822
0.903411
2.34765
3.47765
4.22333
4.16707
3.95132
3.85148
3.49211
3.16096
3.06919
3.20384
3.38644
3.38042
3.50236
3.61095
3.33012
3.02491
2.84778
2.53368
2.25705
2.14953
2.19741
2.27782
2.23141
2.26197
2.28004
2.04919
1.80206
1.6867
1.69538
1.7307
1.66471
1.65597
1.6381
1.43026
1.2008
1.02248
0.783352
0.542187
0.337653
0.144133
-0.073324
-0.361191
-0.713028
-1.09073
-1.43959
-1.85522
-2.35703
-2.7994
-3.38226
-4.29067
-5.66204
-7.26866
-8.77237
-10.7755
-12.0712
-10.1938
-6.68265
-4.11004
-2.5447
-1.59242
-0.972733
-0.527808
-0.167505
1.05395
2.61079
3.83822
4.69927
4.46273
4.12955
4.06816
3.59764
3.17314
3.07116
3.26451
3.5187
3.45524
3.62674
3.82903
3.44931
3.08262
2.94397
2.56817
2.23852
2.13082
2.22264
2.35374
2.27152
2.33283
2.40734
2.10804
1.80307
1.6823
1.72376
1.79909
1.70568
1.72137
1.74981
1.49749
1.2399
1.07892
0.819725
0.5628
0.362882
0.180888
-0.0240907
-0.317434
-0.687478
-1.08461
-1.41555
-1.83232
-2.36928
-2.76282
-3.30646
-4.22903
-5.75134
-7.56451
-9.12463
-11.6556
-13.6381
-11.2404
-6.7824
-3.91052
-2.32734
-1.42423
-0.859316
-0.463218
-0.146587
1.24662
2.89156
4.21543
5.25142
4.75401
4.27596
4.31154
3.69449
3.15626
3.04693
3.31715
3.67326
3.50602
3.74296
4.08903
3.56214
3.11765
3.05691
2.59708
2.20117
2.09528
2.2433
2.4452
2.2972
2.39942
2.56213
2.16481
1.78775
1.66374
1.74791
1.8794
1.73521
1.78278
1.88146
1.56225
1.26875
1.14156
0.854306
0.577471
0.385422
0.218068
0.0308025
-0.26881
-0.660651
-1.08461
-1.38499
-1.79979
-2.39367
-2.71456
-3.20047
-4.11707
-5.81101
-7.8698
-9.37564
-12.5456
-15.5237
-12.4233
-6.73755
-3.60579
-2.05935
-1.23349
-0.735933
-0.394428
-0.12451
1.49942
3.18601
4.59941
5.90339
5.03098
4.37444
4.59705
3.78073
3.10545
2.99307
3.36055
3.86338
3.5219
3.84529
4.40823
3.66336
3.12012
3.19718
2.61956
2.14201
2.04077
2.2587
2.56095
2.30152
2.45821
2.75542
2.21746
1.75264
1.62916
1.76717
1.9785
1.74794
1.83737
2.04114
1.6221
1.28288
1.21441
0.886532
0.584645
0.404979
0.255231
0.0923785
-0.214855
-0.632402
-1.0946
-1.3465
-1.75421
-2.43907
-2.65507
-3.0643
-3.94715
-5.83858
-8.20644
-9.48114
-13.4122
-17.8183
-13.7635
-6.48818
-3.18622
-1.74483
-1.02455
-0.60533
-0.322858
-0.101709
1.83817
3.48779
4.97469
6.68773
5.27987
4.40363
4.94689
3.85276
3.01524
2.90609
3.39204
4.10761
3.48792
3.92543
4.81016
3.74525
3.07662
3.37972
2.63366
2.05762
1.96505
2.26718
2.71316
2.27489
2.50403
3.00201
2.26241
1.69383
1.57676
1.78017
2.10593
1.73646
1.88112
2.23988
1.67343
1.27639
1.30325
0.915427
0.582467
0.421468
0.291739
0.161937
-0.155105
-0.602088
-1.1197
-1.29818
-1.69013
-2.51715
-2.5839
-2.89906
-3.71009
-5.82972
-8.60918
-9.38563
-14.2058
-20.6381
-15.2832
-5.95595
-2.64744
-1.39075
-0.802487
-0.47033
-0.249884
-0.0785937
2.2991
3.7874
5.31829
7.64874
5.48193
4.33556
5.39216
3.9043
2.87973
2.78266
3.40664
4.43142
3.38396
3.97184
5.32632
3.79678
2.96933
3.6252
2.63564
1.94423
1.86597
2.26557
2.9185
2.2043
2.52968
3.32148
2.29383
1.60706
1.50499
1.78433
2.27479
1.69072
1.90847
2.49248
1.71106
1.24152
1.41625
0.939351
0.568759
0.43512
0.326654
0.241112
-0.0891834
-0.568325
-1.16663
-1.23755
-1.59944
-2.64321
-2.49905
-2.70753
-3.39493
-5.77665
-9.12972
-9.02091
-14.8556
-24.1315
-17.0051
-5.04008
-1.99351
-1.00696
-0.572822
-0.33368
-0.176778
-0.0555357
2.93212
4.07131
5.59746
8.84571
5.61202
4.13427
5.97527
3.92496
2.6928
2.62004
3.3958
4.86918
3.18344
3.96883
5.9982
3.80264
2.77502
3.96166
2.61909
1.7979
1.74168
2.24838
3.19937
2.07253
2.52537
3.73947
2.3028
1.48794
1.41278
1.77525
2.5027
1.59741
1.91199
2.81843
1.72776
1.16834
1.56459
0.95566
0.541003
0.446618
0.358625
0.331957
-0.0169424
-0.528672
-1.24411
-1.16158
-1.47055
-2.8372
-2.39612
-2.49476
-2.98881
-5.66584
-9.84151
-8.30471
-15.2644
-28.4861
-18.9507
-3.61291
-1.24082
-0.605812
-0.341147
-0.197924
-0.104664
-0.0328568
3.80456
4.32099
5.76712
10.3567
5.6371
3.75412
6.7529
3.89847
2.44852
2.41652
3.34597
5.46636
2.85197
3.89565
6.87957
3.74222
2.46402
4.42638
2.57377
1.61472
1.59101
2.20682
3.58542
1.85722
2.47821
4.28904
2.27624
1.33223
1.29986
1.74594
2.81295
1.43922
1.88188
3.24303
1.71368
1.04434
1.76327
0.960281
0.496357
0.457251
0.385729
0.437048
0.0613452
-0.479239
-1.36332
-1.06679
-1.28752
-3.12491
-2.26718
-2.26896
-2.47703
-5.47515
-10.8451
-7.13949
-15.3012
-33.9368
-21.1393
-1.51516
-0.422853
-0.201267
-0.112737
-0.0652796
-0.0344911
-0.0108242
)
;

boundaryField
{
    left
    {
        type            calculated;
        value           uniform 0;
    }
    right
    {
        type            calculated;
        value           uniform 0;
    }
    interface
    {
        type            calculated;
        value           nonuniform List<scalar> 
64
(
3.80456
4.32099
5.76712
10.3567
5.6371
3.75412
6.7529
3.89847
2.44852
2.41652
3.34597
5.46636
2.85197
3.89565
6.87957
3.74222
2.46402
4.42638
2.57377
1.61472
1.59101
2.20682
3.58542
1.85722
2.47821
4.28904
2.27624
1.33223
1.29986
1.74594
2.81295
1.43922
1.88188
3.24303
1.71368
1.04434
1.76327
0.960281
0.496357
0.457251
0.385729
0.437048
0.0613452
-0.479239
-1.36332
-1.06679
-1.28752
-3.12491
-2.26718
-2.26896
-2.47703
-5.47515
-10.8451
-7.13949
-15.3012
-33.9368
-21.1393
-1.51516
-0.422853
-0.201267
-0.112737
-0.0652796
-0.0344911
-0.0108242
)
;
    }
    bottom
    {
        type            calculated;
        value           nonuniform List<scalar> 
64
(
0.00630439
0.0187328
0.0306364
0.041717
0.0517459
0.0605737
0.0681301
0.0744128
0.0794715
0.0833892
0.0862655
0.0882049
0.0893093
0.0896755
0.089396
0.08856
0.0872541
0.085562
0.0835615
0.0813209
0.0788962
0.0763279
0.0736408
0.0708452
0.0679387
0.0649093
0.0617373
0.0583973
0.0548583
0.0510844
0.0470354
0.0426675
0.0379358
0.0327954
0.0272047
0.021126
0.0145271
0.00738174
-0.000329558
-0.00861847
-0.0174865
-0.0269215
-0.0368918
-0.0473402
-0.0581751
-0.0692617
-0.0804129
-0.0913815
-0.101856
-0.111465
-0.119783
-0.12636
-0.130754
-0.132571
-0.131513
-0.127417
-0.120278
-0.110248
-0.0976161
-0.0827655
-0.06613
-0.0481505
-0.029247
-0.00980743
)
;
    }
    defaultFaces
    {
        type            empty;
    }
}


// ************************************************************************* //
