/*--------------------------------*- C++ -*----------------------------------*\
| =========                 |                                                 |
| \\      /  F ield         | OpenFOAM: The Open Source CFD Toolbox           |
|  \\    /   O peration     | Version:  5.x                                   |
|   \\  /    A nd           | Web:      www.OpenFOAM.org                      |
|    \\/     M anipulation  |                                                 |
\*---------------------------------------------------------------------------*/
FoamFile
{
    version     2.0;
    format      ascii;
    class       volScalarField;
    location    "20.1";
    object      gradTy;
}
// * * * * * * * * * * * * * * * * * * * * * * * * * * * * * * * * * * * * * //

dimensions      [0 -1 0 1 0 0 0];

internalField   nonuniform List<scalar> 
6300
(
32284
32252.1
32220.1
32187.8
32155.4
32122.6
32089.4
32055.9
32021.8
31987.2
31952.1
31916.4
31880
31843.1
31805.6
0.0533327
0.159504
0.264155
0.366157
0.464224
0.556865
0.64237
0.718826
0.784179
0.836364
0.873488
0.89408
0.897382
0.883621
0.854205
0.0894449
0.267547
0.443226
0.614667
0.779771
0.936076
1.08071
1.21041
1.32163
1.4107
1.47419
1.50934
1.51459
1.49009
1.43818
0.126344
0.378013
0.626534
0.86951
1.10411
1.32695
1.53398
1.72048
1.8812
2.01058
2.10321
2.15449
2.1615
2.12392
2.04491
0.164262
0.491628
0.815389
1.13273
1.44022
1.73364
2.00776
2.25632
2.47211
2.6472
2.77355
2.84388
2.85296
2.79916
2.68603
0.203341
0.608848
1.01067
1.40579
1.79042
2.15962
2.50708
2.82493
3.1037
3.33254
3.49987
3.59447
3.60725
3.53369
3.37658
0.243596
0.72976
1.21264
1.68936
2.15604
2.60733
3.03601
3.43261
3.78518
4.07935
4.29887
4.4268
4.44783
4.35166
4.13776
0.284881
0.853961
1.42076
1.98297
2.53704
3.07765
3.597
4.08428
4.52501
4.90077
5.18937
5.36597
5.40552
5.28725
5.00172
0.326848
0.980442
1.63348
2.28471
2.93152
3.56919
4.19005
4.78247
5.32977
5.80929
6.1918
6.44206
6.52091
6.38994
6.02027
0.368919
1.10749
1.84799
2.59086
3.33512
4.07753
4.81152
5.52573
6.20226
6.81471
7.32637
7.68941
7.84588
7.73107
7.2799
0.410262
1.23259
2.06013
2.89563
3.74056
4.59427
5.45272
6.30661
7.13877
7.92081
8.60938
9.14307
9.44165
9.4078
8.92421
0.449798
1.35248
2.26432
3.19095
4.13719
5.10625
6.09846
7.10918
8.12532
9.12027
10.047
10.8313
11.3687
11.5319
11.17
0.486244
1.46323
2.4537
3.46666
4.511
5.59505
6.72567
7.90626
9.13298
10.3878
11.6268
12.7653
13.6669
14.1737
14.2258
0.518199
1.56048
2.62058
3.711
4.84509
6.03726
7.30286
8.65719
10.1125
11.6708
13.3067
14.934
16.3533
17.2505
17.6966
0.544272
1.6399
2.75715
3.91166
5.12108
6.40603
7.79133
9.30708
10.9891
12.8761
14.9946
17.308
19.5493
20.7327
18.0394
31770.7
31738.6
31706.1
31673.3
31640.2
31606.7
31573.1
31539.1
31505
31470.6
31436.1
31401.4
31366.6
31331.6
31296.6
31261.5
31226.4
31191.2
31156.1
31121
31085.9
31050.9
31015.9
30980.9
30946
30911.1
30876.3
30841.6
30806.9
30772.3
30737.7
30703.3
30668.9
30634.6
30600.5
30566.5
30532.5
30498.7
30465
30431.4
30397.8
30364.4
30331.1
30297.8
30264.7
30231.6
30198.7
30165.8
30133.1
30100.5
30068.1
30035.7
30003.4
29971.3
29939.3
29907.3
29875.4
29843.6
29811.9
29780.3
29748.8
29717.4
29686.1
29654.9
29623.7
29592.7
29561.8
29531
29500.2
29469.6
29439
29408.4
29378
29347.6
29317.2
29286.9
29256.7
29226.5
29196.4
29166.3
29136.3
29106.3
29076.3
29046.3
29016.2
28986.1
28956
28925.7
28895.4
28864.9
0.815275
0.773079
0.726351
0.677302
0.627779
0.579019
0.531512
0.485033
0.438806
0.391803
0.343087
0.292135
0.239082
0.18481
0.130893
0.0793693
0.0324104
-0.00805778
-0.0407049
-0.0650437
-0.0815326
-0.0915181
-0.0970297
-0.100465
-0.104215
-0.110295
-0.120032
-0.133865
-0.151298
-0.171008
-0.191094
-0.209438
-0.22409
-0.233629
-0.237406
-0.235664
-0.229484
-0.220599
-0.211103
-0.203092
-0.198325
-0.19792
-0.202178
-0.210525
-0.221624
-0.233606
-0.244408
-0.252144
-0.255428
-0.253622
-0.246927
-0.236346
-0.2235
-0.210347
-0.198855
-0.190666
-0.186821
-0.187581
-0.192385
-0.199941
-0.20846
-0.215967
-0.22065
-0.221176
-0.216913
-0.208028
-0.195437
-0.180633
-0.165417
-0.151574
-0.140549
-0.133178
-0.129511
-0.128759
-0.129386
-0.129324
-0.126291
-0.118144
-0.103224
-0.0806282
-0.0503821
-0.0134969
0.0280921
0.0716861
0.114071
0.151832
0.181708
0.200965
0.207728
0.201227
1.3697
1.29575
1.21436
1.12967
1.04517
0.963108
0.884283
0.808034
0.732609
0.655747
0.575368
0.490228
0.400392
0.307437
0.214333
0.125008
0.0436841
-0.0258766
-0.0810631
-0.1209
-0.146243
-0.159662
-0.16504
-0.166966
-0.170017
-0.178042
-0.193568
-0.21741
-0.248567
-0.28443
-0.32127
-0.354935
-0.381616
-0.398539
-0.404452
-0.399832
-0.386778
-0.368648
-0.349486
-0.333347
-0.323621
-0.322473
-0.330475
-0.346513
-0.367975
-0.391218
-0.412221
-0.427309
-0.433801
-0.430468
-0.41772
-0.397512
-0.372988
-0.347944
-0.326183
-0.310883
-0.304058
-0.306218
-0.31627
-0.331707
-0.349042
-0.364429
-0.37435
-0.376229
-0.368864
-0.352601
-0.329245
-0.301715
-0.273522
-0.248155
-0.228455
-0.216097
-0.21124
-0.212429
-0.216758
-0.220283
-0.218631
-0.207689
-0.184254
-0.146547
-0.0945242
-0.0299637
0.0436507
0.121427
0.197507
0.26563
0.319776
0.354854
0.367346
0.355797
1.94092
1.82912
1.70707
1.58175
1.459
1.34252
1.23332
1.12983
1.02847
0.924748
0.814504
0.695084
0.566194
0.430282
0.292337
0.15913
0.0380236
-0.0643901
-0.143521
-0.197624
-0.228122
-0.239383
-0.238019
-0.231846
-0.228652
-0.234987
-0.255129
-0.290418
-0.339057
-0.396443
-0.456018
-0.51049
-0.553192
-0.5793
-0.586667
-0.576143
-0.55138
-0.518182
-0.483517
-0.454365
-0.436565
-0.433847
-0.447201
-0.474689
-0.511761
-0.552056
-0.588552
-0.614852
-0.626321
-0.62087
-0.599256
-0.564893
-0.523227
-0.480812
-0.444207
-0.418894
-0.408358
-0.413489
-0.432402
-0.46074
-0.492428
-0.520762
-0.539632
-0.544596
-0.533626
-0.507389
-0.469065
-0.42375
-0.377559
-0.336576
-0.305791
-0.288212
-0.284261
-0.291579
-0.305288
-0.318696
-0.324349
-0.315223
-0.285834
-0.233082
-0.156721
-0.0594683
0.0532163
0.173609
0.292401
0.399554
0.485301
0.541268
0.561584
0.543779
2.53694
2.3772
2.20444
2.03009
1.86378
1.71139
1.57413
1.44856
1.32773
1.20314
1.06686
0.913582
0.742117
0.556062
0.363526
0.175835
0.00545417
-0.136424
-0.242011
-0.308333
-0.337699
-0.33728
-0.317922
-0.292432
-0.273567
-0.272048
-0.294876
-0.344204
-0.416951
-0.505305
-0.598116
-0.682992
-0.748661
-0.787051
-0.794646
-0.772957
-0.728129
-0.669827
-0.60961
-0.559037
-0.52779
-0.522078
-0.543575
-0.589064
-0.650907
-0.718363
-0.779566
-0.823752
-0.843206
-0.834547
-0.799152
-0.742787
-0.674546
-0.605312
-0.545971
-0.505626
-0.490098
-0.500913
-0.534962
-0.584951
-0.640641
-0.690725
-0.724938
-0.735908
-0.720371
-0.679582
-0.618952
-0.547044
-0.474099
-0.41031
-0.364111
-0.340703
-0.341055
-0.361527
-0.394249
-0.428276
-0.451349
-0.451935
-0.421059
-0.353613
-0.249001
-0.111195
0.0516826
0.228095
0.404057
0.564302
0.693709
0.779019
0.810715
0.784667
3.16776
2.94397
2.70402
2.46682
2.24844
2.05845
1.8981
1.76041
1.63239
1.49835
1.34368
1.15828
0.939057
0.691187
0.42775
0.167625
-0.0681501
-0.260707
-0.397037
-0.472251
-0.490162
-0.462443
-0.406654
-0.343476
-0.293501
-0.274046
-0.296464
-0.364265
-0.47237
-0.607748
-0.75164
-0.88315
-0.983414
-1.03915
-1.04479
-1.00309
-0.924282
-0.82423
-0.721813
-0.635882
-0.582244
-0.571126
-0.605401
-0.67989
-0.781969
-0.893673
-0.995085
-1.06826
-1.10058
-1.08672
-1.02925
-0.937785
-0.827293
-0.715568
-0.62038
-0.556622
-0.533904
-0.554878
-0.614571
-0.700952
-0.796927
-0.883542
-0.943713
-0.96539
-0.94348
-0.880344
-0.785079
-0.671834
-0.557452
-0.458716
-0.38961
-0.358981
-0.368877
-0.413833
-0.481334
-0.553628
-0.61073
-0.633951
-0.608945
-0.527661
-0.389081
-0.199025
0.0306589
0.283231
0.538344
0.773457
0.965616
1.09398
1.143
1.10559
3.84739
3.53393
3.19953
2.87638
2.59212
2.36281
2.18937
2.05832
1.94572
1.82326
1.66475
1.45168
1.17726
0.848737
0.487214
0.124365
-0.203979
-0.465946
-0.640064
-0.71868
-0.708327
-0.628023
-0.506023
-0.375506
-0.269483
-0.215748
-0.232699
-0.326288
-0.488517
-0.697929
-0.922995
-1.1283
-1.28229
-1.36337
-1.36312
-1.28666
-1.15102
-0.982038
-0.810279
-0.666223
-0.575471
-0.554808
-0.60932
-0.730987
-0.89917
-1.08381
-1.25126
-1.37162
-1.42443
-1.40171
-1.30828
-1.16019
-0.981815
-0.802012
-0.64953
-0.54852
-0.514792
-0.553089
-0.655747
-0.803137
-0.966691
-1.11444
-1.21792
-1.25764
-1.22596
-1.12737
-0.977096
-0.798261
-0.618274
-0.464453
-0.359703
-0.318902
-0.346211
-0.433676
-0.561515
-0.700857
-0.818901
-0.885414
-0.877873
-0.784215
-0.603285
-0.343921
-0.0233237
0.33471
0.701432
1.04447
1.32939
1.52318
1.59973
1.54621
4.59814
4.15392
3.67875
3.22983
2.85661
2.58662
2.41954
2.32961
2.2732
2.20005
2.06441
1.8334
1.49339
1.05382
0.548597
0.0314272
-0.43538
-0.797677
-1.0206
-1.09322
-1.02721
-0.853642
-0.617652
-0.372262
-0.17017
-0.0556589
-0.0585742
-0.189471
-0.436718
-0.76557
-1.1228
-1.44735
-1.68617
-1.80469
-1.79118
-1.65546
-1.42578
-1.14384
-0.858855
-0.619805
-0.46777
-0.430239
-0.516534
-0.715103
-0.992677
-1.29868
-1.57526
-1.77226
-1.85704
-1.81853
-1.66602
-1.42619
-1.1384
-0.849111
-0.604562
-0.443532
-0.391964
-0.458621
-0.632509
-0.882047
-1.15922
-1.40908
-1.58394
-1.65271
-1.60476
-1.44884
-1.21023
-0.926349
-0.641417
-0.399528
-0.23771
-0.180746
-0.236919
-0.395379
-0.625131
-0.878754
-1.10127
-1.24352
-1.27081
-1.16644
-0.930432
-0.576993
-0.131214
0.373676
0.898632
1.39914
1.82442
2.12121
2.24378
2.16717
5.46015
4.8184
4.12006
3.47414
2.97229
2.66218
2.53857
2.55259
2.62477
2.66679
2.60139
2.37207
1.95288
1.35344
0.627198
-0.134022
-0.817264
-1.33009
-1.61759
-1.66735
-1.501
-1.16914
-0.742813
-0.306664
0.0552595
0.273526
0.299844
0.114893
-0.267406
-0.792344
-1.36968
-1.88985
-2.26326
-2.43615
-2.39522
-2.15956
-1.7758
-1.31003
-0.841282
-0.448085
-0.195182
-0.127361
-0.262073
-0.585452
-1.04525
-1.55591
-2.01385
-2.33449
-2.46719
-2.39949
-2.1495
-1.76125
-1.29715
-0.831786
-0.439326
-0.180919
-0.0988901
-0.209741
-0.500336
-0.921167
-1.39106
-1.81172
-2.10273
-2.21584
-2.13906
-1.88938
-1.50857
-1.05594
-0.602577
-0.219299
0.0352733
0.120329
0.0196664
-0.254422
-0.654374
-1.10144
-1.49925
-1.76714
-1.85333
-1.73823
-1.42668
-0.943032
-0.324226
0.383748
1.13103
1.86217
2.50445
2.9701
3.17465
3.06555
6.51281
5.56444
4.48603
3.51089
2.81155
2.469
2.45938
2.69177
3.01974
3.28821
3.37438
3.18416
2.67193
1.83565
0.756181
-0.411749
-1.44453
-2.18698
-2.55691
-2.55267
-2.21313
-1.62065
-0.88212
-0.134182
0.487558
0.879116
0.962492
0.703437
0.107307
-0.74367
-1.69885
-2.5437
-3.12912
-3.37551
-3.27966
-2.87693
-2.2439
-1.48051
-0.714916
-0.074342
0.343923
0.467165
0.264066
-0.25935
-1.02461
-1.88905
-2.65015
-3.16736
-3.3659
-3.24297
-2.83208
-2.20555
-1.4577
-0.709483
-0.0810525
0.33568
0.47193
0.297971
-0.180622
-0.889629
-1.69383
-2.40104
-2.87768
-3.05244
-2.92231
-2.51876
-1.91032
-1.18659
-0.462813
0.146267
0.55236
0.688839
0.525986
0.0677769
-0.615771
-1.39505
-2.08431
-2.55242
-2.72571
-2.59293
-2.17073
-1.5037
-0.64564
0.337215
1.38669
2.45313
3.43886
4.19496
4.55717
4.40595
7.92589
6.4979
4.70433
3.15131
2.13653
1.79596
2.03153
2.69326
3.50036
4.17214
4.54535
4.45993
3.85763
2.66804
1.01256
-0.884076
-2.48989
-3.58026
-4.03505
-3.92081
-3.28948
-2.28246
-1.03498
0.220028
1.25132
1.92849
2.11824
1.77737
0.848998
-0.544949
-2.18688
-3.57116
-4.48315
-4.80769
-4.60603
-3.92592
-2.89973
-1.65417
-0.408519
0.619526
1.30786
1.53162
1.25146
0.415001
-0.861127
-2.371
-3.63766
-4.45912
-4.72752
-4.50112
-3.82518
-2.82457
-1.61875
-0.414696
0.582067
1.25617
1.48945
1.24436
0.470886
-0.721013
-2.13626
-3.32237
-4.08734
-4.32809
-4.09928
-3.44319
-2.47808
-1.31732
-0.157879
0.804134
1.45769
1.68839
1.45762
0.714465
-0.439315
-1.81829
-2.98781
-3.76225
-4.03882
-3.8644
-3.26732
-2.33948
-1.14675
0.194748
1.61791
3.16032
4.70393
5.98703
6.67904
6.4898
10.0822
7.95446
4.57865
2.02215
0.491498
0.29259
0.989522
2.48522
4.17573
5.48599
6.37672
6.47999
5.88903
4.17131
1.61621
-1.77517
-4.27751
-5.88876
-6.3326
-6.03355
-4.90684
-3.29054
-1.19867
0.896391
2.52501
3.67976
4.03808
3.69731
2.26112
0.0108632
-3.04592
-5.27871
-6.68313
-6.99758
-6.62136
-5.47326
-3.87145
-1.82795
0.211224
1.80258
2.94077
3.32174
3.03993
1.72247
-0.361062
-3.20317
-5.26625
-6.54728
-6.80163
-6.40662
-5.28579
-3.73908
-1.77729
0.178599
1.70981
2.81146
3.19583
2.95161
1.72493
-0.230773
-2.90865
-4.85016
-6.05188
-6.27991
-5.89153
-4.81261
-3.32758
-1.44616
0.43136
1.90617
2.97196
3.35244
3.12708
1.95246
0.0614297
-2.54316
-4.46025
-5.68898
-6.00135
-5.74452
-4.84019
-3.55669
-1.86209
-0.0653167
1.67741
3.86579
6.34415
8.63027
10.0699
9.93254
13.8478
11.1748
3.26029
-0.567596
-3.062
-2.49839
-1.20224
1.99669
5.39863
7.40392
9.342
9.49974
9.54297
6.8804
3.42411
-3.94651
-7.34827
-9.87832
-9.6999
-9.33815
-7.22919
-4.98344
-1.36696
2.24443
4.48107
6.57787
6.96463
7.19465
4.84549
1.72807
-5.0915
-8.17912
-10.4527
-10.182
-9.74821
-7.67395
-5.47922
-1.99548
1.47582
3.63819
5.66408
6.06625
6.31972
4.13309
1.23135
-5.15715
-8.02098
-10.1139
-9.81084
-9.35731
-7.35966
-5.2513
-1.92732
1.38343
3.45613
5.39963
5.80736
6.07361
4.02877
1.29939
-4.7414
-7.44324
-9.41851
-9.11939
-8.67813
-6.76683
-4.74789
-1.56939
1.6005
3.59721
5.47307
5.88888
6.16351
4.22206
1.5897
-4.258
-6.92394
-8.93528
-8.78354
-8.55702
-6.95908
-5.36587
-2.72457
-0.247559
1.09519
4.15368
8.26118
12.4925
15.7316
16.2031
20.8452
21.7398
-4.12677
-5.10863
-11.0168
-6.34286
-6.13359
1.21599
8.63272
9.41865
14.871
12.6844
17.0933
10.7324
10.8687
-11.833
-11.6743
-17.7681
-13.3312
-15.1587
-9.74852
-8.65022
-1.52792
5.57213
6.63849
11.9384
10.1169
14.406
8.53613
8.7764
-12.5111
-12.2518
-17.8858
-13.6015
-15.2373
-10.0481
-8.94315
-2.1451
4.62527
5.67033
10.7255
9.0249
13.1133
7.57347
7.84472
-12.1867
-11.8859
-17.1306
-13.0367
-14.5316
-9.59295
-8.514
-2.05832
4.37104
5.38851
10.1993
8.62263
12.5236
7.31833
7.598
-11.3822
-11.0826
-16.0603
-12.1635
-13.5816
-8.87605
-7.83795
-1.6802
4.45901
5.46229
10.0766
8.62861
12.3911
7.48657
7.74806
-10.5546
-10.3302
-15.2964
-11.6734
-13.3444
-9.07114
-8.68429
-3.35047
1.20353
-1.95769
2.93097
9.99998
17.7833
25.3787
29.6297
30.4081
70.8171
-47.3697
-2.57653
-34.2176
-3.75995
-21.3473
0.338565
21.4152
4.71381
31.3999
6.37152
40.1519
5.22862
51.1997
-52.6384
-6.99685
-40.822
-7.94192
-31.4015
-6.05876
-20.9915
-1.65684
17.5883
2.69955
27.554
4.46966
36.2465
3.42811
46.8247
-50.9581
-7.83825
-39.601
-8.49628
-30.5543
-6.54094
-20.6051
-2.25487
16.0192
1.92786
25.5154
3.64741
33.7714
2.64593
43.6939
-48.4946
-7.76518
-37.5948
-8.21503
-28.9699
-6.26834
-19.5192
-2.15139
15.1518
1.8585
24.1969
3.55012
32.0865
2.70962
41.6309
-45.7861
-7.12255
-35.4812
-7.55438
-27.303
-5.70417
-18.3003
-1.76432
14.7133
2.1274
23.4101
3.86518
31.0992
3.31199
40.6388
-43.53
-6.26212
-34.0261
-6.93985
-26.6914
-5.58681
-19.1263
-2.85346
13.7646
-16.6024
-1.43142
10.7101
23.3448
39.8417
66.3823
28831.3
28794.6
28757.7
28720.8
28683.8
28646.9
28610
28573.2
28536.5
28499.8
28463.3
28426.9
28390.6
28354.3
28318.1
0.179982
0.140904
0.0906235
0.0348855
-0.0204629
-0.0702689
-0.110586
-0.138881
-0.153997
-0.155959
-0.145712
-0.124865
-0.0954611
-0.059808
-0.0203599
0.317571
0.247251
0.157098
0.0577328
-0.0402211
-0.127608
-0.197618
-0.246069
-0.271244
-0.27347
-0.254615
-0.217606
-0.166039
-0.103894
-0.0353454
0.483779
0.373431
0.232785
0.0791684
-0.0705463
-0.202324
-0.306209
-0.376534
-0.41144
-0.412063
-0.381671
-0.324904
-0.247196
-0.154383
-0.0524731
0.694879
0.52991
0.321444
0.0967017
-0.118808
-0.304933
-0.44836
-0.542418
-0.585918
-0.581671
-0.535103
-0.453143
-0.343457
-0.21397
-0.0726369
0.972998
0.729887
0.426377
0.105003
-0.196456
-0.450239
-0.63988
-0.758861
-0.808142
-0.793601
-0.723925
-0.609109
-0.459518
-0.285404
-0.0967412
1.34959
0.990262
0.549174
0.0933905
-0.321779
-0.659688
-0.90206
-1.045
-1.09419
-1.06066
-0.957888
-0.79985
-0.600101
-0.371388
-0.125665
1.87099
1.3324
0.686667
0.0411634
-0.524361
-0.964674
-1.26367
-1.42491
-1.46294
-1.39698
-1.24711
-1.0323
-0.76965
-0.474382
-0.160193
2.60788
1.78169
0.823927
-0.0910419
-0.852155
-1.41098
-1.76302
-1.92803
-1.93568
-1.81721
-1.60128
-1.31259
-0.971815
-0.596299
-0.200919
3.67169
2.36255
0.918393
-0.377102
-1.38224
-2.06407
-2.44942
-2.58849
-2.53455
-2.3349
-2.02822
-1.64495
-1.20872
-0.738078
-0.248102
5.24361
3.07842
0.864201
-0.953522
-2.23562
-3.01364
-3.38208
-3.44197
-3.27914
-2.9596
-2.53174
-2.03028
-1.48005
-0.899188
-0.301513
7.62126
3.84333
0.413511
-2.06556
-3.59309
-4.37281
-4.62329
-4.51817
-4.18043
-3.69262
-3.10888
-2.46436
-1.78202
-1.07711
-0.360275
11.2554
4.26011
-0.987918
-4.12915
-5.69837
-6.2612
-6.22009
-5.82701
-5.23177
-4.52159
-3.74679
-2.93628
-2.10656
-1.26695
-0.422755
16.4874
2.92961
-4.49614
-7.76477
-8.81003
-8.75354
-8.16885
-7.338
-6.39807
-5.41517
-4.4204
-3.42741
-2.44098
-1.46137
-0.486555
20.9402
-4.53296
-12.1615
-13.6237
-13.0234
-11.7741
-10.3638
-8.95806
-7.60734
-6.32061
-5.09224
-3.91198
-2.76858
-1.65099
-0.548651
0.562262
1.69468
2.85126
4.04986
5.31123
6.66075
8.13104
9.7657
11.625
13.7936
16.3887
19.5503
23.316
26.8357
23.9147
0.57261
1.72607
2.90484
4.12776
5.41706
6.80058
8.3152
10.0127
11.97
14.3092
17.2402
21.1669
26.9978
37.2248
60.2967
0.577233
1.7399
2.92775
4.15955
5.45748
6.84936
8.37239
10.0793
12.0499
14.4141
17.402
21.4687
27.6432
38.6499
62.9004
0.57616
1.73625
2.92014
4.14544
5.43265
6.8071
8.3019
9.96276
11.8564
14.0856
16.8153
20.3139
24.9751
31.0286
35.9837
0.569692
1.71607
2.88379
4.08834
5.34724
6.68127
8.1161
9.6846
11.43
13.4092
15.6933
18.35
21.3573
24.3235
26.0211
0.558366
1.68107
2.82186
3.99349
5.20967
6.48547
7.83752
9.28367
10.8412
12.521
14.3117
16.1376
17.7553
18.5211
16.8879
0.542898
1.6335
2.73853
3.86771
5.0307
6.23673
7.49362
8.80544
10.1676
11.5561
12.9061
14.0688
14.738
14.3825
12.5937
0.524095
1.5759
2.63844
3.71846
4.82184
5.9527
7.11161
8.29233
9.47565
10.618
11.6308
12.3432
12.4308
11.2386
7.06702
0.502782
1.51085
2.52621
3.55299
4.59392
5.6492
6.71446
7.77744
8.81223
9.76996
10.5644
11.052
11.012
10.1639
8.45871
0.479733
1.44073
2.40605
3.37769
4.35604
5.33876
6.31892
7.28216
8.20235
9.03534
9.71114
10.1273
10.1542
9.68458
8.79462
0.455623
1.3676
2.2815
3.19772
4.11513
5.03012
5.93514
6.81679
7.65304
8.40992
9.03824
9.47289
9.64142
9.49714
9.10749
0.431006
1.29312
2.15533
3.01692
3.87591
4.72839
5.56761
6.38297
7.15888
7.87381
8.49986
9.00339
9.3459
9.48015
9.32474
0.406314
1.21858
2.02959
2.83791
3.64121
4.43586
5.21664
5.97654
6.70709
7.39944
8.04658
8.64573
9.19502
9.66436
9.91078
0.381872
1.14491
1.90571
2.66239
3.4125
4.15297
4.88016
5.59049
6.28183
6.95648
7.62663
8.32271
9.09969
10.0034
10.768
0.357918
1.07279
1.78469
2.49142
3.19049
3.87928
4.55537
5.21761
5.86815
6.51665
7.18868
7.9435
8.91638
10.439
13.447
0.334632
1.00272
1.66726
2.32574
2.97561
3.61439
4.24021
4.85286
5.45587
6.06046
6.69324
7.41284
8.35132
9.84297
12.9201
0.312158
0.935123
1.55402
2.16605
2.76842
3.35848
3.93416
4.49478
5.04249
5.58466
6.1375
6.73016
7.4021
8.14591
8.50344
0.290619
0.870349
1.44553
2.01305
2.56977
3.11255
3.63857
4.14566
4.63294
5.10145
5.55409
5.99242
6.40295
6.71708
6.7597
0.270126
0.80873
1.34235
1.86756
2.38077
2.87825
3.3561
3.81027
4.23641
4.62924
4.98059
5.27395
5.47073
5.47677
5.04839
0.250777
0.750567
1.24501
1.73039
2.2027
2.65758
3.09007
3.49434
3.86299
4.18582
4.44735
4.62252
4.67094
4.53812
4.21613
0.232653
0.696112
1.15397
1.60227
2.03672
2.45243
2.84363
3.20312
3.52137
3.78494
3.97407
4.05911
3.997
3.73082
3.18087
0.215809
0.645544
1.06956
1.48378
1.88375
2.26429
2.6192
2.94054
3.2177
3.43576
3.57307
3.59785
3.46477
3.12056
2.58431
0.200273
0.598947
0.991935
1.37519
1.74425
2.09396
2.41807
2.70863
2.95506
3.14263
3.25021
3.24619
3.07916
2.64366
1.60739
0.186036
0.556299
0.921068
1.27645
1.61819
1.94139
2.24022
2.50736
2.73328
2.90505
3.00483
3.00772
2.87997
2.58396
2.1433
0.173055
0.517464
0.856714
1.18719
1.50499
1.80575
2.08437
2.33472
2.54908
2.71746
2.82672
2.85998
2.7976
2.62471
2.35088
0.161257
0.48221
0.798451
1.10673
1.40363
1.68547
1.94816
2.18707
2.39682
2.57091
2.7014
2.77863
2.79199
2.73554
2.63428
0.150541
0.450226
0.745714
1.03417
1.31274
1.57848
1.82844
2.05968
2.26931
2.45463
2.61305
2.74163
2.83485
2.87748
2.82191
0.140794
0.421157
0.697856
0.96849
1.23074
1.48244
1.72173
1.94728
2.15869
2.35702
2.54542
2.72919
2.91284
3.08762
3.20611
0.131897
0.394631
0.65421
0.908629
1.15606
1.39502
1.62455
1.84471
2.05716
2.2663
2.48099
2.71683
2.99698
3.33684
3.6238
0.123737
0.370296
0.614146
0.853616
1.08728
1.31413
1.53389
1.74748
1.95791
2.17173
2.40188
2.67371
3.03964
3.62281
4.77209
0.116213
0.347842
0.577123
0.802636
1.02322
1.23817
1.4475
1.65246
1.85632
2.0658
2.29382
2.56522
2.93145
3.51563
4.68235
0.109242
0.327019
0.542715
0.755077
0.963085
1.16611
1.36415
1.55819
1.75081
1.94701
2.15564
2.39089
2.67189
3.0039
3.24201
0.102762
0.307642
0.510622
0.71054
0.906406
1.09751
1.28357
1.46492
1.6428
1.8196
1.99895
2.18479
2.37691
2.55739
2.67202
0.0967278
0.289583
0.480655
0.668816
0.853034
1.03242
1.20626
1.37407
1.53555
1.69042
1.83776
1.97433
2.09001
2.15661
2.09495
0.0911109
0.272763
0.45271
0.629831
0.803019
0.97117
1.13313
1.2876
1.43289
1.56645
1.68407
1.77836
1.83719
1.8449
1.80592
0.0858898
0.257126
0.426727
0.593576
0.756503
0.914221
1.06521
1.20751
1.33836
1.45357
1.54656
1.60704
1.61987
1.5656
1.41927
0.0810459
0.242626
0.402655
0.560046
0.713605
0.861944
1.00332
1.13538
1.2547
1.35612
1.43162
1.4688
1.44915
1.35023
1.18242
0.0765575
0.229202
0.380416
0.529176
0.674331
0.814502
0.947905
1.07208
1.18347
1.27666
1.3433
1.37001
1.33347
1.18271
0.75152
0.0723958
0.216771
0.35988
0.500809
0.63852
0.771758
0.898893
1.01768
1.12487
1.21564
1.28272
1.31516
1.29712
1.20994
1.06496
0.068523
0.205221
0.340858
0.474676
0.605816
0.733254
0.85568
0.971325
1.07768
1.17108
1.24618
1.29535
1.30879
1.27729
1.19929
0.0648922
0.194406
0.323101
0.450402
0.575682
0.698229
0.817177
0.931423
1.03948
1.13923
1.22765
1.30036
1.35165
1.37695
1.38761
0.0614493
0.184161
0.306312
0.42753
0.547448
0.665702
0.78194
0.895823
1.00704
1.11526
1.22003
1.32025
1.41256
1.48678
1.51157
0.0581362
0.174305
0.29017
0.405562
0.520369
0.634577
0.748337
0.862078
0.976673
1.09368
1.21557
1.34563
1.48604
1.63094
1.75317
0.0548954
0.164659
0.274357
0.384001
0.493707
0.603762
0.714748
0.82774
0.944636
1.0687
1.20545
1.36381
1.5564
1.79083
2.00137
0.0516736
0.155059
0.25858
0.362398
0.466803
0.572301
0.679767
0.790692
0.907619
1.03492
1.18033
1.35821
1.59772
1.96731
2.66217
0.0484251
0.145365
0.242597
0.340388
0.439139
0.539473
0.642383
0.749478
0.863396
0.988565
1.13266
1.30981
1.54871
1.91789
2.62011
0.0451142
0.13547
0.226224
0.317711
0.410377
0.504857
0.602094
0.703524
0.811362
0.929066
1.06204
1.21852
1.40924
1.6372
1.82187
0.0417152
0.125296
0.209344
0.294217
0.380354
0.468325
0.558895
0.653122
0.752476
0.858959
0.97511
1.10344
1.24392
1.38657
1.50183
0.0382114
0.114799
0.19189
0.269844
0.349059
0.429988
0.513156
0.599159
0.688639
0.782141
0.879723
0.979912
1.07709
1.15496
1.16728
0.0345928
0.103953
0.173838
0.244596
0.316574
0.390098
0.465447
0.542783
0.622009
0.702489
0.782527
0.858481
0.923665
0.968882
0.996019
0.030853
0.0927428
0.155179
0.218502
0.283015
0.34894
0.41636
0.485096
0.554509
0.623145
0.688167
0.74453
0.784109
0.795355
0.760473
0.0269855
0.0811536
0.135903
0.191582
0.248475
0.306746
0.366358
0.426938
0.487548
0.546312
0.599821
0.642234
0.664228
0.653864
0.61615
0.0229811
0.0691609
0.115981
0.16382
0.212979
0.26362
0.315684
0.36876
0.42187
0.473129
0.519181
0.554119
0.566818
0.531367
0.360638
0.0188255
0.056724
0.0953506
0.135142
0.176453
0.219505
0.264309
0.31056
0.357476
0.403562
0.44626
0.481447
0.502848
0.502812
0.48745
0.0144982
0.0437814
0.0739118
0.105409
0.13872
0.174173
0.211928
0.251898
0.29366
0.336348
0.378555
0.41835
0.453765
0.484901
0.519964
0.00997179
0.0302505
0.0515237
0.0744173
0.0994981
0.127244
0.15801
0.191993
0.229202
0.269469
0.312525
0.358295
0.407655
0.464263
0.538355
0.00521268
0.016029
0.0280104
0.0419066
0.058426
0.078218
0.101859
0.129846
0.162622
0.200653
0.244611
0.295746
0.356514
0.431483
0.528521
0.00018208
0.000998641
0.00316759
0.0075745
0.0150814
0.0265195
0.0426888
0.0643737
0.0923937
0.127721
0.171714
0.226509
0.29551
0.383379
0.492738
-0.00516266
-0.0149708
-0.0232293
-0.0289102
-0.030993
-0.0284643
-0.0203109
-0.00549728
0.0170912
0.0487721
0.0913159
0.147407
0.221405
0.320351
0.454823
-0.0108665
-0.0320164
-0.0514159
-0.0678933
-0.0802695
-0.0873538
-0.0879354
-0.0807671
-0.0645251
-0.0377198
0.0015106
0.0558699
0.129977
0.232653
0.379558
-0.0169752
-0.0502776
-0.0816317
-0.109724
-0.133221
-0.150759
-0.160942
-0.162338
-0.153477
-0.13284
-0.0988002
-0.0493803
0.01871
0.114242
0.272568
-0.0235338
-0.0698916
-0.114112
-0.154747
-0.19031
-0.219271
-0.240049
-0.25103
-0.250605
-0.237267
-0.209791
-0.167595
-0.111613
-0.047774
-0.00681588
-0.0305854
-0.0909895
-0.149083
-0.203291
-0.251984
-0.293464
-0.325961
-0.347644
-0.356701
-0.35151
-0.331004
-0.295384
-0.247391
-0.1939
-0.142203
-0.0381692
-0.113692
-0.186753
-0.255665
-0.318666
-0.373897
-0.41938
-0.453025
-0.472692
-0.476389
-0.462711
-0.431764
-0.386987
-0.338778
-0.314175
-0.0463195
-0.138103
-0.227304
-0.312142
-0.390744
-0.461099
-0.521021
-0.568111
-0.599773
-0.613334
-0.606409
-0.577747
-0.528966
-0.467263
-0.40475
-0.0550635
-0.164308
-0.270886
-0.372951
-0.468547
-0.555547
-0.631573
-0.693911
-0.739423
-0.764506
-0.765202
-0.7377
-0.679919
-0.596308
-0.513402
-0.0644204
-0.192365
-0.317601
-0.438251
-0.552321
-0.657615
-0.75163
-0.831396
-0.893259
-0.932613
-0.943575
-0.918682
-0.848808
-0.724864
-0.553859
-0.0743997
-0.222303
-0.3675
-0.508122
-0.642188
-0.767515
-0.881583
-0.981313
-1.06273
-1.12044
-1.14685
-1.1309
-1.05525
-0.886102
-0.52113
-0.0850015
-0.25412
-0.420575
-0.582545
-0.738123
-0.885234
-1.02149
-1.14395
-1.24866
-1.32999
-1.37953
-1.38458
-1.32661
-1.18333
-0.95874
-0.0962172
-0.287788
-0.476765
-0.661407
-0.839938
-1.01049
-1.17099
-1.3189
-1.45082
-1.56162
-1.64312
-1.68201
-1.65722
-1.53702
-1.26583
-0.108033
-0.323256
-0.535965
-0.744513
-0.947293
-1.14273
-1.32922
-1.50497
-1.66765
-1.81361
-1.93631
-2.02366
-2.05408
-1.99557
-1.83655
-0.120433
-0.360472
-0.598054
-0.831624
-1.05975
-1.28118
-1.4949
-1.70011
-1.8961
-2.08173
-2.25404
-2.40485
-2.5127
-2.52392
-2.3
-0.133407
-0.399392
-0.662931
-0.922515
-1.17685
-1.42499
-1.66649
-1.90166
-2.13175
-2.35911
-2.5867
-2.81587
-3.03843
-3.21557
-3.25483
-0.146955
-0.440012
-0.730552
-1.01705
-1.29826
-1.5734
-1.84248
-2.10672
-2.3693
-2.63632
-2.91827
-3.23147
-3.59569
-4.00297
-4.20375
-0.161096
-0.48238
-0.80098
-1.11526
-1.42388
-1.72603
-2.02182
-2.31295
-2.60376
-2.90315
-3.22813
-3.61165
-4.12304
-4.93377
-6.57688
-0.175868
-0.526612
-0.874406
-1.2174
-1.554
-1.88307
-2.2044
-2.5194
-2.83227
-3.15222
-3.49734
-3.90303
-4.44253
-5.28653
-6.9052
-0.19133
-0.572892
-0.951164
-1.32399
-1.68934
-2.04549
-2.39139
-2.72731
-3.05588
-3.3838
-3.72448
-4.10149
-4.55055
-5.10134
-5.62772
-0.207555
-0.621457
-1.0317
-1.43577
-1.83107
-2.21502
-2.58531
-2.94033
-3.27993
-3.60654
-3.92638
-4.24992
-4.58792
-4.9331
-5.21315
-0.22462
-0.672561
-1.11653
-1.55364
-1.98067
-2.39404
-2.78983
-3.16405
-3.513
-3.83397
-4.12571
-4.3883
-4.6203
-4.81008
-4.91465
-0.242586
-0.726422
-1.20612
-1.67851
-2.13977
-2.58527
-3.00934
-3.4053
-3.76551
-4.08168
-4.3453
-4.54793
-4.68201
-4.74625
-4.77299
-0.261479
-0.783154
-1.3008
-1.8111
-2.30982
-2.79137
-3.24838
-3.67139
-4.0486
-4.3659
-4.60723
-4.75515
-4.79223
-4.70844
-4.53738
-0.281265
-0.842688
-1.40056
-1.95173
-2.4918
-3.0145
-3.51102
-3.96929
-4.3733
-4.70289
-4.93402
-5.03934
-4.98637
-4.73124
-4.27895
-0.301818
-0.904686
-1.50499
-2.10008
-2.68584
-3.25581
-3.80024
-4.30486
-4.74968
-5.10824
-5.34818
-5.43347
-5.32091
-4.89096
-3.44347
-0.322903
-0.968468
-1.61302
-2.25491
-2.89083
-3.51486
-4.1171
-4.68195
-5.18595
-5.59598
-5.86974
-5.96499
-5.87585
-5.75729
-6.38539
-0.344157
-1.03295
-1.72291
-2.41389
-3.10409
-3.78903
-4.45994
-5.1013
-5.68749
-6.17833
-6.51526
-6.62455
-6.45122
-6.10513
-6.41951
-0.365077
-1.09662
-1.83211
-2.5734
-3.32099
-4.07296
-4.82329
-5.55897
-6.25524
-6.86758
-7.31887
-7.48038
-7.14657
-5.99429
-3.37539
-0.385035
-1.15755
-1.93726
-2.72854
-3.53485
-4.35803
-5.1968
-6.044
-6.88129
-7.66867
-8.3237
-8.68019
-8.41029
-6.90194
-3.20064
-0.403297
-1.21347
-2.0344
-2.87323
-3.73699
-4.63228
-5.56447
-6.53592
-7.54198
-8.56166
-9.53585
-10.315
-10.534
-9.33247
-4.90088
-0.419071
-1.26193
-2.1191
-3.0006
-3.91725
-4.88091
-5.90486
-7.00381
-8.19322
-9.48626
-10.8834
-12.3388
-13.6443
-14.0061
-10.3304
-0.431568
-1.30046
-2.1869
-3.10358
-4.06484
-5.08767
-6.19317
-7.40887
-8.77248
-10.3385
-12.1907
-14.4665
-17.4101
-21.4834
-27.5551
-11.2442
-25.7258
-24.3134
-20.762
-17.4637
-14.6991
-12.3846
-10.4045
-8.66674
-7.1045
-5.66955
-4.3264
-3.04793
-1.81241
-0.601469
-110.989
-57.8526
-37.3252
-27.1876
-21.145
-17.0378
-13.9776
-11.5404
-9.49928
-7.722
-6.12558
-4.65458
-3.26958
-1.94066
-0.643461
-123.406
-67.3343
-43.122
-30.7692
-23.4824
-18.6495
-15.1381
-12.4012
-10.1486
-8.21391
-6.49451
-4.92304
-3.45228
-2.04687
-0.67832
-67.7808
-54.6913
-40.6829
-30.8329
-24.1156
-19.3434
-15.7608
-12.9256
-10.5772
-8.5563
-6.76073
-5.12155
-3.58959
-2.1275
-0.704906
-47.8377
-42.6864
-35.356
-28.7212
-23.398
-19.2114
-15.8644
-13.1119
-10.7784
-8.74221
-6.91833
-5.24562
-3.67839
-2.1807
-0.722614
-30.3655
-32.1949
-29.5461
-25.6985
-21.8912
-18.4961
-15.5551
-13.0072
-10.7731
-8.7807
-6.97094
-5.29644
-3.71888
-2.2064
-0.73139
-22.3925
-24.8133
-24.5687
-22.6479
-20.0982
-17.4656
-14.9727
-12.6847
-10.5999
-8.69236
-6.92963
-5.27994
-3.71418
-2.20609
-0.731673
-12.4345
-19.2825
-20.7552
-20.0339
-18.3628
-16.3381
-14.2481
-12.2211
-10.3037
-8.50344
-6.80982
-5.20515
-3.66942
-2.18239
-0.724271
-14.991
-17.4847
-18.4654
-18.0796
-16.8728
-15.256
-13.4799
-11.6812
-9.92615
-8.24046
-6.62825
-5.08249
-3.59084
-2.13861
-0.710217
-15.6379
-16.7375
-17.1246
-16.6954
-15.6676
-14.2844
-12.7273
-11.1111
-9.50041
-7.92645
-6.40052
-4.92225
-3.48489
-2.07829
-0.690633
-16.2417
-16.4852
-16.3507
-15.727
-14.7092
-13.4335
-12.0157
-10.5373
-9.04912