/*--------------------------------*- C++ -*----------------------------------*\
| =========                 |                                                 |
| \\      /  F ield         | OpenFOAM: The Open Source CFD Toolbox           |
|  \\    /   O peration     | Version:  5.x                                   |
|   \\  /    A nd           | Web:      www.OpenFOAM.org                      |
|    \\/     M anipulation  |                                                 |
\*---------------------------------------------------------------------------*/
FoamFile
{
    version     2.0;
    format      ascii;
    class       volScalarField;
    location    "20.1";
    object      gradTx;
}
// * * * * * * * * * * * * * * * * * * * * * * * * * * * * * * * * * * * * * //

dimensions      [0 -1 0 1 0 0 0];

internalField   nonuniform List<scalar> 
6300
(
-31.9581
-32.0288
-32.1695
-32.3788
-32.6544
-32.9933
-33.3911
-33.8424
-34.3406
-34.8774
-35.4437
-36.029
-36.6222
-37.2121
-37.7881
-31.8874
-31.9588
-32.1009
-32.3124
-32.5912
-32.9343
-33.3375
-33.7956
-34.3018
-34.848
-35.4247
-36.0211
-36.6255
-37.2261
-37.8114
-31.7453
-31.818
-31.9628
-32.1787
-32.4637
-32.8151
-33.2291
-33.7006
-34.223
-34.7881
-35.386
-36.0051
-36.6327
-37.2553
-37.8599
-31.5304
-31.605
-31.7538
-31.9759
-32.2698
-32.6334
-33.0632
-33.5547
-34.1015
-34.6955
-35.3261
-35.9807
-36.6448
-37.3025
-37.938
-31.2409
-31.3178
-31.4713
-31.7011
-32.0063
-32.3853
-32.8356
-33.3534
-33.9329
-34.5661
-35.2421
-35.9468
-36.6632
-37.3719
-38.0524
-30.8745
-30.9539
-31.1127
-31.351
-31.6689
-32.0658
-32.5405
-33.0903
-33.7106
-34.394
-35.1294
-35.9013
-36.6895
-37.4694
-38.2138
-30.4287
-30.5104
-30.6744
-30.9214
-31.2525
-31.6686
-32.1703
-32.7568
-33.4253
-34.17
-34.9802
-35.8394
-36.724
-37.6026
-38.4373
-29.9011
-29.9848
-30.1531
-30.4076
-30.7509
-31.1859
-31.7152
-32.3412
-33.0639
-33.8803
-34.7819
-35.7523
-36.7646
-37.7795
-38.7444
-29.2899
-29.3746
-29.5454
-29.8051
-30.1578
-30.6086
-31.1636
-31.8288
-32.6088
-33.5056
-34.515
-35.6233
-36.8028
-38.0064
-39.1631
-28.5938
-28.6782
-28.8488
-29.1096
-29.4664
-29.9273
-30.5019
-31.2014
-32.0371
-33.0183
-34.1492
-35.4232
-36.8168
-38.2801
-39.7251
-27.8135
-27.8955
-28.062
-28.318
-28.6711
-29.1322
-29.7154
-30.438
-31.3198
-32.3815
-33.6403
-35.1038
-36.7611
-38.5723
-40.4511
-26.951
-27.0283
-27.1858
-27.4292
-27.7678
-28.2151
-28.7896
-29.5154
-30.4229
-31.5477
-32.9269
-34.5909
-36.552
-38.7976
-41.2978
-26.0112
-26.081
-26.2235
-26.4451
-26.7558
-27.171
-27.7125
-28.4111
-29.3087
-30.4598
-31.9293
-33.7821
-36.0605
-38.771
-41.9997
-25.0015
-25.0609
-25.1823
-25.3719
-25.6394
-26.0005
-26.4784
-27.1081
-27.9414
-29.0539
-30.5494
-32.5508
-35.1436
-38.2387
-41.6581
-23.9325
-23.9786
-24.073
-24.2206
-24.4296
-24.7132
-25.0926
-25.6015
-26.2952
-27.2656
-28.666
-30.7355
-33.7441
-37.4277
-38.1187
-38.2967
-38.7362
-39.1516
-39.5409
-39.9032
-40.2384
-40.5469
-40.8292
-41.0856
-41.3159
-41.5194
-41.6953
-41.8424
-41.96
-42.048
-42.1073
-42.1397
-42.1482
-42.1367
-42.1094
-42.0705
-42.0238
-41.9723
-41.9177
-41.8605
-41.8003
-41.7354
-41.6639
-41.584
-41.4942
-41.3938
-41.2833
-41.164
-41.0382
-40.9088
-40.7786
-40.6503
-40.5257
-40.4057
-40.2901
-40.1777
-40.0665
-39.9543
-39.8388
-39.7184
-39.592
-39.4597
-39.3227
-39.1829
-39.0427
-38.9048
-38.7713
-38.6439
-38.5232
-38.409
-38.2998
-38.1939
-38.0888
-37.9824
-37.873
-37.7595
-37.6421
-37.5217
-37.4001
-37.2795
-37.1625
-37.0512
-36.9471
-36.8508
-36.7623
-36.6803
-36.6034
-36.5296
-36.4574
-36.3856
-36.3143
-36.2443
-36.1779
-36.1182
-36.0691
-36.0345
-36.0181
-36.023
-36.0508
-36.1016
-36.1738
-36.2641
-36.3674
-36.4776
-36.5879
-38.327
-38.771
-39.1892
-39.5797
-39.9422
-40.2768
-40.5847
-40.8666
-41.1232
-41.3544
-41.5593
-41.7367
-41.8849
-42.0026
-42.0894
-42.1459
-42.1741
-42.1772
-42.1595
-42.126
-42.0817
-42.0308
-41.9767
-41.9213
-41.8651
-41.8069
-41.7448
-41.6761
-41.5983
-41.5094
-41.4085
-41.2959
-41.1733
-41.0434
-40.9098
-40.7759
-40.6449
-40.5191
-40.3994
-40.2855
-40.1759
-40.068
-39.959
-39.8461
-39.7269
-39.6004
-39.4665
-39.3268
-39.1834
-39.0396
-38.8983
-38.7626
-38.6342
-38.514
-38.4016
-38.2952
-38.1926
-38.0907
-37.9868
-37.8787
-37.7653
-37.6464
-37.5234
-37.3985
-37.2745
-37.1544
-37.0408
-36.9357
-36.8398
-36.7527
-36.6731
-36.5988
-36.5274
-36.4567
-36.3851
-36.3122
-36.2391
-36.1682
-36.1031
-36.0481
-36.0082
-35.9876
-35.99
-36.0176
-36.0707
-36.1478
-36.2453
-36.3575
-36.4776
-36.5978
-38.3898
-38.8429
-39.2665
-39.6592
-40.0211
-40.3539
-40.6597
-40.9405
-41.1975
-41.4308
-41.639
-41.8201
-41.9712
-42.0898
-42.1745
-42.2254
-42.2446
-42.236
-42.2051
-42.1584
-42.1022
-42.0424
-41.983
-41.9263
-41.8723
-41.8192
-41.7636
-41.7014
-41.6286
-41.542
-41.4399
-41.3229
-41.193
-41.0542
-40.9112
-40.7691
-40.6322
-40.5036
-40.3847
-40.2748
-40.1715
-40.0711
-39.9694
-39.8622
-39.7461
-39.6193
-39.482
-39.3359
-39.1847
-39.0325
-38.8841
-38.7432
-38.6127
-38.4937
-38.3853
-38.2854
-38.1902
-38.0955
-37.9973
-37.8923
-37.7788
-37.6567
-37.5279
-37.3956
-37.2638
-37.1368
-37.0183
-36.911
-36.8159
-36.7324
-36.6582
-36.5902
-36.5243
-36.4572
-36.3863
-36.3105
-36.2309
-36.1502
-36.0732
-36.0057
-35.9539
-35.924
-35.9208
-35.9476
-36.0054
-36.0926
-36.2051
-36.3362
-36.4773
-36.6189
-38.4904
-38.9574
-39.3885
-39.7828
-40.142
-40.4699
-40.7707
-41.0486
-41.306
-41.5431
-41.758
-41.9466
-42.1042
-42.2259
-42.3083
-42.3507
-42.3551
-42.3269
-42.2735
-42.2042
-42.1282
-42.0533
-41.9855
-41.9273
-41.8784
-41.8352
-41.792
-41.7421
-41.6787
-41.5967
-41.4931
-41.3683
-41.2256
-41.0708
-40.9114
-40.7547
-40.6075
-40.4743
-40.357
-40.2545
-40.1628
-40.0762
-39.9879
-39.8911
-39.7806
-39.6535
-39.5099
-39.3527
-39.1872
-39.0203
-38.8588
-38.7089
-38.5747
-38.4578
-38.3571
-38.2687
-38.187
-38.1054
-38.0174
-37.9181
-37.8046
-37.6768
-37.5376
-37.3919
-37.2461
-37.1068
-36.9797
-36.8688
-36.7755
-36.6986
-36.6346
-36.5782
-36.523
-36.4633
-36.3945
-36.3145
-36.224
-36.127
-36.0297
-35.9405
-35.8683
-35.8218
-35.8083
-35.833
-35.8977
-36.0011
-36.1382
-36.3004
-36.4764
-36.6534
-38.6374
-39.1236
-39.5634
-39.9568
-40.3082
-40.6247
-40.9149
-41.1863
-41.4436
-41.6875
-41.9146
-42.1181
-42.2889
-42.4184
-42.4999
-42.5306
-42.5128
-42.4538
-42.365
-42.2599
-42.1523
-42.0543
-41.974
-41.9151
-41.8761
-41.851
-41.8302
-41.8022
-41.7558
-41.6823
-41.5768
-41.4395
-41.2756
-41.0943
-40.9074
-40.7267
-40.5627
-40.4222
-40.3081
-40.2184
-40.1468
-40.0839
-40.0184
-39.9396
-39.8389
-39.7115
-39.5573
-39.3813
-39.1919
-39.0001
-38.8169
-38.652
-38.5118
-38.3988
-38.311
-38.2424
-38.1837
-38.1243
-38.054
-37.9643
-37.8508
-37.7134
-37.5565
-37.3884
-37.2191
-37.0593
-36.9179
-36.8012
-36.7113
-36.6463
-36.6002
-36.5643
-36.5284
-36.4825
-36.4188
-36.3334
-36.2267
-36.104
-35.9746
-35.8507
-35.7456
-35.672
-35.6411
-35.6606
-35.7343
-35.8612
-36.0351
-36.2446
-36.4743
-36.7057
-38.8447
-39.3564
-39.805
-40.1916
-40.5245
-40.8174
-41.0862
-41.3443
-41.6005
-41.8562
-42.1054
-42.3363
-42.5332
-42.6802
-42.7646
-42.7804
-42.7299
-42.6238
-42.4798
-42.3191
-42.1629
-42.0296
-41.9317
-41.8741
-41.8539
-41.8607
-41.8786
-41.8886
-41.8721
-41.8141
-41.7063
-41.5489
-41.3505
-41.126
-40.8944
-40.6749
-40.4838
-40.3321
-40.2241
-40.1563
-40.1185
-40.0952
-40.0682
-40.0199
-39.9357
-39.8079
-39.6363
-39.429
-39.2002
-38.9674
-38.7487
-38.5594
-38.4098
-38.3036
-38.2375
-38.2016
-38.1813
-38.1592
-38.1183
-38.0449
-37.9315
-37.778
-37.5918
-37.3864
-37.1785
-36.9851
-36.8207
-36.695
-36.6114
-36.5666
-36.5511
-36.5505
-36.548
-36.5271
-36.4746
-36.383
-36.2524
-36.0906
-35.9117
-35.734
-35.5774
-35.461
-35.4012
-35.4101
-35.4942
-35.6535
-35.8805
-36.16
-36.4697
-36.7826
-39.1338
-39.6801
-40.136
-40.5035
-40.7982
-41.0451
-41.2726
-41.5052
-41.7581
-42.034
-42.3227
-42.6036
-42.8494
-43.032
-43.1282
-43.1257
-43.0268
-42.8485
-42.6188
-42.3716
-42.1406
-41.9541
-41.8312
-41.7793
-41.7928
-41.8546
-41.9384
-42.0132
-42.048
-42.0174
-41.9073
-41.7176
-41.4628
-41.168
-40.8641
-40.5821
-40.348
-40.1793
-40.0821
-40.0509
-40.0691
-40.1117
-40.149
-40.1515
-40.0954
-39.9672
-39.7668
-39.5079
-39.2141
-38.9145
-38.6382
-38.4096
-38.2451
-38.1505
-38.1203
-38.1386
-38.1816
-38.2211
-38.2292
-38.1831
-38.0699
-37.8895
-37.6548
-37.3881
-37.1171
-36.8692
-36.6677
-36.5281
-36.4556
-36.4449
-36.4805
-36.5394
-36.5942
-36.6174
-36.5866
-36.4887
-36.3231
-36.1019
-35.8471
-35.5869
-35.3512
-35.1683
-35.0624
-35.0513
-35.146
-35.3484
-35.6504
-36.0318
-36.4604
-36.8952
-39.5377
-40.1338
-40.5941
-40.9205
-41.1408
-41.3008
-41.4515
-41.6367
-41.8826
-42.1933
-42.5513
-42.9213
-43.2567
-43.5082
-43.6339
-43.6098
-43.4382
-43.1471
-42.7831
-42.401
-42.0541
-41.7868
-41.6286
-41.5902
-41.6622
-41.8166
-42.0113
-42.1956
-42.318
-42.3354
-42.2228
-41.9801
-41.6325
-41.223
-40.8024
-40.4204
-40.1182
-39.9232
-39.8451
-39.8745
-39.9848
-40.1358
-40.2797
-40.3677
-40.3591
-40.2304
-39.9817
-39.6368
-39.2363
-38.828
-38.4589
-38.1676
-37.9799
-37.9048
-37.9333
-38.04
-38.1868
-38.3283
-38.4183
-38.418
-38.305
-38.0794
-37.7637
-37.3961
-37.0222
-36.6865
-36.4258
-36.2644
-36.2108
-36.2564
-36.3765
-36.5343
-36.6858
-36.7855
-36.7952
-36.6919
-36.4739
-36.1614
-35.7903
-35.4045
-35.049
-34.765
-34.5868
-34.5404
-34.6425
-34.9
-35.3061
-35.8356
-36.442
-37.0613
-40.1071
-40.7833
-41.2449
-41.4901
-41.5701
-41.5696
-41.581
-41.6808
-41.9136
-42.2845
-42.7627
-43.2888
-43.7849
-44.1658
-44.3551
-44.3065
-44.0218
-43.5508
-42.9735
-42.3796
-41.8531
-41.4626
-41.2535
-41.2423
-41.4129
-41.7206
-42.099
-42.467
-42.7393
-42.8407
-42.7254
-42.3936
-41.8916
-41.294
-40.6851
-40.1437
-39.7341
-39.4989
-39.4533
-39.5816
-39.8417
-40.1702
-40.4908
-40.7229
-40.7957
-40.6663
-40.3351
-39.846
-39.2696
-38.6852
-38.1674
-37.7765
-37.5527
-37.5099
-37.6336
-37.8835
-38.1997
-38.5098
-38.7374
-38.8152
-38.7023
-38.3992
-37.9471
-37.4131
-36.8724
-36.3958
-36.0407
-35.8455
-35.8234
-35.9604
-36.218
-36.5385
-36.8518
-37.0833
-37.1667
-37.0601
-36.7608
-36.3053
-35.7546
-35.1784
-34.6439
-34.2093
-33.9216
-33.8155
-33.9154
-34.2375
-34.784
-35.5285
-36.4052
-37.3103
-40.9188
-41.7419
-42.2072
-42.2978
-42.1151
-41.8212
-41.583
-41.5333
-41.7455
-42.2214
-42.905
-43.6995
-44.4791
-45.0991
-45.4188
-45.3432
-44.8735
-44.1075
-43.1878
-42.2611
-41.4563
-40.877
-40.5937
-40.6325
-40.966
-41.5231
-42.2016
-42.8763
-43.4067
-43.6582
-43.5398
-43.0524
-42.2881
-41.3814
-40.4705
-39.6771
-39.0988
-38.8018
-38.8108
-39.0992
-39.5999
-40.2161
-40.8294
-41.3075
-41.5236
-41.3927
-40.916
-40.1808
-39.3143
-38.4468
-37.693
-37.1448
-36.8646
-36.8754
-37.1522
-37.6314
-38.2214
-38.8101
-39.272
-39.4869
-39.3737
-38.9334
-38.2486
-37.4397
-36.6305
-35.9299
-35.4256
-35.1772
-35.2069
-35.4909
-35.9689
-36.5531
-37.1355
-37.5944
-37.8116
-37.7057
-37.2727
-36.5863
-35.7556
-34.8925
-34.0948
-33.4421
-32.9947
-32.7941
-32.8684
-33.2519
-33.9765
-35.0313
-36.3275
-37.6915
-42.082
-43.2155
-43.7091
-43.4995
-42.8203
-41.9922
-41.3137
-41.0083
-41.1978
-41.859
-42.8876
-44.1318
-45.4031
-46.4647
-47.0519
-46.9473
-46.152
-44.8856
-43.4123
-41.967
-40.7347
-39.8654
-39.4698
-39.5987
-40.1969
-41.1507
-42.3098
-43.4932
-44.4759
-45.0081
-44.8855
-44.11
-42.8897
-41.4747
-40.0868
-38.9007
-38.0584
-37.6642
-37.7659
-38.311
-39.1918
-40.266
-41.3626
-42.2693
-42.7514
-42.6169
-41.8691
-40.7049
-39.3603
-38.0447
-36.9225
-36.1272
-35.7574
-35.858
-36.3794
-37.2199
-38.2449
-39.2928
-40.1625
-40.631
-40.516
-39.8198
-38.7288
-37.4666
-36.232
-35.1814
-34.4421
-34.1085
-34.224
-34.7422
-35.5669
-36.5701
-37.597
-38.4534
-38.922
-38.8223
-38.1496
-37.075
-35.8032
-34.5125
-33.3368
-32.3792
-31.7125
-31.3767
-31.3763
-31.7749
-32.6938
-34.1866
-36.152
-38.2927
-43.7215
-45.6078
-46.2231
-45.3792
-43.7415
-41.9472
-40.5063
-39.7707
-39.9709
-40.9674
-42.5597
-44.5248
-46.6294
-48.5131
-49.6813
-49.5461
-48.1089
-45.9617
-43.5965
-41.3664
-39.4902
-38.1716
-37.5907
-37.889
-38.9158
-40.4828
-42.383
-44.3994
-46.1935
-47.3012
-47.1712
-45.8079
-43.7719
-41.5288
-39.4124
-37.6295
-36.3727
-35.8124
-36.0823
-37.0395
-38.5054
-40.2837
-42.1693
-43.8426
-44.8668
-44.7245
-43.4217
-41.4887
-39.3647
-37.364
-35.6811
-34.4971
-33.9727
-34.2344
-35.1472
-36.5426
-38.2356
-40.0323
-41.6305
-42.6155
-42.4953
-41.2747
-39.4555
-37.454
-35.5686
-33.9845
-32.8746
-32.393
-32.6611
-33.5522
-34.9078
-36.5531
-38.3042
-39.8707
-40.8509
-40.7639
-39.6055
-37.8475
-35.8782
-33.9667
-32.2648
-30.8974
-29.9536
-29.4765
-29.3097
-29.5486
-30.5845
-32.6612
-35.7242
-39.2781
-45.822
-49.8197
-50.8279
-48.4041
-44.8958
-41.3946
-38.6825
-37.1849
-37.5969
-39.2178
-41.6948
-44.717
-48.1736
-51.592
-54.1877
-54.0198
-51.0883
-47.3517
-43.5861
-40.2561
-37.443
-35.4156
-34.4455
-35.1303
-36.8569
-39.335
-42.2887
-45.6256
-48.8996
-51.3766
-51.2329
-48.4746
-44.9524
-41.4005
-38.2576
-35.6008
-33.684
-32.7649
-33.4092
-35.0356
-37.3689
-40.147
-43.2817
-46.3505
-48.6621
-48.5032
-45.882
-42.5474
-39.1915
-36.2257
-33.7214
-31.917
-31.0562
-31.6734
-33.22
-35.4367
-38.0768
-41.0579
-43.9813
-46.1913
-46.0593
-43.5917
-40.4445
-37.2742
-34.4712
-32.1046
-30.4024
-29.5977
-30.2012
-31.6935
-33.8314
-36.384
-39.277
-42.1322
-44.3168
-44.2483
-41.9246
-38.9243
-35.8698
-33.1191
-30.7114
-28.8055
-27.5228
-27.1293
-26.659
-26.1748
-26.9764
-29.7157
-34.5893
-40.979
-47.3414
-58.3128
-60.314
-52.9659
-46.0585
-39.7155
-35.1122
-31.8496
-33.4822
-36.2353
-40.0447
-44.2836
-49.7726
-55.8558
-62.6736
-62.473
-55.2271
-48.7837
-42.9483
-38.4015
-34.2646
-31.1369
-28.9172
-30.8714
-33.7157
-37.5025
-41.6428
-46.9423
-52.7534
-59.2256
-59.0599
-52.2413
-46.1754
-40.6835
-36.4026
-32.5067
-29.5585
-27.4663
-29.3219
-32.0136
-35.5917
-39.497
-44.4891
-49.9486
-56.0151
-55.8273
-49.3698
-43.6365
-38.4568
-34.4226
-30.7539
-27.9783
-26.0111
-27.7743
-30.3278
-33.7211
-37.4268
-42.1667
-47.3595
-53.1397
-52.9865
-46.8873
-41.4668
-36.5655
-32.7455
-29.2682
-26.6377
-24.7749
-26.4612
-28.9052
-32.1578
-35.7246
-40.3044
-45.3593
-51.027
-50.9803
-45.2182
-40.079
-35.4243
-31.7773
-28.4355
-25.816
-23.8117
-24.8928
-24.0283
-20.9495
-20.578
-23.6967
-31.2714
-44.1098
-41.3137
-79.7861
-83.046
-56.6721
-46.3769
-35.5347
-29.6119
-19.4653
-27.7537
-31.7319
-37.7759
-42.0502
-50.5159
-59.0616
-81.2662
-81.0714
-58.2104
-49.34
-40.4548
-35.9569
-29.6329
-25.5508
-17.3786
-25.3306
-29.2173
-35.161
-39.3276
-47.5225
-55.6552
-76.6332
-76.4668
-54.9242
-46.572
-38.2224
-33.9934
-28.0479
-24.2004
-16.4828
-24.0307
-27.7152
-33.3434
-37.2818
-45.0235
-52.6728
-72.3743
-72.1799
-51.8147
-43.9284
-36.0727
-32.0931
-26.5003
-22.8755
-15.5941
-22.7373
-26.2261
-31.5557
-35.2876
-42.6231
-49.892
-68.632
-68.476
-49.2053
-41.7417
-34.2998
-30.5263
-25.2123
-21.7674
-14.8414
-21.6302
-24.9523
-30.0318
-33.6066
-40.6475
-47.7038
-65.9662
-65.9423
-47.6149
-40.5361
-33.5274
-29.9964
-25.1193
-21.9407
-15.6574
-25.458
-24.5861
-11.8256
-9.15356
-11.2612
-20.3736
-50.2148
-36.7004
-36.8045
-36.8799
-36.9211
-36.9265
-36.8978
-36.8398
-36.7594
-36.6646
-36.564
-36.466
-36.3779
-36.3061
-36.2554
-36.2293
-36.7204
-36.8332
-36.914
-36.957
-36.9606
-36.9272
-36.8623
-36.7737
-36.6704
-36.5615
-36.456
-36.3616
-36.2849
-36.2309
-36.2031
-36.7627
-36.8938
-36.9859
-37.0322
-37.0317
-36.988
-36.9084
-36.8028
-36.6817
-36.5558
-36.4349
-36.3276
-36.241
-36.1803
-36.1491
-36.8324
-36.9936
-37.1035
-37.1543
-37.1459
-37.0846
-36.9808
-36.8473
-36.6978
-36.5449
-36.4001
-36.273
-36.1712
-36.1002
-36.0639
-36.9385
-37.1448
-37.2801
-37.3355
-37.3131
-37.2236
-37.0827
-36.908
-36.7172
-36.526
-36.3477
-36.1932
-36.0705
-35.9856
-35.9422
-37.0953
-37.3671
-37.5367
-37.5945
-37.5475
-37.4141
-37.2182
-36.9849
-36.737
-36.4941
-36.2716
-36.0814
-35.932
-35.8294
-35.7772
-37.3262
-37.6915
-37.905
-37.9584
-37.8684
-37.667
-37.3913
-37.0763
-36.752
-36.4418
-36.1632
-35.9288
-35.7468
-35.6228
-35.5601
-37.6692
-38.1675
-38.4336
-38.4655
-38.3006
-37.9944
-37.6036
-37.177
-36.7527
-36.3578
-36.0108
-35.7236
-35.5036
-35.355
-35.2802
-38.1879
-38.8758
-39.1963
-39.1694
-38.8742
-38.4063
-37.8515
-37.2756
-36.724
-36.2259
-35.7986
-35.4513
-35.1889
-35.0134
-34.9255
-38.9946
-39.9514
-40.3063
-40.1416
-39.6206
-38.9053
-38.1206
-37.3497
-36.6419
-36.0234
-35.5062
-35.0941
-34.7873
-34.5841
-34.483
-40.2981
-41.6291
-41.9359
-41.47
-40.5612
-39.4735
-38.3759
-37.3607
-36.4704
-35.7196
-35.1086
-34.6318
-34.282
-34.0527
-33.9393
-42.5193
-44.3309
-44.3382
-43.2414
-41.6807
-40.0517
-38.5489
-37.2467
-36.1595
-35.276
-34.5769
-34.0424
-33.6562
-33.4055
-33.2823
-46.5974
-48.8368
-47.8448
-45.4766
-42.8684
-40.5037
-38.5213
-36.9178
-35.6449
-34.6481
-33.8804
-33.3049
-32.8947
-32.631
-32.5019
-54.9121
-56.5742
-52.7275
-47.9518
-43.8127
-40.5734
-38.1147
-36.2584
-34.8541
-33.791
-32.9915
-32.4022
-31.9868
-31.7217
-31.5926
-74.4923
-69.8204
-58.5392
-49.7905
-43.8572
-39.8625
-37.1058
-35.1471
-33.7221
-32.6704
-31.8926
-31.3255
-30.9287
-30.6766
-30.554
-22.9103
-22.9422
-23.0074
-23.109
-23.2521
-23.4455
-23.7036
-24.0512
-24.5326
-25.2332
-26.3299
-28.2244
-31.8876
-39.5552
-53.7794
-21.9588
-21.9769
-22.0135
-22.0696
-22.1468
-22.2481
-22.3789
-22.5489
-22.7783
-23.1111
-23.6563
-24.7345
-27.5042
-37.1222
-79.7156
-20.9947
-20.9987
-21.006
-21.0155
-21.0247
-21.0304
-21.0268
-21.0055
-20.9522
-20.8413
-20.6151
-20.0931
-18.5061
-11.8061
25.4737
-20.0278
-20.0181
-19.9971
-19.9615
-19.9053
-19.819
-19.6872
-19.4843
-19.166
-18.651
-17.7775
-16.2002
-13.1865
-7.74116
-3.81983
-19.0677
-19.0454
-18.9984
-18.9217
-18.8067
-18.6393
-18.3971
-18.0434
-17.5165
-16.7089
-15.4248
-13.2933
-9.57721
-2.63228
13.4219
-18.123
-18.0897
-18.0202
-17.9086
-17.7445
-17.5116
-17.1845
-16.7228
-16.0622
-15.0982
-13.6601
-11.4802
-8.20868
-3.85465
-1.98185
-17.2015
-17.1591
-17.0714
-16.9319
-16.73
-16.4494
-16.0653
-15.5404
-14.8188
-13.8168
-12.411
-10.4236
-7.59093
-3.35515
4.89205
-16.3094
-16.26
-16.1584
-15.9984
-15.7703
-15.4592
-15.0439
-14.4945
-13.77
-12.8161
-11.5662
-9.95358
-7.94728
-5.64159
-3.48436
-15.4515
-15.3972
-15.2859
-15.1124
-14.8682
-14.5413
-14.1156
-13.5703
-12.8807
-12.0208
-10.9733
-9.75696
-8.51142
-7.82495
-10.3627
-14.6314
-14.5738
-14.4566
-14.2753
-14.0235
-13.6921
-13.2703
-12.7464
-12.1096
-11.3559
-10.4978
-9.58062
-8.6873
-7.76929
-5.05947
-13.8511
-13.7919
-13.6718
-13.4874
-13.2339
-12.9056
-12.4961
-12.0008
-11.4197
-10.7635
-10.0634
-9.38772
-8.88033
-8.95795
-11.8182
-13.112
-13.0523
-12.9315
-12.7473
-12.4965
-12.1754
-11.7815
-11.3148
-10.782
-10.2016
-9.61202
-9.07797
-8.66709
-8.21424
-5.59411
-12.4144
-12.355
-12.2353
-12.0536
-11.8077
-11.4958
-11.1173
-10.6747
-10.1773
-9.64603
-9.12209
-8.68269
-8.48302
-8.97558
-12.5198
-11.7579
-11.6995
-11.5821
-11.4043
-11.1648
-10.8625
-10.4976
-10.0728
-9.59624
-9.08534
-8.57345
-8.12093
-7.81823
-7.61777
-5.50887
-11.142
-11.0851
-10.9707
-10.7979
-10.5656
-10.2728
-9.91935
-9.50668
-9.03901
-8.52536
-7.98357
-7.45514
-7.08245
-7.58529
-13.4314
-10.5657
-10.5105
-10.3999
-10.2328
-10.0083
-9.72514
-9.38228
-8.97878
-8.51371
-7.9849
-7.38441
-6.68118
-5.73867
-3.84222
3.35166
-10.0276
-9.97457
-9.86817
-9.7076
-9.49171
-9.21896
-8.88729
-8.49362
-8.03268
-7.49421
-6.85658
-6.07341
-5.05734
-3.77796
-3.63513
-9.52627
-9.47567
-9.37409
-9.2208
-9.01459
-8.75369
-8.43536
-8.05517
-7.60548
-7.07239
-6.42982
-5.62735
-4.55888
-2.92444
0.739978
-9.0601
-9.01215
-8.91592
-8.77073
-8.57546
-8.32829
-8.02637
-7.66498
-7.23619
-6.72659
-6.11411
-5.36602
-4.45346
-3.48066
-3.60301
-8.62723
-8.58215
-8.49173
-8.35545
-8.17235
-7.94092
-7.65868
-7.32158
-6.92301
-6.45224
-5.89257
-5.21891
-4.38986
-3.27639
-1.02886
-8.22565
-8.18362
-8.0994
-7.97266
-7.8028
-7.58882
-7.32907
-7.02088
-6.65995
-6.23962
-5.75019
-5.17969
-4.52379
-3.85968
-3.89608
-7.85325
-7.81438
-7.7366
-7.61982
-7.46389
-7.26849
-7.0331
-6.7568
-6.43815
-6.07498
-5.6641
-5.1998
-4.66344
-3.95651
-2.47188
-7.50785
-7.47216
-7.40087
-7.29417
-7.15237
-6.97594
-6.76553
-6.52213
-6.24727
-5.94347
-5.61511
-5.26994
-4.92153
-4.5934
-4.33342
-7.18724
-7.15466
-7.08973
-6.99289
-6.86491
-6.70698
-6.52087
-6.30931
-6.07649
-5.82902
-5.5778
-5.34234
-5.16554
-5.18298
-6.01442
-6.88924
-6.85964
-6.80074
-6.71324
-6.59826
-6.45758
-6.29389
-6.11125
-5.91587
-5.71718
-5.52955
-5.37399
-5.27466
-5.20729
-4.67385
-6.61181
-6.58495
-6.53162
-6.45266
-6.34945
-6.22416
-6.08006
-5.92205
-5.75754
-5.59766
-5.45904
-5.3666
-5.3616
-5.55525
-6.56179
-6.35302
-6.32864
-6.2803
-6.20892
-6.11598
-6.00381
-5.87588
-5.73737
-5.59601
-5.46337
-5.35645
-5.2985
-5.31057
-5.33872
-4.72771
-6.11117
-6.08897
-6.045
-5.98014
-5.89587
-5.79441
-5.67905
-5.55466
-5.42842
-5.31121
-5.21987
-5.18177
-5.24839
-5.56604
-6.89029
-5.88473
-5.86442
-5.82419
-5.76485
-5.68769
-5.59465
-5.48851
-5.37323
-5.25456
-5.1411
-5.04631
-4.99231
-5.01188
-5.09432
-4.5704
-5.67239
-5.65371
-5.61667
-5.56193
-5.49055
-5.404
-5.30431
-5.19415
-5.07709
-4.95802
-4.84442
-4.75178
-4.73171
-5.04368
-7.28875
-5.47303
-5.45575
-5.42143
-5.37057
-5.30393
-5.22248
-5.12738
-5.01988
-4.90103
-4.77113
-4.62799
-4.46084
-4.22096
-3.65061
-1.16928
-5.28568
-5.26962
-5.23767
-5.19018
-5.1276
-5.05044
-4.95907
-4.85347
-4.73264
-4.59343
-4.42824
-4.22042
-3.93971
-3.5846
-3.72352
-5.10948
-5.09452
-5.06471
-5.02026
-4.9614
-4.88826
-4.80065
-4.69766
-4.57701
-4.43377
-4.2581
-4.03063
-3.71012
-3.17551
-1.81684
-4.94368
-4.92973
-4.90192
-4.86036
-4.80513
-4.73614
-4.65289
-4.55411
-4.43707
-4.29664
-4.12392
-3.90546
-3.62921
-3.33868
-3.52399
-4.78756
-4.77458
-4.74868
-4.70995
-4.6584
-4.59391
-4.51594
-4.42325
-4.31338
-4.18192
-4.0215
-3.82043
-3.55822
-3.17139
-2.26525
-4.64045
-4.6284
-4.60437
-4.56843
-4.52068
-4.46104
-4.3892
-4.30432
-4.20469
-4.08732
-3.94732
-3.77786
-3.57376
-3.36473
-3.47179
-4.50171
-4.49055
-4.46831
-4.43513
-4.3912
-4.33665
-4.27153
-4.19562
-4.10834
-4.00843
-3.89361
-3.75934
-3.59275
-3.33856
-2.68891
-4.37072
-4.36039
-4.33985
-4.30931
-4.26909
-4.21961
-4.16134
-4.09484
-4.02074
-3.93988
-3.85343
-3.76325
-3.67257
-3.587
-3.5186
-4.24691
-4.23733
-4.21833
-4.1902
-4.15343
-4.10868
-4.05688
-3.99932
-3.93786
-3.87523
-3.81582
-3.76753
-3.74883
-3.82352
-4.30077
-4.12975
-4.12082
-4.10315
-4.07711
-4.0433
-4.00263
-3.95641
-3.90652
-3.85577
-3.80835
-3.7705
-3.75125
-3.76025
-3.78047
-3.54531
-4.01879
-4.01039
-3.99379
-3.96941
-3.93795
-3.90045
-3.85848
-3.81432
-3.77139
-3.73481
-3.71226
-3.71536
-3.76388
-3.91476
-4.49556
-3.91367
-3.90565
-3.88982
-3.86662
-3.83678
-3.80139
-3.76208
-3.72127
-3.6826
-3.65153
-3.63622
-3.64792
-3.69642
-3.7505
-3.45032
-3.81412
-3.80634
-3.79098
-3.76846
-3.73947
-3.70504
-3.66671
-3.62674
-3.58853
-3.55732
-3.54144
-3.55491
-3.6251
-3.83225
-4.5954
-3.71997
-3.71229
-3.69711
-3.67479
-3.64594
-3.61142
-3.57249
-3.53099
-3.4896
-3.45245
-3.42627
-3.42253
-3.45866
-3.52789
-3.2545
-3.63115
-3.62345
-3.60819
-3.58567
-3.55634
-3.52084
-3.48007
-3.43517
-3.38773
-3.33997
-3.29552
-3.26245
-3.26925
-3.46145
-4.73964
-3.54769
-3.53987
-3.52432
-3.50127
-3.47102
-3.43395
-3.3905
-3.34112
-3.28608
-3.22519
-3.15686
-3.0747
-2.95108
-2.64085
-1.25294
-3.46966
-3.46164
-3.44567
-3.42188
-3.39043
-3.35147
-3.30506
-3.25099
-3.18849
-3.11558
-3.02782
-2.91574
-2.76251
-2.56862
-2.66186
-3.3972
-3.38894
-3.37246
-3.34781
-3.31506
-3.27418
-3.22494
-3.16673
-3.09813
-3.01629
-2.91566
-2.78537
-2.60218
-2.29699
-1.51899
-3.33049
-3.32195
-3.30491
-3.27937
-3.24534
-3.20269
-3.15107
-3.08967
-3.01696
-2.93005
-2.82409
-2.69174
-2.52656
-2.35369
-2.45235
-3.26969
-3.26088
-3.24325
-3.21684
-3.18161
-3.13743
-3.08397
-3.02049
-2.94564
-2.85705
-2.75085
-2.6209
-2.4563
-2.22183
-1.69441
-3.21503
-3.20591
-3.1877
-3.16043
-3.12409
-3.07863
-3.02383
-2.95921
-2.88387
-2.79629
-2.69409
-2.57412
-2.43456
-2.2934
-2.32998
-3.1667
-3.15727
-3.13845
-3.11031
-3.07291
-3.02631
-2.97051
-2.90537
-2.8306
-2.74567
-2.64969
-2.54095
-2.41395
-2.24152
-1.86201
-3.12491
-3.11515
-3.09568
-3.06662
-3.02812
-2.98039
-2.92367
-2.85822
-2.78439
-2.70273
-2.61416
-2.52045
-2.42487
-2.33346
-2.2594
-3.08991
-3.07977
-3.05957
-3.02948
-2.98974
-2.94072
-2.88289
-2.81688
-2.74363
-2.66458
-2.5822
-2.50125
-2.43291
-2.41334
-2.60535
-3.06196
-3.05138
-3.03033
-2.99903
-2.95782
-2.90718
-2.84779
-2.78058
-2.70689
-2.62874
-2.54925
-2.47329
-2.40707
-2.34629
-2.17185
-3.04135
-3.03026
-3.00821
-2.97547
-2.93244
-2.87972
-2.81812
-2.74877
-2.67325
-2.59383
-2.51387
-2.43857
-2.37745
-2.35818
-2.52997
-3.02844
-3.01675
-2.99353
-2.95905
-2.9138
-2.85842
-2.79383
-2.72125
-2.64233
-2.5593
-2.47523
-2.39402
-2.31876
-2.23738
-2.01449
-3.02365
-3.01126
-2.98665
-2.95012
-2.90218
-2.84352
-2.77509
-2.69813
-2.61425
-2.52551
-2.43462
-2.34532
-2.26433
-2.21484
-2.3371
-3.02745
-3.01426
-2.98805
-2.94912
-2.89801
-2.83541
-2.76229
-2.67983
-2.58954
-2.4932
-2.39291
-2.29085
-2.18804
-2.07302
-1.82967
-3.04042
-3.02632
-2.99826
-2.95659
-2.90181
-2.83462
-2.75596
-2.66696
-2.56902
-2.46365
-2.35243
-2.23691
-2.12021
-2.02032
-2.06815
-3.06319
-3.04806
-3.01794
-2.97317
-2.91423
-2.8418
-2.7568
-2.66032
-2.55366
-2.43817
-2.31492
-2.1838
-2.04072
-1.86504
-1.54676
-3.09647
-3.0802
-3.0478
-2.99958
-2.936
-2.85772
-2.7656
-2.66074
-2.54444
-2.41809
-2.28288
-2.13899
-1.98386
-1.80877
-1.59741
-3.14104
-3.12354
-3.08866
-3.03667
-2.968
-2.88325
-2.78326
-2.66912
-2.54219
-2.40416
-2.25686
-2.10198
-1.94086
-1.7777
-1.65129
-3.19778
-3.17895
-3.14139
-3.08533
-3.01115
-2.91937
-2.81075
-2.68636
-2.54766
-2.39668
-2.2361
-2.06931
-1.89929
-1.72112
-1.46734
-3.2676
-3.24736
-3.20697
-3.14659
-3.06652
-2.96718
-2.8492
-2.71354
-2.56166
-2.39584
-2.21967
-2.03888
-1.86338
-1.71703
-1.70796
-3.35147
-3.32977
-3.28642
-3.22153
-3.13528
-3.02793
-2.89993
-2.75199
-2.58535
-2.4022
-2.20645
-2.00477
-1.80722
-1.6176
-1.34146
-3.4504
-3.42721
-3.38083
-3.31131
-3.21869
-3.10304
-2.96451
-2.80342
-2.62049
-2.41733
-2.19733
-1.96781
-1.74555
-1.57826
-1.65161
-3.56545
-3.54075
-3.49133
-3.41713
-3.31808
-3.19403
-3.04475
-2.87001
-2.66969
-2.44413
-2.19484
-1.9258
-1.64571
-1.37181
-1.14428
-3.69766
-3.67146
-3.61902
-3.54022
-3.43485
-3.30253
-3.14267
-2.95437
-2.73643
-2.48743
-2.20605
-1.89148
-1.54155
-1.13317
-0.478921
-3.84805
-3.82039
-3.76501
-3.68176
-3.57032
-3.43017
-3.26034
-3.05932
-2.82473
-2.5532
-2.24033
-1.8817
-1.478
-1.06525
-0.926585
-4.01766
-3.98858
-3.93037
-3.84286
-3.72575
-3.57841
-3.39968
-3.18757
-2.9387
-2.64768
-2.30637
-1.90322
-1.42073
-0.807008
0.289422
-4.20746
-4.17701
-4.11606
-4.02453
-3.90217
-3.74844
-3.56221
-3.34135
-3.08193
-2.77708
-2.41537
-1.97984
-1.45459
-0.883974
-0.790254
-4.41841
-4.3866
-4.32299
-4.22761
-4.10038
-3.94103
-3.74879
-3.52191
-3.25671
-2.94596
-2.57564
-2.11877
-1.51996
-0.629759
1.25226
-4.65146
-4.61828
-4.552
-4.4528
-4.3209
-4.15647
-3.95943
-3.72907
-3.46314
-3.1562
-2.796
-2.35628
-1.78768
-1.06431
-0.862764
-4.90755
-4.87293
-4.80386
-4.7007
-4.56401
-4.39455
-4.19323
-3.96092
-3.69804
-3.40343
-3.0716
-2.68329
-2.16287
-1.13648
2.62669
-5.18769
-5.15151
-5.0794
-4.97188
-4.82987
-4.65475
-4.44853
-4.21402
-3.95497
-3.6765
-3.38642
-3.10204
-2.88945
-3.10917
-6.05505
-5.49295
-5.45505
-5.37952
-5.26703
-5.11873
-4.93655
-4.7235
-4.48415
-4.22539
-3.95765
-3.69728
-3.47095
-3.31579
-3.1887
-1.99804
-5.82454
-5.78471
-5.70531
-5.58703
-5.43112
-5.23979
-5.01672
-4.76776
-4.50205
-4.23367
-3.98449
-3.79044
-3.72265
-4.00681
-5.89686
-6.1838
-6.14184
-6.05811
-5.93316
-5.76811
-5.56509
-5.32792
-5.063
-4.78056
-4.49635
-4.23343
-4.02224
-3.88511
-3.70973
-2.32551
-6.57219
-6.52797
-6.43955
-6.30715
-6.13145
-5.91409
-5.65839
-5.3704
-5.06032
-4.74426
-4.44644
-4.2026
-4.07414
-4.2521
-5.88292
-6.9913
-6.94478
-6.85152
-6.7112
-6.52374
-6.28973
-6.01128
-5.69314
-5.34421
-4.97951
-4.62196
-4.30283
-4.05038
-3.78554
-2.48283
-7.44272
-7.39406
-7.29617
-7.148
-6.94834
-6.69622
-6.39174
-6.03725
-5.63908
-5.20978
-4.77081
-4.35676
-4.03522
-4.03973
-5.62522
-7.92793
-7.87753
-7.77572
-7.62057
-7.40938
-7.13908
-6.80694
-6.4117
-5.95555
-5.44678
-4.90234
-4.34646
-3.79363
-3.19603
-2.42148
-8.44814
-8.3967
-8.29233
-8.13205
-7.91145
-7.62489
-7.26595
-6.82845
-6.30856
-5.70853
-5.04183
-4.33404
-3.58313
-2.4752
1.32014
-9.00407
-8.95263
-8.84776
-8.68541
-8.45933
-8.16098
-7.77952
-7.30241
-6.71723
-6.0166
-5.20985
-4.35155
-3.62055
-3.62065
-6.95765
-9.59573
-9.54567
-9.44311
-9.28302
-9.05741
-8.75477
-8.35951
-7.85141
-7.20609
-6.39834
-5.41368
-4.28067
-3.15027
-2.44878
-2.89774
-10.2222
-10.1752
-10.0784
-9.92614
-9.70897
-9.41289
-9.01786
-8.4957
-7.80774
-6.90295
-5.72052
-4.20797
-2.38214
-0.478002
0.850414
-10.8812
-10.8392
-10.7523
-10.6143
-10.4153
-10.1397
-9.76448
-9.25514
-8.55998
-7.60035
-6.25661
-4.35282
-1.66839
1.89259
5.52108
-11.5695
-11.5344
-11.4615
-11.345
-11.1748
-10.9358
-10.6042
-10.1436
-9.49586
-8.5645
-7.18163
-5.03979
-1.56337
4.2163
12.7115
-12.2821
-12.2559
-12.2012
-12.1128
-11.9822
-11.7961
-11.5336
-11.1621
-10.6287
-9.84221
-8.6337
-6.65356
-3.05781
4.6542
25.8015
-146.468
-88.0213
-61.545
-48.8952
-42.1209
-38.0762
-35.4493
-33.6391
-32.3421
-31.3921
-30.6921
-30.1825
-29.8261
-29.5997
-29.4897
-182.166
-82.3661
-54.676
-44.001
-38.647
-35.4676
-33.3763
-31.9118
-30.8466
-30.0565
-29.4684
-29.0369
-28.7335
-28.54
-28.4457
46.8859
-26.6349
-35.9908
-35.4117
-33.6628
-32.1034
-30.8681
-29.9071
-29.1601
-28.5807
-28.1359
-27.8025
-27.5645
-27.4113
-27.3363
-7.06121
-15.4625
-24.2051
-27.6347
-28.5472
-28.514
-28.1694
-27.7539
-27.3572
-27.0115
-26.726
-26.5017
-26.3367
-26.2283
-26.1747
25.8829
-4.0533
-16.1088
-21.6056
-24.0883
-25.141
-25.5198
-25.5875
-25.5191
-25.4003
-25.2736
-25.1598
-25.0695
-25.0074
-24.9759
-1.44097
-5.06117
-12.5673
-17.6697
-20.6223
-22.236
-23.0865
-23.5155
-23.7159
-23.7947
-23.8122
-23.8018
-23.7826
-23.7652
-23.7553
11.4349
-3.37046
-10.6952
-15.2265
-18.0863
-19.8609
-20.9458
-21.6025
-21.997
-22.2319
-22.37
-22.4498
-22.4944
-22.5178
-22.5278
-3.09345
-6.87461
-10.7628
-13.9443
-16.3038
-17.9647
-19.1024
-19.8715
-20.3889
-20.7362
-20.9685
-21.1222
-21.221
-21.2798
-21.3071
-14.996
-10.3044
-11.3213
-13.2328
-15.0064
-16.432