/*--------------------------------*- C++ -*----------------------------------*\
| =========                 |                                                 |
| \\      /  F ield         | OpenFOAM: The Open Source CFD Toolbox           |
|  \\    /   O peration     | Version:  5.x                                   |
|   \\  /    A nd           | Web:      www.OpenFOAM.org                      |
|    \\/     M anipulation  |                                                 |
\*---------------------------------------------------------------------------*/
FoamFile
{
    version     2.0;
    format      ascii;
    class       volScalarField;
    location    "1.9";
    object      gradTy;
}
// * * * * * * * * * * * * * * * * * * * * * * * * * * * * * * * * * * * * * //

dimensions      [0 -1 0 1 0 0 0];

internalField   nonuniform List<scalar> 
3200
(
17.8023
8.45282
11.4559
8.15399
9.53974
7.90195
8.62284
7.67151
8.09742
7.49185
7.75189
7.41376
7.61174
7.22628
7.42534
7.05978
7.24601
6.91125
7.08065
6.77927
6.93103
6.6629
6.7975
6.56088
6.67978
6.47127
6.57798
6.39084
6.49952
6.33925
6.2085
6.29274
6.17693
6.23333
6.14275
6.18647
6.11418
6.14893
6.09133
6.11887
6.07345
6.09501
6.05976
6.07634
6.04954
6.06197
6.04224
6.05112
6.03757
6.04318
6.03605
6.03973
6.03329
6.03592
6.03225
6.03313
6.03326
6.0317
6.03706
6.03199
6.04502
6.0345
6.05973
6.03995
6.08618
6.04862
6.13532
6.05578
6.23283
6.00963
6.3032
7.11771
6.43145
7.95434
6.7887
9.90168
9.13174
9.014
8.98969
8.98446
16.5963
9.53779
11.0717
8.60232
9.34541
8.12239
8.50843
7.79731
8.02431
7.57125
7.71011
7.45772
7.56323
7.27447
7.37962
7.10578
7.20423
6.9535
7.04309
6.81737
6.89765
6.69684
6.76806
6.59085
6.6538
6.49766
6.55432
6.41436
6.47331
6.34248
6.23235
6.2786
6.1921
6.22216
6.15436
6.17753
6.12341
6.14181
6.09868
6.11326
6.07925
6.09067
6.06427
6.07306
6.05299
6.05957
6.0448
6.0495
6.03935
6.04233
6.03701
6.03897
6.03414
6.03552
6.03277
6.03322
6.03332
6.03248
6.03648
6.03377
6.04352
6.0379
6.05676
6.04619
6.08073
6.06053
6.12517
6.08166
6.21278
6.08516
6.36147
7.00256
6.63294
7.77212
7.16586
9.5088
9.10571
9.01031
8.98898
8.9843
15.6728
10.2791
10.8476
8.92219
9.22976
8.2785
8.43794
7.88562
7.97842
7.62699
7.68399
7.48738
7.53051
7.30691
7.34907
7.1369
7.17644
6.98215
7.01816
6.84324
6.87553
6.71991
6.74856
6.61122
6.63658
6.51555
6.53852
6.42993
6.45469
6.34489
6.24995
6.26979
6.20262
6.2149
6.16233
6.1717
6.12974
6.13716
6.10373
6.1096
6.08324
6.08784
6.06738
6.07092
6.05537
6.05802
6.04657
6.04847
6.0406
6.04181
6.03768
6.03847
6.03474
6.03528
6.03315
6.03333
6.03341
6.03306
6.03617
6.03506
6.04263
6.04032
6.05497
6.05062
6.07746
6.06904
6.11933
6.10054
6.20307
6.14454
6.40513
6.92783
6.77407
7.65971
7.42505
9.22574
9.06736
9.00366
8.9876
8.98395
14.965
10.782
10.7233
9.15277
9.1645
8.3902
8.39594
7.94814
7.95033
7.66641
7.66803
7.50747
7.50847
7.32874
7.32871
7.15796
7.15802
7.00159
7.00168
6.86083
6.86093
6.7356
6.73571
6.62509
6.62522
6.52769
6.52798
6.44017
6.44146
6.34671
6.26297
6.26445
6.20996
6.21025
6.16783
6.16792
6.1341
6.13415
6.1072
6.10724
6.086
6.08602
6.06954
6.06956
6.05702
6.05704
6.04781
6.04782
6.04149
6.04151
6.03814
6.03815
6.03516
6.03515
6.03345
6.03344
6.03351
6.03349
6.03602
6.03599
6.04212
6.04206
6.05393
6.0538
6.07559
6.07519
6.11626
6.11457
6.1998
6.19114
6.43831
6.88015
6.87362
7.5921
7.60282
9.02104
9.02521
8.99509
8.98571
8.98345
14.4247
11.1199
10.6596
9.32008
9.1307
8.47071
8.3721
7.99268
7.93369
7.69442
7.65858
7.52111
7.49368
7.3434
7.31519
7.1722
7.14586
7.01478
6.99085
6.87279
6.85136
6.74629
6.72729
6.63453
6.61777
6.53591
6.52098
6.44684
6.43207
6.34809
6.27257
6.26136
6.21511
6.2073
6.17164
6.1655
6.13711
6.13221
6.1096
6.10572
6.0879
6.08486
6.07103
6.06869
6.05817
6.05642
6.04868
6.04743
6.04212
6.04134
6.03847
6.03795
6.03546
6.03508
6.03367
6.03354
6.03362
6.03383
6.03597
6.03667
6.04187
6.04332
6.05338
6.05609
6.07461
6.07969
6.11489
6.12513
6.20028
6.22751
6.4637
6.8504
6.94417
7.5528
7.72428
8.8729
8.98444
8.98569
8.98353
8.98285
14.0165
11.3441
10.631
9.44141
9.11575
8.5288
8.35951
8.02442
7.92429
7.71432
7.6532
7.53037
7.48382
7.35318
7.30628
7.18178
7.13791
7.02369
6.98378
6.88088
6.84513
6.75354
6.72183
6.64093
6.61293
6.54146
6.51634
6.45115
6.42546
6.34914
6.27962
6.25968
6.21873
6.20547
6.17426
6.16397
6.13918
6.13099
6.11126
6.10477
6.08921
6.08414
6.07206
6.06815
6.05898
6.05605
6.04929
6.0472
6.04257
6.04125
6.0387
6.03783
6.03568
6.03506
6.03383
6.03363
6.03372
6.03408
6.03598
6.03717
6.04176
6.04423
6.05311
6.05775
6.07417
6.08298
6.11452
6.13308
6.20268
6.25551
6.48307
6.83237
6.99411
7.53099
7.80665
8.76624
8.94807
8.97642
8.98129
8.98222
13.7154
11.4899
10.6215
9.52821
9.11128
8.5702
8.35358
8.04678
7.9193
7.72827
7.65032
7.53659
7.47733
7.35963
7.30048
7.18816
7.13278
7.02964
6.97925
6.8863
6.84115
6.7584
6.71834
6.64523
6.60983
6.54516
6.51332
6.45388
6.42088
6.34992
6.28468
6.25883
6.22125
6.20437
6.17605
6.16302
6.14059
6.13024
6.11238
6.10418
6.09011
6.08369
6.07277
6.06783
6.05953
6.05582
6.04972
6.04707
6.04289
6.04121
6.03886
6.03776
6.03583
6.03505
6.03396
6.0337
6.0338
6.03427
6.03601
6.03753
6.04173
6.04488
6.05301
6.05894
6.07402
6.08535
6.11467
6.13898
6.20574
6.27653
6.49756
6.82183
7.02905
7.51961
7.86166
8.69068
8.91783
8.96809
8.9792
8.98162
13.5033
11.5815
10.6211
9.58799
9.11181
8.59865
8.35129
8.06199
7.91687
7.73773
7.64888
7.54065
7.4732
7.36376
7.29682
7.19227
7.12957
7.03349
6.97643
6.88982
6.83868
6.76155
6.71619
6.64802
6.60791
6.54755
6.5114
6.45556
6.41781
6.35047
6.28817
6.25847
6.22294
6.20373
6.17724
6.16246
6.14151
6.12978
6.11313
6.10383
6.0907
6.08343
6.07324
6.06764
6.05989
6.0557
6.05
6.047
6.0431
6.0412
6.03897
6.03772
6.03593
6.03505
6.03405
6.03376
6.03386
6.0344
6.03605
6.03779
6.04174
6.04533
6.05299
6.05976
6.07403
6.087
6.115
6.14318
6.20863
6.29152
6.50791
6.81598
7.05265
7.51417
7.89719
8.63919
8.89466
8.96131
8.97746
8.98111
13.3681
11.6347
10.6236
9.62553
9.11384
8.61649
8.35069
8.07145
7.91582
7.74359
7.64824
7.54309
7.47077
7.3662
7.29469
7.19471
7.12771
7.0358
6.9748
6.89193
6.83726
6.76344
6.71494
6.64969
6.6068
6.54898
6.51027
6.45651
6.41594
6.35083
6.29035
6.25834
6.22398
6.20338
6.17796
6.16215
6.14208
6.12953
6.11358
6.10364
6.09106
6.08328
6.07352
6.06754
6.06011
6.05563
6.05017
6.04697
6.04324
6.0412
6.03903
6.0377
6.03599
6.03506
6.0341
6.0338
6.03391
6.03449
6.03608
6.03794
6.04175
6.04561
6.053
6.06027
6.07407
6.08804
6.11533
6.14589
6.21082
6.30118
6.51459
6.81297
7.06725
7.51187
7.91835
8.60716
8.87904
8.95655
8.97621
8.98074
13.3023
11.6591
10.6256
9.64364
9.11534
8.62509
8.35066
8.07599
7.91546
7.7464
7.648
7.54424
7.46965
7.36733
7.2937
7.19585
7.12686
7.03687
6.97406
6.89291
6.83662
6.76433
6.71438
6.65048
6.6063
6.54964
6.50975
6.45694
6.41505
6.351
6.29141
6.2583
6.22448
6.20323
6.1783
6.16201
6.14234
6.12942
6.11379
6.10355
6.09123
6.08322
6.07366
6.06749
6.06022
6.0556
6.05026
6.04696
6.0433
6.0412
6.03907
6.03769
6.03602
6.03506
6.03413
6.03382
6.03393
6.03453
6.0361
6.03802
6.04177
6.04574
6.05301
6.06052
6.07411
6.08855
6.11553
6.14722
6.21199
6.30591
6.51787
6.81172
7.07423
7.51109
7.92822
8.5918
8.87119
8.9541
8.97555
8.98055
-12.8392
-11.0854
-9.89138
-8.59019
-7.80355
-6.93928
-6.39603
-5.76786
-5.36919
-4.90792
-4.6281
-4.31904
-4.09458
-3.78563
-3.56502
-3.2747
-3.07286
-2.81377
-2.63581
-2.40989
-2.25558
-2.06072
-1.92793
-1.76053
-1.64625
-1.50161
-1.40097
-1.26942
-1.16627
-1.01013
-0.865614
-0.785483
-0.703741
-0.652268
-0.591698
-0.55183
-0.50327
-0.470966
-0.431282
-0.404826
-0.37228
-0.350603
-0.323979
-0.306309
-0.284708
-0.270493
-0.253316
-0.242266
-0.229335
-0.221501
-0.21289
-0.206718
-0.198341
-0.192469
-0.184893
-0.179744
-0.173303
-0.169002
-0.163718
-0.160246
-0.156063
-0.15341
-0.150385
-0.148758
-0.147479
-0.147971
-0.151183
-0.158793
-0.1794
-0.219901
-0.322511
-0.4836
-0.649656
-0.953063
-1.27007
-1.80032
-2.02453
-2.09115
-2.10839
-2.1124
-12.9095
-11.0632
-9.8958
-8.56973
-7.80677
-6.92655
-6.39953
-5.75878
-5.37179
-4.90075
-4.62936
-4.31574
-4.09804
-3.78217
-3.56788
-3.27123
-3.07522
-2.81058
-2.63778
-2.40708
-2.25725
-2.05829
-1.92935
-1.75845
-1.6475
-1.49988
-1.40224
-1.26831
-1.16841
-1.00969
-0.863052
-0.785558
-0.702537
-0.652637
-0.590872
-0.552178
-0.502618
-0.471258
-0.430748
-0.405064
-0.371837
-0.350792
-0.32361
-0.306454
-0.284399
-0.270596
-0.253055
-0.242324
-0.229114
-0.221514
-0.212773
-0.206786
-0.19822
-0.192515
-0.184773
-0.179773
-0.173194
-0.169017
-0.16362
-0.160248
-0.155975
-0.153398
-0.150301
-0.148716
-0.147379
-0.147833
-0.150978
-0.158243
-0.178574
-0.217385
-0.320138
-0.483366
-0.644125
-0.952478
-1.2615
-1.81252
-2.03078
-2.09307
-2.10887
-2.11251
-13.0538
-11.0139
-9.9067
-8.52686
-7.8148
-6.89979
-6.40769
-5.73964
-5.37784
-4.88569
-4.63239
-4.30868
-4.1055
-3.77472
-3.57411
-3.2638
-3.08038
-2.80378
-2.64213
-2.40108
-2.26094
-2.05309
-1.9325
-1.754
-1.65025
-1.49618
-1.40498
-1.26586
-1.17293
-1.00877
-0.857736
-0.785864
-0.700015
-0.653486
-0.589126
-0.552963
-0.501237
-0.471914
-0.429617
-0.405597
-0.370899
-0.351216
-0.322829
-0.306783
-0.283746
-0.270835
-0.252506
-0.242465
-0.228649
-0.221553
-0.212526
-0.206937
-0.197964
-0.192621
-0.184521
-0.179841
-0.172964
-0.169056
-0.163416
-0.16026
-0.155793
-0.153379
-0.150129
-0.148636
-0.147179
-0.147557
-0.150577
-0.15714
-0.176977
-0.21228
-0.315313
-0.483195
-0.632653
-0.951827
-1.24321
-1.83798
-2.04323
-2.09681
-2.10979
-2.11272
-13.2798
-10.9274
-9.92864
-8.45741
-7.83106
-6.85624
-6.42299
-5.70836
-5.38921
-4.86116
-4.63832
-4.29688
-4.11815
-3.76214
-3.5848
-3.25136
-3.08933
-2.79245
-2.6497
-2.3911
-2.26738
-2.04445
-1.938
-1.7466
-1.65505
-1.49
-1.40968
-1.26159
-1.18032
-1.00735
-0.849266
-0.786739
-0.695927
-0.655054
-0.586254
-0.554371
-0.498959
-0.473086
-0.427749
-0.406551
-0.369352
-0.35198
-0.321543
-0.30738
-0.282675
-0.271276
-0.251608
-0.24274
-0.227898
-0.221651
-0.212122
-0.207204
-0.197541
-0.192816
-0.184109
-0.179974
-0.172591
-0.169139
-0.163086
-0.160299
-0.155501
-0.153366
-0.149859
-0.148525
-0.146876
-0.147147
-0.150005
-0.155476
-0.17473
-0.204433
-0.307861
-0.483726
-0.614355
-0.952247
-1.21274
-1.87897
-2.0617
-2.10212
-2.11106
-2.113
-13.6001
-10.7869
-9.9696
-8.35428
-7.86138
-6.79112
-6.44964
-5.66135
-5.40902
-4.82451
-4.64909
-4.27866
-4.13797
-3.74248
-3.6018
-3.23212
-3.10374
-2.775
-2.66197
-2.37578
-2.27784
-2.03119
-1.94695
-1.73524
-1.66282
-1.48047
-1.41711
-1.25467
-1.1914
-1.00535
-0.836986
-0.788755
-0.689848
-0.657743
-0.581909
-0.556721
-0.495497
-0.475034
-0.42491
-0.408139
-0.367004
-0.353258
-0.319595
-0.308387
-0.281057
-0.272034
-0.250263
-0.243238
-0.226785
-0.221862
-0.211514
-0.20764
-0.196899
-0.193149
-0.183492
-0.180215
-0.172036
-0.169302
-0.162601
-0.160393
-0.155077
-0.153382
-0.149474
-0.1484
-0.146468
-0.146605
-0.149298
-0.153231
-0.172034
-0.193606
-0.297478
-0.48603
-0.58773
-0.955723
-1.166
-1.93925
-2.08581
-2.10865
-2.11256
-2.11331
-14.0331
-10.5667
-10.0426
-8.20637
-7.91491
-6.69696
-6.49427
-5.59299
-5.44221
-4.77157
-4.66773
-4.25132
-4.16806
-3.71271
-3.62803
-3.2033
-3.12623
-2.74898
-2.68122
-2.35297
-2.29429
-2.01148
-1.96103
-1.71835
-1.67502
-1.4662
-1.42853
-1.24381
-1.20741
-1.00266
-0.819911
-0.792808
-0.681103
-0.662187
-0.575539
-0.560513
-0.490403
-0.478166
-0.420733
-0.410696
-0.363553
-0.355324
-0.316739
-0.310027
-0.278695
-0.273288
-0.248313
-0.244096
-0.225193
-0.222272
-0.210628
-0.208332
-0.195957
-0.193698
-0.182599
-0.180629
-0.171241
-0.1696
-0.161911
-0.160586
-0.154481
-0.153459
-0.148948
-0.148281
-0.145949
-0.145932
-0.148514
-0.150361
-0.169198
-0.179457
-0.283676
-0.491774
-0.550419
-0.96547
-1.09669
-2.02456
-2.11482
-2.11588
-2.11415
-2.1136
-14.6049
-10.229
-10.1682
-7.99678
-8.0056
-6.56228
-6.56694
-5.4947
-5.49628
-4.69605
-4.69896
-4.21074
-4.2131
-3.66817
-3.66793
-3.16064
-3.16078
-2.71063
-2.71094
-2.31942
-2.31976
-1.98251
-1.98284
-1.69352
-1.69388
-1.44511
-1.44586
-1.22704
-1.23018
-0.999105
-0.796621
-0.800255
-0.668651
-0.669345
-0.566305
-0.566511
-0.482992
-0.483103
-0.414655
-0.414732
-0.358537
-0.358596
-0.312597
-0.312641
-0.275282
-0.275311
-0.245517
-0.245527
-0.222946
-0.223015
-0.20935
-0.209409
-0.194592
-0.19458
-0.181319
-0.181319
-0.170114
-0.170118
-0.160944
-0.160947
-0.153658
-0.153652
-0.148244
-0.148204
-0.145311
-0.145129
-0.147731
-0.146785
-0.166677
-0.161521
-0.265689
-0.503464
-0.498817
-0.986532
-0.995488
-2.14333
-2.14735
-2.12319
-2.11565
-2.11383
-15.3518
-9.71873
-10.3784
-7.70007
-8.15448
-6.36977
-6.68278
-5.35354
-5.58251
-4.58847
-4.74991
-4.15059
-4.2801
-3.60191
-3.72817
-3.09773
-3.2134
-2.65431
-2.75638
-2.27025
-2.35877
-1.94007
-2.01627
-1.65713
-1.72273
-1.41406
-1.472
-1.2014
-1.26234
-0.99442
-0.765093
-0.813121
-0.650912
-0.680658
-0.552943
-0.575858
-0.472234
-0.490782
-0.40583
-0.421015
-0.351263
-0.363703
-0.306603
-0.316742
-0.270361
-0.278515
-0.241515
-0.247848
-0.219777
-0.224291
-0.207507
-0.211065
-0.192616
-0.195975
-0.179489
-0.182438
-0.168518
-0.170983
-0.159588
-0.161578
-0.152522
-0.154039
-0.147301
-0.148218
-0.144541
-0.144191
-0.147066
-0.14235
-0.165131
-0.139187
-0.24233
-0.52482
-0.427492
-1.02671
-0.848694
-2.30781
-2.18097
-2.12978
-2.11687
-2.11394
-16.3243
-8.95687
-10.7222
-7.27813
-8.393
-6.09342
-6.86438
-5.15011
-5.71772
-4.43473
-4.83134
-4.06135
-4.37947
-3.50352
-3.81873
-3.00501
-3.29306
-2.57159
-2.82539
-2.19811
-2.41811
-1.87787
-2.06715
-1.60377
-1.76658
-1.36838
-1.5113
-1.16253
-1.30767
-0.988203
-0.722477
-0.834403
-0.625497
-0.698274
-0.533556
-0.590269
-0.456587
-0.502599
-0.392996
-0.430691
-0.340694
-0.371586
-0.297911
-0.323096
-0.263249
-0.283516
-0.235767
-0.251533
-0.21529
-0.226407
-0.204836
-0.213588
-0.189753
-0.198149
-0.176865
-0.184216
-0.166249
-0.172385
-0.157677
-0.162632
-0.150942
-0.154737
-0.146032
-0.148395
-0.143616
-0.143102
-0.146682
-0.136795
-0.165512
-0.111667
-0.211773
-0.561342
-0.32828
-1.09795
-0.636387
-2.53569
-2.21153
-2.13481
-2.11767
-2.1139
-17.5916
-7.82985
-11.2745
-6.67396
-8.76824
-5.69437
-7.14551
-4.85552
-5.92707
-4.2139
-4.95955
-3.92867
-4.5267
-3.35756
-3.95453
-2.8683
-3.41318
-2.44991
-2.9297
-2.09215
-2.50791
-1.78653
-2.14418
-1.5254
-1.83292
-1.30107
-1.5703
-1.10392
-1.37161
-0.979856
-0.664764
-0.868532
-0.588821
-0.725397
-0.505312
-0.612299
-0.433749
-0.52064
-0.374262
-0.445471
-0.32528
-0.383642
-0.285251
-0.332839
-0.252916
-0.291223
-0.22746
-0.257282
-0.208889
-0.22981
-0.200929
-0.217392
-0.185576
-0.201487
-0.173071
-0.186982
-0.162988
-0.174594
-0.154952
-0.164325
-0.148713
-0.155905
-0.144288
-0.148828
-0.142489
-0.141819
-0.146804
-0.129663
-0.169162
-0.0779566
-0.171203
-0.62113
-0.188921
-1.21839
-0.329604
-2.85245
-2.23214
-2.1374
-2.11787
-2.11365
17.5915
7.82991
11.2745
6.674
8.76827
5.6944
7.14554
4.85555
5.9271
4.21393
4.95957
3.92869
4.52672
3.35758
3.95456
2.86833
3.4132
2.44994
2.92973
2.09218
2.50793
1.78656
2.14421
1.52543
1.83294
1.30111
1.57033
1.10395
1.37164
0.979892
0.664796
0.868566
0.588849
0.725428
0.505337
0.612327
0.43377
0.520663
0.374279
0.445491
0.325294
0.383659
0.285262
0.332853
0.252925
0.291234
0.227468
0.257291
0.208895
0.229817
0.200935
0.217399
0.185581
0.201492
0.173075
0.186986
0.162991
0.174598
0.154954
0.164328
0.148715
0.155907
0.14429
0.148829
0.142489
0.14182
0.146803
0.129663
0.16916
0.0779534
0.171197
0.62114
0.18891
1.21843
0.329595
2.85259
2.23225
2.1375
2.11796
2.11373
16.3242
8.95691
10.7222
7.27815
8.39302
6.09344
6.8644
5.15013
5.71774
4.43475
4.83136
4.06136
4.37949
3.50353
3.81875
3.00503
3.29308
2.57161
2.8254
2.19814
2.41813
1.87789
2.06717
1.6038
1.76661
1.3684
1.51133
1.16256
1.3077
0.988236
0.722507
0.834435
0.625525
0.698303
0.53358
0.590296
0.456608
0.502622
0.393014
0.430711
0.34071
0.371603
0.297924
0.32311
0.26326
0.283529
0.235777
0.251544
0.215299
0.226416
0.204843
0.213596
0.18976
0.198156
0.176872
0.184223
0.166254
0.172391
0.157683
0.162638
0.150947
0.154742
0.146036
0.1484
0.14362
0.143107
0.146685
0.136798
0.165514
0.111668
0.211773
0.561354
0.328281
1.09799
0.636402
2.53582
2.21164
2.13492
2.11777
2.11399
15.3518
9.71876
10.3784
7.70008
8.15448
6.36978
6.68279
5.35355
5.58252
4.58848
4.74992
4.1506
4.28011
3.60192
3.72818
3.09774
3.21342
2.65433
2.75639
2.27026
2.35879
1.94009
2.01629
1.65715
1.72276
1.41409
1.47202
1.20143
1.26236
0.99445
0.765122
0.81315
0.650939
0.680686
0.552967
0.575884
0.472256
0.490804
0.405849
0.421034
0.351279
0.363719
0.306617
0.316756
0.270373
0.278528
0.241525
0.247859
0.219786
0.224301
0.207516
0.211074
0.192624
0.195984
0.179497
0.182446
0.168525
0.17099
0.159594
0.161584
0.152528
0.154045
0.147307
0.148224
0.144546
0.144196
0.14707
0.142355
0.165134
0.139189
0.242333
0.524832
0.4275
1.02675
0.848724
2.30792
2.18108
2.12989
2.11698
2.11404
14.6049
10.229
10.1682
7.99679
8.00561
6.56229
6.56696
5.49472
5.4963
4.69606
4.69898
4.21075
4.21312
3.66819
3.66794
3.16065
3.1608
2.71065
2.71095
2.31944
2.31978
1.98253
1.98286
1.69354
1.69391
1.44514
1.44589
1.22706
1.23021
0.999135
0.79665
0.800285
0.668678
0.669373
0.56633
0.566535
0.483014
0.483125
0.414673
0.414751
0.358552
0.358611
0.31261
0.312654
0.275293
0.275322
0.245526
0.245537
0.222954
0.223023
0.209358
0.209417
0.194599
0.194587
0.181325
0.181325
0.170119
0.170124
0.160949
0.160952
0.153663
0.153657
0.148248
0.148208
0.145315
0.145133
0.147734
0.146788
0.166678
0.161522
0.26569
0.503473
0.498827
0.986566
0.995524
2.14343
2.14746
2.12329
2.11576
2.11394
14.0331
10.5668
10.0426
8.20639
7.91493
6.69698
6.4943
5.59301
5.44223
4.77159
4.66775
4.25134
4.16808
3.71273
3.62805
3.20332
3.12625
2.749
2.68124
2.35299
2.29432
2.0115
1.96105
1.71838
1.67505
1.46623
1.42856
1.24384
1.20744
1.00269
0.819941
0.792839
0.681131
0.662215
0.575564
0.560538
0.490425
0.478187
0.420751
0.410714
0.363568
0.355339
0.316751
0.310039
0.278705
0.273298
0.248321
0.244105
0.225201
0.22228
0.210634
0.208339
0.195963
0.193703
0.182603
0.180634
0.171245
0.169604
0.161915
0.160589
0.154485
0.153462
0.148951
0.148284
0.145951
0.145934
0.148515
0.150362
0.169197
0.179457
0.283677
0.491782
0.550429
0.965501
1.09673
2.02466
2.11492
2.11598
2.11426
2.11371
13.6001
10.7869
9.96962
8.35431
7.86141
6.79115
6.44967
5.66137
5.40905
4.82453
4.64911
4.27868
4.13799
3.74251
3.60182
3.23215
3.10377
2.77502
2.66199
2.3758
2.27787
2.03122
1.94697
1.73527
1.66285
1.4805
1.41714
1.2547
1.19143
1.00538
0.837017
0.788786
0.689877
0.657771
0.581934
0.556745
0.495519
0.475055
0.424929
0.408157
0.36702
0.353273
0.319608
0.308399
0.281068
0.272044
0.250272
0.243246
0.226792
0.221869
0.21152
0.207646
0.196904
0.193154
0.183497
0.180219
0.17204
0.169305
0.162604
0.160396
0.155079
0.153384
0.149475
0.148401
0.146469
0.146606
0.149299
0.15323
0.172033
0.193605
0.297478
0.486037
0.587742
0.955754
1.16604
1.93934
2.0859
2.10875
2.11267
2.11342
13.2799
10.9274
9.92866
8.45744
7.83109
6.85626
6.42301
5.70838
5.38923
4.86118
4.63835
4.29691
4.11818
3.76216
3.58482
3.25138
3.08936
2.79247
2.64973
2.39113
2.26741
2.04448
1.93803
1.74663
1.65508
1.49003
1.40971
1.26162
1.18035
1.00738
0.849298
0.78677
0.695956
0.655082
0.586281
0.554396
0.498981
0.473107
0.427768
0.406569
0.369368
0.351995
0.321556
0.307392
0.282686
0.271286
0.251617
0.242748
0.227905
0.221658
0.212128
0.207209
0.197546
0.192821
0.184113
0.179978
0.172594
0.169142
0.163089
0.160302
0.155503
0.153368
0.14986
0.148527
0.146877
0.147148
0.150005
0.155476
0.174728
0.204432
0.307862
0.483733
0.614368
0.952278
1.21278
1.87905
2.06179
2.10222
2.11116
2.11311
13.0538
11.0139
9.90672
8.52689
7.81483
6.89982
6.40772
5.73967
5.37787
4.88572
4.63242
4.30871
4.10553
3.77474
3.57413
3.26382
3.0804
2.80381
2.64215
2.40111
2.26097
2.05312
1.93253
1.75403
1.65028
1.49622
1.40502
1.26589
1.17296
1.00881
0.857769
0.785896
0.700045
0.653515
0.589153
0.552988
0.50126
0.471935
0.429636
0.405615
0.370915
0.351232
0.322842
0.306796
0.283757
0.270846
0.252515
0.242474
0.228657
0.22156
0.212532
0.206943
0.197969
0.192626
0.184525
0.179846
0.172967
0.169059
0.163419
0.160263
0.155795
0.153381
0.150131
0.148637
0.14718
0.147558
0.150577
0.15714
0.176976
0.212279
0.315315
0.483203
0.632668
0.951859
1.24326
1.83806
2.04333
2.09691
2.10988
2.11283
12.9095
11.0632
9.89582
8.56975
7.8068
6.92657
6.39956
5.7588
5.37182
4.90078
4.62939
4.31576
4.09806
3.78219
3.56791
3.27125
3.07524
2.81061
2.63781
2.40711
2.25728
2.05831
1.92938
1.75848
1.64753
1.49991
1.40227
1.26834
1.16845
1.00972
0.863085
0.785591
0.702567
0.652667
0.590899
0.552204
0.502641
0.47128
0.430768
0.405082
0.371854
0.350807
0.323624
0.306467
0.284411
0.270607
0.253065
0.242333
0.229122
0.221521
0.212779
0.206793
0.198226
0.192521
0.184778
0.179778
0.173198
0.169021
0.163624
0.160251
0.155978
0.1534
0.150303
0.148718
0.147381
0.147834
0.150978
0.158244
0.178574
0.217386
0.320141
0.483375
0.644141
0.952511
1.26155
1.8126
2.03088
2.09317
2.10896
2.11261
12.8392
11.0854
9.8914
8.59021
7.80358
6.93931
6.39606
5.76789
5.36922
4.90795
4.62813
4.31906
4.0946
3.78565
3.56505
3.27472
3.07289
2.8138
2.63583
2.40992
2.25561
2.06075
1.92796
1.76056
1.64628
1.50164
1.401
1.26945
1.16631
1.01017
0.865648
0.785516
0.703771
0.652298
0.591725
0.551856
0.503293
0.470988
0.431302
0.404845
0.372297
0.350619
0.323993
0.306322
0.28472
0.270504
0.253326
0.242275
0.229344
0.221509
0.212897
0.206725
0.198348
0.192475
0.184898
0.17975
0.173308
0.169007
0.163722
0.160249
0.156067
0.153413
0.150388
0.148761
0.147481
0.147972
0.151185
0.158794
0.179401
0.219903
0.322515
0.48361
0.649674
0.953097
1.27013
1.8004
2.02463
2.09125
2.10848
2.1125
-13.3056
-11.6637
-10.6319
-9.65333
-9.12887
-8.64604
-8.38009
-8.12173
-7.97865
-7.83779
-7.74089
-7.6129
-7.52286
-7.40572
-7.32411
-7.21887
-7.1458
-7.05183
-6.98674
-6.90324
-6.84556
-6.77179
-6.72093
-6.65602
-6.61122
-6.55384
-6.51349
-6.46014
-6.41784
-6.35325
-6.29318
-6.25982
-6.22576
-6.20436
-6.17928
-6.16289
-6.1431
-6.1301
-6.11438
-6.10408
-6.09169
-6.08363
-6.07401
-6.06781
-6.06049
-6.05584
-6.05046
-6.04714
-6.04345
-6.04134
-6.03919
-6.0378
-6.03612
-6.03514
-6.0342
-6.03388
-6.03398
-6.03457
-6.03614
-6.03805
-6.04179
-6.04577
-6.05303
-6.06054
-6.07413
-6.08857
-6.11555
-6.14725
-6.21203
-6.30595
-6.51795
-6.81183
-7.07436
-7.51125
-7.92841
-8.59202
-8.87142
-8.95434
-8.9758
-8.98079
-13.3713
-11.6393
-10.6298
-9.63519
-9.12724
-8.63739
-8.37982
-8.11714
-7.97858
-7.83605
-7.74215
-7.6114
-7.52396
-7.40431
-7.32507
-7.2176
-7.14665
-7.05069
-6.98748
-6.90222
-6.84621
-6.77088
-6.7215
-6.65522
-6.61172
-6.55317
-6.51402
-6.4597
-6.41874
-6.35307
-6.29211
-6.25985
-6.22526
-6.20451
-6.17894
-6.16303
-6.14283
-6.13022
-6.11417
-6.10417
-6.09152
-6.0837
-6.07387
-6.06785
-6.06038
-6.05587
-6.05037
-6.04715
-6.04339
-6.04133
-6.03915
-6.03781
-6.03609
-6.03514
-6.03417
-6.03386
-6.03396
-6.03453
-6.03612
-6.03797
-6.04178
-6.04563
-6.05302
-6.06029
-6.07409
-6.08806
-6.11536
-6.14592
-6.21086
-6.30123
-6.51467
-6.81308
-7.06738
-7.51203
-7.91854
-8.60738
-8.87928
-8.9568
-8.97645
-8.98098
-13.5064
-11.5861
-10.6272
-9.59763
-9.12491
-8.61948
-8.37977
-8.10761
-7.9787
-7.83238
-7.74491
-7.60819
-7.52637
-7.40131
-7.32717
-7.21488
-7.14851
-7.04825
-6.98912
-6.90004
-6.84764
-6.76894
-6.72275
-6.65352
-6.61284
-6.55172
-6.51515
-6.45873
-6.42063
-6.35271
-6.2899
-6.25998
-6.22421
-6.20486
-6.17821
-6.16334
-6.14227
-6.13047
-6.11371
-6.10437
-6.09116
-6.08384
-6.07359
-6.06796
-6.06016
-6.05594
-6.0502
-6.04718
-6.04326
-6.04134
-6.03909
-6.03783
-6.03602
-6.03513
-6.03411
-6.03382
-6.03391
-6.03445
-6.03609
-6.03781
-6.04176
-6.04535
-6.05301
-6.05978
-6.07404
-6.08702
-6.11503
-6.14321
-6.20867
-6.29157
-6.50799
-6.81609
-7.05278
-7.51434
-7.89738
-8.63942
-8.8949
-8.96156
-8.9777
-8.98135
-13.7183
-11.4945
-10.6274
-9.53782
-9.12392
-8.59096
-8.38104
-8.09237
-7.97953
-7.82639
-7.74966
-7.6028
-7.53053
-7.39628
-7.33082
-7.21034
-7.15174
-7.04417
-6.99197
-6.89639
-6.85014
-6.7657
-6.72493
-6.65067
-6.61478
-6.54929
-6.51709
-6.45703
-6.42372
-6.35215
-6.28638
-6.26035
-6.2225
-6.20551
-6.17702
-6.16391
-6.14133
-6.13092
-6.11297
-6.10472
-6.09056
-6.08411
-6.07312
-6.06815
-6.05979
-6.05606
-6.04991
-6.04725
-6.04304
-6.04135
-6.03898
-6.03787
-6.03592
-6.03513
-6.03403
-6.03376
-6.03385
-6.03431
-6.03605
-6.03756
-6.04175
-6.0449
-6.05302
-6.05896
-6.07404
-6.08537
-6.11469
-6.13901
-6.20577
-6.27657
-6.49763
-6.82194
-7.02918
-7.51978
-7.86185
-8.69091
-8.91807
-8.96833
-8.97945
-8.98186
-14.0193
-11.3486
-10.6366
-9.45102
-9.12772
-8.54955
-8.38549
-8.07012
-7.982
-7.81736
-7.75723
-7.59444
-7.53718
-7.38852
-7.33668
-7.20333
-7.15694
-7.03789
-6.99656
-6.89078
-6.85417
-6.76073
-6.72845
-6.6463
-6.6179
-6.54554
-6.52014
-6.45427
-6.42834
-6.35135
-6.28128
-6.26119
-6.21997
-6.20662
-6.17521
-6.16486
-6.13992
-6.13168
-6.11183
-6.10531
-6.08966
-6.08455
-6.0724
-6.06847
-6.05924
-6.05629
-6.04949
-6.04738
-6.04272
-6.04139
-6.03881
-6.03794
-6.03577
-6.03514
-6.0339
-6.03369
-6.03376
-6.03412
-6.03601
-6.0372
-6.04178
-6.04425
-6.05313
-6.05777
-6.07419
-6.08299
-6.11454
-6.1331
-6.20271
-6.25556
-6.48314
-6.83248
-6.99424
-7.53115
-7.80684
-8.76647
-8.94831
-8.97667
-8.98154
-8.98246
-14.4271
-11.1244
-10.6647
-9.32976
-9.14174
-8.4916
-8.39602
-8.0388
-7.98755
-7.80416
-7.76893
-7.58188
-7.5475
-7.3769
-7.34582
-7.19286
-7.16506
-7.02851
-7.00374
-6.88242
-6.86048
-6.75331
-6.73398
-6.63979
-6.62279
-6.53992
-6.52481
-6.44991
-6.435
-6.35029
-6.27418
-6.26289
-6.21632
-6.20846
-6.17257
-6.16639
-6.13783
-6.13291
-6.11017
-6.10627
-6.08834
-6.08528
-6.07137
-6.06901
-6.05843
-6.05667
-6.04888
-6.04761
-6.04227
-6.04148
-6.03858
-6.03807
-6.03555
-6.03517
-6.03373
-6.0336
-6.03366
-6.03387
-6.03601
-6.0367
-6.04189
-6.04334
-6.05339
-6.05611
-6.07463
-6.07971
-6.11492
-6.12515
-6.20032
-6.22755
-6.46377
-6.85052
-6.94429
-7.55297
-7.72446
-8.87314
-8.98468
-8.98594
-8.98378
-8.98309
-14.9671
-10.7866
-10.7279
-9.16265
-9.17428
-8.41149
-8.41703
-7.99527
-7.9984
-7.78506
-7.78672
-7.56323
-7.56329
-7.35971
-7.35985
-7.17739
-7.17754
-7.01467
-7.0148
-6.87008
-6.8702
-6.74239
-6.7425
-6.63019
-6.63032
-6.53158
-6.53189
-6.44316
-6.44446
-6.34889
-6.26449
-6.26599
-6.21113
-6.21142
-6.16874
-6.16883
-6.13481
-6.13486
-6.10776
-6.10779
-6.08642
-6.08645
-6.06987
-6.06988
-6.05727
-6.05729
-6.048
-6.04801
-6.04163
-6.04165
-6.03825
-6.03827
-6.03525
-6.03524
-6.03351
-6.0335
-6.03356
-6.03354
-6.03605
-6.03602
-6.04215
-6.04208
-6.05395
-6.05381
-6.07561
-6.07521
-6.11628
-6.1146
-6.19984
-6.19118
-6.43838
-6.88027
-6.87374
-7.59227
-7.60299
-9.02129
-9.02546
-8.99534
-8.98595
-8.98369
-15.6743
-10.2838
-10.8514
-8.93249
-9.23782
-8.30067
-8.45516
-7.93475
-8.01793
-7.75738
-7.81353
-7.53565
-7.58724
-7.33439
-7.38119
-7.15463
-7.19655
-6.99431
-7.03165
-6.85196
-6.88505
-6.72636
-6.75553
-6.6161
-6.64181
-6.51929
-6.54252
-6.43281
-6.4578
-6.34704
-6.25137
-6.27136
-6.20374
-6.2161
-6.16321
-6.17263
-6.13043
-6.13789
-6.10426
-6.11017
-6.08366
-6.08828
-6.0677
-6.07126
-6.05561
-6.05828
-6.04675
-6.04866
-6.04074
-6.04196
-6.03779
-6.03859
-6.03482
-6.03537
-6.03321
-6.03339
-6.03345
-6.0331
-6.0362
-6.03509
-6.04265
-6.04035
-6.05499
-6.05063
-6.07747
-6.06905
-6.11936
-6.10056
-6.20311
-6.14456
-6.4052
-6.92795
-6.77418
-7.65989
-7.42521
-9.22599
-9.0676
-9.0039
-8.98784
-8.98419
-16.5973
-9.54285
-11.0743
-8.61338
-9.35108
-8.14619
-8.5203
-7.85011
-8.05123
-7.71704
-7.85372
-7.4949
-7.62339
-7.29709
-7.41348
-7.12114
-7.22534
-6.96438
-7.0572
-6.82534
-6.90758
-6.70281
-6.77531
-6.5954
-6.65924
-6.50117
-6.55848
-6.41707
-6.47658
-6.34459
-6.23363
-6.28024
-6.19315
-6.2234
-6.15518
-6.1785
-6.12406
-6.14257
-6.09918
-6.11385
-6.07964
-6.09113
-6.06457
-6.07341
-6.05321
-6.05984
-6.04497
-6.0497
-6.03948
-6.04248
-6.03712
-6.03909
-6.03422
-6.03562
-6.03282
-6.03329
-6.03336
-6.03253
-6.03651
-6.03381
-6.04354
-6.03793
-6.05678
-6.0462
-6.08075
-6.06054
-6.12519
-6.08167
-6.21282
-6.08518
-6.36153
-7.00269
-6.63304
-7.77231
-7.16602
-9.50906
-9.10596
-9.01056
-8.98922
-8.98454
-17.8025
-8.45847
-11.4571
-8.16636
-9.54208
-7.92859
-8.62724
-7.73064
-8.10596
-7.65789
-7.91375
-7.43468
-7.67774
-7.2421
-7.46213
-7.07181
-7.26875
-6.92031
-7.09574
-6.78615
-6.9416
-6.66818
-6.80519
-6.56496
-6.68554
-6.47444
-6.58239
-6.3933
-6.50301
-6.34131
-6.20959
-6.29446
-6.17787
-6.23464
-6.1435
-6.18749
-6.11477
-6.14973
-6.09179
-6.11949
-6.0738
-6.09549
-6.06003
-6.07671
-6.04974
-6.06226
-6.04239
-6.05134
-6.03768
-6.04333
-6.03615
-6.03986
-6.03336
-6.03602
-6.0323
-6.0332
-6.03329
-6.03175
-6.03708
-6.03202
-6.04504
-6.03453
-6.05974
-6.03997
-6.0862
-6.04863
-6.13535
-6.05579
-6.23288
-6.00964
-6.30326
-7.11786
-6.43153
-7.95454
-6.78884
-9.90197
-9.13199
-9.01424
-8.98994
-8.9847
)
;

boundaryField
{
    F1_1
    {
        type            calculated;
        value           nonuniform List<scalar> 
80
(
18.4855
7.80894
11.6972
7.89182
9.66081
7.77265
8.69333
7.59747
8.14219
7.44514
7.77754
7.3875
7.6407
7.19748
7.45275
7.03234
7.27108
6.88607
7.1032
6.75658
6.95109
6.64269
6.8152
6.54303
6.69541
6.45553
6.59218
6.3767
6.51485
6.3374
6.19476
6.3014
6.16796
6.24009
6.13586
6.19187
6.10871
6.15323
6.08696
6.12225
6.07
6.09763
6.05708
6.07833
6.0475
6.06343
6.04073
6.05212
6.03652
6.0437
6.03549
6.0402
6.03279
6.03617
6.03195
6.03309
6.03324
6.03126
6.03743
6.03095
6.04596
6.03251
6.06156
6.03629
6.08957
6.04166
6.14171
6.04077
6.24603
5.96733
6.2698
7.18738
6.3128
8.06667
6.56521
10.1302
9.14036
9.01497
8.98986
8.98448
)
;
    }
    F1_2
    {
        type            calculated;
        value           nonuniform List<scalar> 
80
(
-18.309
-7.15834
-11.614
-6.31779
-8.99709
-5.45835
-7.31602
-4.6811
-6.05404
-4.08359
-5.03778
-3.84932
-4.61459
-3.27038
-4.03598
-2.78683
-3.48536
-2.37746
-2.99245
-2.02908
-2.56195
-1.73218
-2.19054
-1.47877
-1.87283
-1.26098
-1.60571
-1.06871
-1.40904
-0.975062
-0.631548
-0.889469
-0.567129
-0.741815
-0.488553
-0.625602
-0.420188
-0.531528
-0.363138
-0.454391
-0.316129
-0.390923
-0.277738
-0.338728
-0.246789
-0.295888
-0.222544
-0.260775
-0.205119
-0.231899
-0.198605
-0.219676
-0.183095
-0.203504
-0.170823
-0.18866