/*--------------------------------*- C++ -*----------------------------------*\
| =========                 |                                                 |
| \\      /  F ield         | OpenFOAM: The Open Source CFD Toolbox           |
|  \\    /   O peration     | Version:  5.x                                   |
|   \\  /    A nd           | Web:      www.OpenFOAM.org                      |
|    \\/     M anipulation  |                                                 |
\*---------------------------------------------------------------------------*/
FoamFile
{
    version     2.0;
    format      ascii;
    class       volScalarField;
    location    "1.9";
    object      gradTx;
}
// * * * * * * * * * * * * * * * * * * * * * * * * * * * * * * * * * * * * * //

dimensions      [0 -1 0 1 0 0 0];

internalField   nonuniform List<scalar> 
3200
(
45.79
3.60916
1.59443
1.48846
0.781558
0.739143
0.443949
0.425151
0.277849
0.267233
0.161002
0.157042
0.169747
0.16985
0.162195
0.161369
0.148949
0.147869
0.134266
0.133135
0.11956
0.11846
0.105605
0.104599
0.0932303
0.092444
0.0845265
0.0846016
0.0903743
0.157558
0.0794233
0.0539047
0.0521795
0.0409337
0.0401271
0.0324909
0.031917
0.0258693
0.0254075
0.0204024
0.0200194
0.0158482
0.0155294
0.0120606
0.0117945
0.00888961
0.00866212
0.00612011
0.00590995
0.00337546
0.0032519
0.0028378
0.00277141
0.00164618
0.00153391
-3.2727e-05
-0.000188768
-0.00235118
-0.00257579
-0.00576971
-0.00611829
-0.0112179
-0.0118088
-0.0207095
-0.0218418
-0.0394975
-0.0421489
-0.0850436
-0.0939311
-0.239231
-0.617488
-0.43592
-0.680563
-0.711907
-1.26747
-1.24189
-0.0557631
-0.00752493
-0.00152456
-52.9337
48.4115
3.01872
1.52637
1.30886
0.743068
0.652511
0.415379
0.375181
0.257151
0.234594
0.151148
0.142694
0.151252
0.151367
0.145409
0.143669
0.133871
0.131584
0.12082
0.118423
0.107675
0.105343
0.0951667
0.0930354
0.0840577
0.0824071
0.0763242
0.0766412
0.0839874
0.131362
0.0737193
0.0502721
0.0464291
0.0373071
0.0355778
0.0294933
0.0282731
0.0234722
0.0224921
0.0185226
0.01771
0.0144026
0.0137262
0.0109755
0.010411
0.00810658
0.00762378
0.00560643
0.00516218
0.00317596
0.00291336
0.00255479
0.00241188
0.00152179
0.00128368
4.03162e-05
-0.000291132
-0.00201017
-0.00248772
-0.00502985
-0.00577175
-0.00983763
-0.0110978
-0.018219
-0.0206441
-0.0348838
-0.0406282
-0.0759724
-0.095818
-0.227535
-0.517875
-0.414571
-0.601166
-0.665697
-1.08435
-1.03079
-0.121774
-0.0208853
-0.0043839
-54.7311
51.0168
2.50423
1.40733
1.1432
0.685572
0.571747
0.378934
0.328326
0.232636
0.204393
0.138296
0.127666
0.133097
0.133129
0.128457
0.126292
0.118494
0.11564
0.107041
0.104047
0.0954541
0.0925408
0.0844073
0.0817468
0.0745927
0.0725481
0.0678661
0.0683998
0.0759991
0.109366
0.0666472
0.0458553
0.0408898
0.0333849
0.0312029
0.0263015
0.0247728
0.0209229
0.0196968
0.0165172
0.0155011
0.0128525
0.0120067
0.00980371
0.00909775
0.00725135
0.00664749
0.00503036
0.00447661
0.00290787
0.00257898
0.00226349
0.00208259
0.00137164
0.00107397
7.71574e-05
-0.000337722
-0.00171858
-0.00231682
-0.0043618
-0.00529204
-0.00856947
-0.0101522
-0.0159161
-0.0189736
-0.0306098
-0.0379233
-0.067521
-0.09323
-0.209494
-0.434008
-0.381626
-0.526651
-0.605322
-0.92013
-0.853918
-0.155459
-0.0308701
-0.00672727
-56.5283
53.6019
2.05369
1.25499
0.985291
0.614328
0.494146
0.336803
0.283278
0.205424
0.175707
0.123227
0.111998
0.115158
0.11508
0.111406
0.109143
0.10292
0.0999281
0.0930397
0.0898966
0.0830074
0.0799488
0.0734299
0.0706388
0.0649239
0.0627951
0.0591996
0.0598759
0.0669801
0.0904141
0.0586978
0.0408054
0.0354521
0.0292499
0.026937
0.0229752
0.0213658
0.0182692
0.0169803
0.014426
0.0133581
0.011231
0.0103422
0.00857273
0.00783081
0.00634703
0.0057123
0.00441225
0.00383209
0.0025905
0.00224438
0.00196713
0.0017748
0.00120524
0.000892505
9.09672e-05
-0.000345435
-0.00145808
-0.00208786
-0.00373816
-0.00471828
-0.00736894
-0.00903923
-0.0137213
-0.0169599
-0.0265085
-0.0343269
-0.059225
-0.0870197
-0.187123
-0.361217
-0.340784
-0.45479
-0.535501
-0.771147
-0.702332
-0.16619
-0.0368372
-0.00832569
-58.3254
56.1662
1.6559
1.08149
0.831435
0.533057
0.418034
0.290523
0.239204
0.176289
0.147934
0.106509
0.0957546
0.0973508
0.0971769
0.0943001
0.0921536
0.0872194
0.0843731
0.0788897
0.0758972
0.0704087
0.0674963
0.0623043
0.0596485
0.0551122
0.0531013
0.0503625
0.0510951
0.0573079
0.0736676
0.0501954
0.0352539
0.0300483
0.0249595
0.0227373
0.0195551
0.0180187
0.0155437
0.0143149
0.0122758
0.0112581
0.00956051
0.00871355
0.00730123
0.00659413
0.00540928
0.00480424
0.00376577
0.00321443
0.00223761
0.00190728
0.00166763
0.00148236
0.00102882
0.000730832
9.03905e-05
-0.000325887
-0.00121671
-0.00181789
-0.00314117
-0.00407754
-0.00620749
-0.00780563
-0.0115842
-0.0146936
-0.0224764
-0.0300473
-0.0508131
-0.0779169
-0.161791
-0.296207
-0.294565
-0.384261
-0.459482
-0.634342
-0.569439
-0.160649
-0.0387707
-0.00905631
-60.1222
58.7108
1.30067
0.895022
0.679518
0.444455
0.342425
0.241196
0.195596
0.145774
0.120684
0.0885654
0.0790185
0.0796153
0.0793827
0.0771662
0.075277
0.0714361
0.0689249
0.0646413
0.0619987
0.0577079
0.055136
0.051078
0.0487342
0.0451999
0.0434369
0.0413867
0.0420952
0.0472298
0.0585142
0.0413516
0.0293129
0.0246398
0.0205545
0.0185761
0.0160694
0.0147094
0.0127687
0.0116824
0.0100853
0.00918586
0.00785656
0.00710804
0.00600204
0.00537707
0.00444879
0.00391395
0.00310018
0.00261413
0.0018591
0.00156679
0.0013662
0.00120089
0.000846395
0.000583066
8.10365e-05
-0.000287176
-0.000986761
-0.00151888
-0.00255951
-0.00338892
-0.00506719
-0.0064847
-0.00947371
-0.0122403
-0.0184527
-0.0252398
-0.0421475
-0.0665432
-0.134438
-0.236638
-0.244691
-0.31431
-0.379478
-0.507127
-0.450301
-0.143632
-0.0370176
-0.00889429
-61.9187
61.2383
0.978787
0.700954
0.528386
0.350535
0.266787
0.189647
0.152159
0.11427
0.093717
0.0697195
0.0618774
0.0619139
0.061669
0.0600203
0.0584795
0.0556007
0.0535486
0.0503282
0.0481672
0.0449393
0.0428358
0.0397838
0.037868
0.0352172
0.0337844
0.0323007
0.0329183
0.0369056
0.0444986
0.0323028
0.0230772
0.0192079
0.0160653
0.0144361
0.0125381
0.0114235
0.00995993
0.00907066
0.00786728
0.00713119
0.00612982
0.00551727
0.00468404
0.00417255
0.00347295
0.00303517
0.00242179
0.00202487
0.00146231
0.00122283
0.00106355
0.000927184
0.0006605
0.000445021
6.64869e-05
-0.000235061
-0.000763376
-0.0011994
-0.00198618
-0.00266623
-0.00393723
-0.00510081
-0.00737205
-0.00964913
-0.0144059
-0.0200273
-0.0331824
-0.0534294
-0.105713
-0.180835
-0.192355
-0.244538
-0.296974
-0.387291
-0.341156
-0.118613
-0.0321251
-0.00789735
-63.7149
63.7519
0.681898
0.502679
0.37747
0.252852
0.190886
0.136512
0.108739
0.0820731
0.0668884
0.0502282
0.0444218
0.0442245
0.0440121
0.0428708
0.0417364
0.039733
0.0382198
0.0359734
0.034379
0.0321263
0.0305742
0.0284446
0.0270316
0.0251861
0.0241341
0.0231309
0.0236067
0.0264372
0.0312744
0.0231351
0.0166273
0.0137468
0.0115157
0.0103071
0.00897557
0.0081519
0.0071284
0.00647177
0.00563089
0.00508747
0.00438787
0.00393566
0.0033535
0.00297587
0.00248693
0.00216371
0.00173499
0.00144245
0.00105276
0.000875819
0.000760129
0.000658835
0.000472697
0.000313632
4.89814e-05
-0.000173758
-0.000543577
-0.000865788
-0.00141703
-0.00191982
-0.00281148
-0.00367255
-0.00527009
-0.00695869
-0.0103244
-0.0145135
-0.0239335
-0.0390341
-0.0760743
-0.127576
-0.138393
-0.174755
-0.212955
-0.272913
-0.239068
-0.0881506
-0.0247422
-0.00618831
-65.5108
66.2553
0.402348
0.302246
0.226532
0.152665
0.114682
0.0823149
0.0652751
0.0494181
0.0401195
0.0303032
0.0267423
0.0265363
0.026393
0.0257216
0.0250286
0.0238464
0.022921
0.0215932
0.0206177
0.0192857
0.0183362
0.0170771
0.0162129
0.0151235
0.0144821
0.0139019
0.014201
0.0158886
0.0185693
0.0139021
0.0100322
0.00825983
0.00692515
0.00618296
0.00539288
0.0048884
0.00428239
0.00388044
0.00338283
0.00305023
0.00263627
0.00235951
0.00201501
0.00178389
0.0014945
0.00129666
0.00104291
0.000864073
0.000634821
0.000526465
0.000456245
0.000393987
0.000283912
0.000186563
2.98882e-05
-0.000106488
-0.000325605
-0.000522944
-0.00084976
-0.0011578
-0.0016869
-0.00221477
-0.00316443
-0.00420112
-0.00621002
-0.00879035
-0.0144574
-0.0237611
-0.0458569
-0.0759448
-0.083408
-0.104898
-0.128065
-0.162287
-0.141663
-0.0541884
-0.0155652
-0.00393822
-67.3066
68.7525
0.132995
0.10084
0.0755217
0.0510442
0.0382544
0.027505
0.0217647
0.0165011
0.0133716
0.0101283
0.00892896
0.00884582
0.00879535
0.00857368
0.00834071
0.00794982
0.00763858
0.00719917
0.00687104
0.00643016
0.00611072
0.00569402
0.00540335
0.00504308
0.00482769
0.00463786
0.00473978
0.00530016
0.00615805
0.0046372
0.00335321
0.00275532
0.00231097
0.00206082
0.00179885
0.00162904
0.00142832
0.00129307
0.0011283
0.00101639
0.000879325
0.000786206
0.000672138
0.000594373
0.000498544
0.000431974
0.000347944
0.000287807
0.000212121
0.000175653
0.000152108
0.000131116
9.46796e-05
6.1926e-05
1.00366e-05
-3.58579e-05
-0.000108458
-0.000174878
-0.000283196
-0.000386894
-0.000562335
-0.000740093
-0.00105527
-0.00140462
-0.00207271
-0.00294373
-0.00483579
-0.0079764
-0.0153197
-0.0252182
-0.0278622
-0.0349747
-0.0427332
-0.0538551
-0.0469311
-0.0182721
-0.00530848
-0.00135089
-69.1022
68.8044
0.146573
0.124776
0.104378
0.0826401
0.0703808
0.0586157
0.0513316
0.04302
0.0370385
0.0294916
0.0267036
0.026669
0.0264705
0.025546
0.0246018
0.0230499
0.0218483
0.0201984
0.0190075
0.017463
0.0163799
0.0150137
0.0140819
0.0129507
0.0122641
0.0116172
0.0117459
0.0129719
0.0149754
0.0112385
0.00811044
0.00666457
0.00560682
0.00502175
0.00442352
0.00404256
0.0036008
0.00330633
0.00295122
0.00271058
0.00241593
0.00221419
0.00196428
0.00179031
0.00157018
0.00141078
0.0011995
0.00103769
0.000823577
0.000739858
0.000727362
0.000712208
0.000672454
0.000635992
0.000579589
0.000536937
0.00047939
0.000437683
0.000382872
0.000341604
0.000283957
0.000232225
0.0001451
3.81845e-05
-0.000186587
-0.000546283
-0.00141875
-0.00307974
-0.00717444
-0.0131575
-0.0163958
-0.0234781
-0.0310567
-0.0422049
-0.0375406
-0.014666
-0.0042652
-0.00108567
-69.789
66.4107
0.442991
0.374272
0.313188
0.247542
0.211123
0.175668
0.154036
0.128967
0.111179
0.0882849
0.0800011
0.0800138
0.0794409
0.0766391
0.0738302
0.0691362
0.0655631
0.0605772
0.0570369
0.0523709
0.0491514
0.045024
0.0422539
0.0388345
0.0367911
0.0348208
0.0351941
0.0388851
0.0451562
0.0336916
0.0242643
0.0199784
0.0168018
0.015066
0.0132621
0.0121303
0.0107967
0.00992157
0.00884924
0.00813406
0.00724422
0.00664464
0.00588993
0.00537292
0.00470823
0.00423454
0.00359661
0.00311525
0.00246559
0.0022168
0.00218227
0.00213769
0.00201731
0.00190885
0.00173829
0.00161148
0.00143761
0.00131364
0.00114814
0.00102553
0.00085169
0.000698144
0.000436141
0.000119317
-0.000554317
-0.00161829
-0.00422465
-0.00914181
-0.0214477
-0.0395823
-0.0490333
-0.0704143
-0.093027
-0.127247
-0.11335
-0.0434989
-0.0125067
-0.00316505
-69.3669
64.0098
0.749312
0.623463
0.522183
0.411276
0.351829
0.29217
0.25688
0.214624
0.185524
0.146495
0.132968
0.133383
0.132502
0.127734
0.123135
0.115179
0.109336
0.100899
0.0951125
0.087222
0.0819603
0.0749811
0.0704529
0.0646642
0.061316
0.0579316
0.0585107
0.0646962
0.0760478
0.0560643
0.0402134
0.0332487
0.0279398
0.0251136
0.0220743
0.0202266
0.0179747
0.0165452
0.0147335
0.013565
0.0120613
0.0110817
0.00980647
0.00896181
0.007839
0.0070652
0.00598777
0.00519981
0.0040918
0.00368539
0.0036378
0.00356643
0.00336192
0.00318442
0.00289547
0.00268812
0.00239403
0.00219146
0.00191188
0.00171168
0.00141878
0.00116856
0.000729527
0.00021487
-0.000906288
-0.00262845
-0.00693795
-0.0149081
-0.0354874
-0.0663537
-0.0811931
-0.117301
-0.154532
-0.214213
-0.191397
-0.0707772
-0.0198821
-0.00497346
-68.9447
61.5972
1.07241
0.871674
0.731567
0.572956
0.492546
0.407699
0.360005
0.299758
0.260269
0.203686
0.185379
0.186806
0.18572
0.178823
0.172576
0.161139
0.153214
0.141117
0.133274
0.12197
0.11484
0.104842
0.098704
0.0903979
0.085844
0.0808855
0.0816046
0.0903026
0.108195
0.0782734
0.0558086
0.0464539
0.0389795
0.0351707
0.0308399
0.0283401
0.0251208
0.023185
0.0205927
0.0190101
0.0168582
0.0155313
0.0137065
0.0125625
0.0109564
0.00990856
0.00836785
0.00729764
0.00569033
0.00513999
0.00509467
0.00500088
0.00470584
0.00446484
0.00404976
0.0037686
0.00334715
0.0030727
0.00267275
0.00240185
0.00198445
0.00164681
0.00102619
0.00033493
-0.00123398
-0.00353486
-0.00950454
-0.0201697
-0.049115
-0.0937654
-0.112501
-0.164141
-0.215138
-0.304477
-0.273354
-0.095266
-0.0258179
-0.00634719
-68.5224
59.1684
1.41955
1.11746
0.941697
0.731512
0.633445
0.521745
0.463636
0.384064
0.335701
0.259349
0.237002
0.240332
0.239173
0.22989
0.222228
0.206961
0.197262
0.181168
0.171577
0.156553
0.147836
0.13455
0.127044
0.115984
0.11039
0.103614
0.104382
0.115544
0.142259
0.100187
0.0708813
0.0595857
0.0498742
0.0452502
0.0395335
0.0364836
0.0322167
0.0298522
0.0264127
0.024479
0.0216232
0.0200018
0.0175801
0.0161825
0.0140523
0.0127724
0.0107298
0.00941759
0.00724711
0.0065749
0.00655401
0.00644393
0.00604815
0.00575277
0.00519922
0.00485521
0.00429487
0.00395942
0.00342891
0.0030983
0.00254732
0.00213675
0.00132604
0.000490443
-0.00153205
-0.00429417
-0.0118829
-0.0246995
-0.0621136
-0.122212
-0.142492
-0.211005
-0.274209
-0.399557
-0.361188
-0.115408
-0.0297546
-0.0071488
-68.0999
56.7198
1.79851
1.3582
1.15321
0.885588
0.774894
0.633653
0.56813
0.467126
0.412256
0.312855
0.287602
0.294041
0.292954
0.280895
0.272187
0.252564
0.241569
0.220962
0.2101
0.190887
0.181019
0.164031
0.155529
0.141354
0.134987
0.126044
0.126746
0.140166
0.179078
0.121593
0.0852362
0.0726563
0.0605674
0.0553752
0.0481222
0.0446775
0.0392381
0.0365639
0.032174
0.0299863
0.02634
0.0245056
0.0214141
0.019833
0.0171153
0.0156678
0.0130635
0.0115727
0.00874463
0.00798441
0.0080176
0.0078991
0.00738714
0.00705171
0.00634097
0.00595112
0.00523421
0.00485456
0.00417764
0.00380411
0.00310508
0.00264318
0.00162733
0.000693873
-0.00180011
-0.00485997
-0.0140516
-0.0282448
-0.0742038
-0.15225
-0.170552
-0.258079
-0.330791
-0.501183
-0.457316
-0.129145
-0.0311695
-0.0072795
-67.6772
54.2484
2.21765
1.58954
1.36724
1.03339
0.917572
0.742539
0.674048
0.548347
0.490596
0.363399
0.336937
0.348056
0.347178
0.331771
0.322587
0.297826
0.286264
0.26037
0.248961
0.224852
0.214489
0.193175
0.184245
0.166415
0.15969
0.148092
0.148605
0.163773
0.219759
0.142157
0.098643
0.08571
0.070987
0.0655849
0.0565606
0.0529532
0.0461507
0.0433461
0.0378488
0.0355535
0.0309859
0.0290612
0.025189
0.0235303
0.0201287
0.0186107
0.0153537
0.0137823
0.0101602
0.00936295
0.00948808
0.00937085
0.00871992
0.00836652
0.00747069
0.00706092
0.00616082
0.00576231
0.0049149
0.00452359
0.00365396
0.00317236
0.00192588
0.000960259
-0.00204501
-0.00517996
-0.0160197
-0.0305186
-0.0850093
-0.184676
-0.195841
-0.305744
-0.383464
-0.611375
-0.564813
-0.133673
-0.0296211
-0.00669276
-67.2543
51.753
2.68584
1.80464
1.58574
1.17249
1.06263
0.847169
0.782262
0.626857
0.57172
0.409918
0.384774
0.402554
0.401989
0.382402
0.373616
0.342565
0.331538
0.299203
0.288335
0.25827
0.248403
0.221829
0.213321
0.191036
0.184591
0.169659
0.169882
0.185753
0.26579
0.161363
0.11083
0.0988383
0.0810365
0.0759422
0.0647848
0.061359
0.0529056
0.0502381
0.0433975
0.0412136
0.035528
0.0336966
0.028877
0.027299
0.0230683
0.0216246
0.0175777
0.0160751
0.0114638
0.0107055
0.0109692
0.0108649
0.0100418
0.00970399
0.00858191
0.00819125
0.00706823
0.00668887
0.00563472
0.00526298
0.00418802
0.00373282
0.00221383
0.00130885
-0.00228412
-0.00519115
-0.0178407
-0.031192
-0.0940063
-0.220639
-0.217178
-0.354693
-0.430126
-0.732542
-0.687689
-0.125116
-0.0248281
-0.00540838
-66.8313
49.2343
3.21233
1.99327
1.81202
1.29946
1.21191
0.945784
0.894102
0.701361
0.657117
0.450975
0.430898
0.457792
0.457565
0.432607
0.42554
0.386509
0.37767
0.337183
0.328483
0.290886
0.282989
0.249765
0.242952
0.215027
0.209837
0.190624
0.190537
0.20517
0.319207
0.178417
0.121479
0.112202
0.0905808
0.0865449
0.0727024
0.0699685
0.0594316
0.0572995
0.0487623
0.047016
0.0399179
0.0384534
0.0324373
0.0311756
0.025898
0.0247442
0.0197013
0.0184936
0.0126142
0.0120081
0.0124662
0.0123889
0.0113453
0.011074
0.00966494
0.00935192
0.00794688
0.00764337
0.00632811
0.00603135
0.00469808
0.00433661
0.00247792
0.00176566
-0.00255
-0.00481194
-0.0196328
-0.0298859
-0.100449
-0.261802
-0.232873
-0.406122
-0.467704
-0.867594
-0.831269
-0.0980676
-0.0168007
-0.00352491
-66.4082
46.6968
3.80626
2.14039
2.05157
1.40943
1.36835
1.03583
1.01159
0.769933
0.748996
0.484595
0.475149
0.514121
0.514137
0.482103
0.478749
0.429251
0.425074
0.373897
0.369791
0.32232
0.318595
0.276649
0.273434
0.238114
0.235648
0.210829
0.210608
0.220617
0.382828
0.192123
0.130226
0.126064
0.0994248
0.097543
0.0801785
0.0788931
0.065624
0.0646196
0.0538578
0.0530348
0.0440847
0.0433945
0.0358094
0.0352149
0.0285646
0.0280212
0.021673
0.0211005
0.0135547
0.0132693
0.0139858
0.0139527
0.0126192
0.0124906
0.0107053
0.0105574
0.00878252
0.0086394
0.00698173
0.00684213
0.00517013
0.00500113
0.00269692
0.00236737
-0.0028973
-0.00392965
-0.0216068
-0.0261665
-0.103258
-0.310574
-0.240479
-0.462014
-0.491747
-1.02009
-1.00272
-0.0449412
-0.00605418
-0.00122616
-65.985
46.6967
3.80624
2.14038
2.05157
1.40943
1.36835
1.03583
1.01159
0.769935
0.748997
0.484596
0.47515
0.514121
0.514137
0.482102
0.478749
0.42925
0.425072
0.373896
0.36979
0.322318
0.318593
0.276647
0.273431
0.238112
0.235646
0.210827
0.210607
0.220616
0.382828
0.192123
0.130228
0.126067
0.099428
0.0975462
0.0801818
0.0788964
0.0656271
0.0646228
0.0538606
0.0530376
0.0440872
0.0433969
0.0358114
0.0352169
0.0285663
0.0280229
0.0216744
0.0211018
0.0135556
0.0132702
0.0139867
0.0139535
0.01262
0.0124914
0.0107059
0.0105581
0.00878309
0.00863997
0.00698224
0.00684265
0.00517063
0.00500164
0.00269753
0.00236799
-0.00289644
-0.00392877
-0.0216057
-0.0261655
-0.10326
-0.310582
-0.240487
-0.462038
-0.491773
-1.02015
-1.00278
-0.0449439
-0.00605489
-0.00122676
-65.9848
49.2343
3.21233
1.99326
1.81202
1.29945
1.21191
0.945785
0.894103
0.701363
0.657118
0.450976
0.430899
0.457792
0.457565
0.432607
0.42554
0.386508
0.377669
0.337182
0.328481
0.290885
0.282988
0.249763
0.24295
0.215025
0.209835
0.190623
0.190536
0.20517
0.319207
0.178418
0.121481
0.112205
0.0905835
0.0865477
0.0727053
0.0699714
0.0594344
0.0573022
0.0487648
0.0470185
0.0399201
0.0384555
0.0324391
0.0311774
0.0258995
0.0247457
0.0197025
0.0184948
0.012615
0.012009
0.012467
0.0123896
0.011346
0.0110746
0.00966552
0.00935249
0.00794738
0.00764387
0.00632857
0.00603181
0.00469853
0.00433707
0.00247845
0.00176623
-0.00254925
-0.00481116
-0.0196319
-0.0298852
-0.10045
-0.26181
-0.232882
-0.406143
-0.467729
-0.867646
-0.831319
-0.0980737
-0.0168022
-0.00352753
-66.408
51.753
2.68584
1.80463
1.58573
1.17249
1.06262
0.847169
0.782263
0.626858
0.571721
0.409919
0.384775
0.402555
0.401989
0.382402
0.373615
0.342564
0.331537
0.299202
0.288334
0.258269
0.248401
0.221827
0.213319
0.191034
0.18459
0.169658
0.169881
0.185752
0.26579
0.161363
0.110832
0.0988404
0.081039
0.0759447
0.0647874
0.0613616
0.0529082
0.0502406
0.0433998
0.0412158
0.03553
0.0336985
0.0288787
0.0273006
0.0230697
0.0216259
0.0175788
0.0160762
0.0114645
0.0107062
0.01097
0.0108656
0.0100424
0.00970459
0.00858245
0.00819177
0.0070687
0.00668933
0.00563514
0.0052634
0.00418843
0.00373325
0.00221431
0.00130938
-0.00228346
-0.00519044
-0.0178399
-0.0311916
-0.0940076
-0.220645
-0.217186
-0.354711
-0.430149
-0.732585
-0.68773
-0.125124
-0.0248295
-0.00541217
-66.8311
54.2484
2.21764
1.58952
1.36724
1.03339
0.917571
0.742539
0.674049
0.548348
0.490597
0.3634
0.336938
0.348056
0.347179
0.331771
0.322587
0.297826
0.286264
0.260369
0.24896
0.22485
0.214488
0.193174
0.184244
0.166414
0.159688
0.148091
0.148604
0.163773
0.219759
0.142158
0.0986448
0.0857119
0.0709892
0.0655872
0.0565629
0.0529555
0.046153
0.0433483
0.0378508
0.0355555
0.0309877
0.0290629
0.0251905
0.0235317
0.0201299
0.0186119
0.0153546
0.0137832
0.0101609
0.00936364
0.00948872
0.00937145
0.00872048
0.00836705
0.00747118
0.00706138
0.00616125
0.00576272
0.00491529
0.00452397
0.00365433
0.00317275
0.00192631
0.00096073
-0.00204443
-0.00517935
-0.0160191
-0.0305184
-0.0850106
-0.184681
-0.195848
-0.305759
-0.383485
-0.611411
-0.564847
-0.133681
-0.029622
-0.00669662
-67.2542
56.7197
1.79851
1.35819
1.15321
0.885587
0.774894
0.633654
0.568131
0.467127
0.412257
0.312856
0.287603
0.294042
0.292954
0.280895
0.272187
0.252564
0.241568
0.220961
0.210099
0.190886
0.181017
0.16403
0.155528
0.141353
0.134986
0.126044
0.126745
0.140166
0.179078
0.121593
0.0852378
0.072658
0.0605693
0.0553772
0.0481242
0.0446795
0.03924
0.0365658
0.0321757
0.0299879
0.0263415
0.0245071
0.0214153
0.0198342
0.0171163
0.0156688
0.0130643
0.0115735
0.00874523
0.007985
0.00801814
0.00789961
0.00738762
0.00705217
0.00634139
0.00595153
0.00523458
0.00485491
0.00417797
0.00380444
0.0031054
0.00264352
0.00162771
0.000694281
-0.00179962
-0.00485946
-0.0140512
-0.0282447
-0.074205
-0.152255
-0.170559
-0.258092
-0.330809
-0.501212
-0.457344
-0.129153
-0.0311697
-0.00728277
-67.6771
59.1684
1.41955
1.11745
0.941695
0.731511
0.633445
0.521746
0.463637
0.384065
0.335702
0.25935
0.237003
0.240333
0.239173
0.22989
0.222228
0.206961
0.197261
0.181167
0.171576
0.156552
0.147835
0.13455
0.127043
0.115983
0.11039
0.103614
0.104381
0.115544
0.142259
0.100187
0.0708827
0.0595871
0.0498758
0.0452518
0.0395351
0.0364853
0.0322183
0.0298537
0.0264142
0.0244804
0.0216244
0.020003
0.0175812
0.0161835
0.0140532
0.0127733
0.0107305
0.00941824
0.00724761
0.0065754
0.00655446
0.00644434
0.00604855
0.00575314
0.00519957
0.00485554
0.00429518
0.00395972
0.00342919
0.00309857
0.00254759
0.00213703
0.00132635
0.00049078
-0.00153166
-0.00429376
-0.0118826
-0.0246995
-0.0621147
-0.122216
-0.142498
-0.211016
-0.274224
-0.39958
-0.36121
-0.115415
-0.0297542
-0.0071512
-68.0998
61.5972
1.07241
0.871662
0.731565
0.572955
0.492546
0.407699
0.360006
0.299758
0.26027
0.203687
0.185379
0.186806
0.18572
0.178823
0.172576
0.161138
0.153214
0.141117
0.133274
0.121969
0.114839
0.104841
0.0987033
0.0903973
0.0858434
0.0808849
0.081604
0.0903026
0.108195
0.0782736
0.0558097
0.0464551
0.0389808
0.035172
0.0308411
0.0283414
0.025122
0.0231862
0.0205939
0.0190112
0.0168592
0.0155322
0.0137073
0.0125632
0.0109571
0.00990921
0.00836842
0.00729814
0.00569072
0.00514038
0.00509502
0.0050012
0.00470615
0.00446513
0.00405003
0.00376886
0.00334739
0.00307293
0.00267297
0.00240206
0.00198466
0.00164703
0.00102643
0.000335194
-0.00123368
-0.00353455
-0.0095043
-0.0201698
-0.0491159
-0.0937682
-0.112506
-0.164149
-0.21515
-0.304494
-0.273371
-0.0952715
-0.025817
-0.00634869
-68.5223
64.0098
0.749308
0.623454
0.522182
0.411276
0.351829
0.29217
0.256881
0.214625
0.185525
0.146495
0.132968
0.133383
0.132502
0.127734
0.123135
0.115179
0.109335
0.100899
0.0951121
0.0872216
0.0819598
0.0749806
0.0704524
0.0646638
0.0613156
0.0579312
0.0585102
0.0646962
0.0760479
0.0560644
0.0402142
0.0332495
0.0279406
0.0251145
0.0220752
0.0202275
0.0179756
0.0165461
0.0147342
0.0135657
0.012062
0.0110824
0.00980706
0.00896236
0.0078395
0.00706565
0.00598818
0.00520017
0.00409208
0.00368567
0.00363805
0.00356665
0.00336214
0.00318463
0.00289566
0.00268831
0.0023942
0.00219162
0.00191203
0.00171183
0.00141893
0.00116872
0.000729696
0.000215057
-0.000906077
-0.00262823
-0.0069378
-0.0149082
-0.0354881
-0.0663558
-0.0811965
-0.117307
-0.154541
-0.214225
-0.191408
-0.0707813
-0.019881
-0.0049742
-68.9446
66.4107
0.442988
0.374265
0.313187
0.247542
0.211123
0.175668
0.154037
0.128967
0.111179
0.0882851
0.0800014
0.0800139
0.0794409
0.0766391
0.0738301
0.069136
0.065563
0.060577
0.0570367
0.0523706
0.0491511
0.0450237
0.0422536
0.0388342
0.0367908
0.0348205
0.0351939
0.0388851
0.0451562
0.0336917
0.0242648
0.0199789
0.0168023
0.0150665
0.0132626
0.0121308
0.0107972
0.00992208
0.00884972
0.00813451
0.00724464
0.00664503
0.00589028
0.00537324
0.00470853
0.00423481
0.00359686
0.00311546
0.00246576
0.00221697
0.00218241
0.00213782
0.00201744
0.00190897
0.00173841
0.00161159
0.00143771
0.00131374
0.00114823
0.00102562
0.000851779
0.000698237
0.000436241
0.000119428
-0.000554193
-0.00161816
-0.00422458
-0.0091419
-0.0214481
-0.0395835
-0.0490354
-0.0704179
-0.0930322
-0.127254
-0.113357
-0.0435015
-0.0125058
-0.00316527
-69.3668
68.8044
0.146572
0.124774
0.104378
0.08264
0.0703808
0.0586157
0.0513317
0.04302
0.0370386
0.0294917
0.0267037
0.026669
0.0264705
0.025546
0.0246018
0.0230499
0.0218482
0.0201983
0.0190074
0.0174629
0.0163798
0.0150136
0.0140818
0.0129506
0.012264
0.0116171
0.0117458
0.0129719
0.0149754
0.0112386
0.0081106
0.00666473
0.00560699
0.00502193
0.0044237
0.00404273
0.00360097
0.00330649
0.00295138
0.00271073
0.00241607
0.00221432
0.00196439
0.00179042
0.00157028
0.00141087
0.00119958
0.00103776
0.000823632
0.000739913
0.000727409
0.000712251
0.000672496
0.000636031
0.000579626
0.000536972
0.000479423
0.000437715
0.000382902
0.000341634
0.000283986
0.000232255
0.000145132
3.82209e-05
-0.000186547
-0.000546242
-0.00141873
-0.00307978
-0.00717458
-0.013158
-0.0163965
-0.0234793
-0.0310584
-0.0422073
-0.0375429
-0.0146669
-0.00426481
-0.00108568
-69.789
68.7521
0.132843
0.100586
0.0751592
0.0504809
0.0374571
0.0262655
0.0200756
0.0142321
0.0119047
0.0112473
0.0108995
0.0103603
0.00993591
0.0093439
0.00891424
0.00835358
0.00795181
0.00743084
0.00705773
0.00657422
0.00623049
0.00578972
0.00548495
0.00511024
0.00488644
0.00468834
0.00478703
0.00534758
0.0062095
0.00467384
0.00337772
0.00277427
0.00232597
0.00207373
0.00180976
0.00163876
0.00143674
0.00130066
0.00113494
0.00102242
0.000884625
0.000791018
0.000676357
0.000598184
0.000501846
0.000434914
0.00035041
0.000289915
0.000213759
0.000177092
0.000153489
0.000132442
9.58933e-05
6.3044e-05
1.10133e-05
-3.49865e-05
-0.000107727
-0.000174249
-0.000282699
-0.000386493
-0.000562063
-0.00073992
-0.00105523
-0.0014047
-0.00207296
-0.00294415
-0.0048365
-0.00797751
-0.0153216
-0.0252211
-0.027865
-0.0349775
-0.0427361
-0.0538582
-0.0469335
-0.018273
-0.00530883
-0.00135097
-69.1022
66.2541
0.401895
0.301485
0.225448
0.150977
0.112298
0.0785968
0.0602131
0.0425559
0.0356474
0.0337297
0.0327062
0.0310763
0.0298145
0.0280253
0.0267481
0.0250545
0.0238603
0.0222867
0.0211777
0.0197172
0.0186955
0.0173638
0.0164577
0.0153247
0.0146583
0.0140532
0.0143426
0.0160307
0.0187244
0.0140119
0.0101054
0.00831662
0.00697007
0.00622167
0.00542558
0.00491753
0.00430761
0.00390321
0.00340275
0.00306832
0.00265216
0.00237394
0.00202766
0.00179532
0.00150441
0.00130549
0.00105031
0.000870402
0.000639721
0.000530777
0.000460386
0.000397966
0.000287552
0.000189919
3.28164e-05
-0.000103873
-0.000323414
-0.000521055
-0.00084827
-0.0011566
-0.00168609
-0.00221425
-0.00316432
-0.00420134
-0.00621077
-0.0087916
-0.0144596
-0.0237644
-0.0458626
-0.0759535
-0.0834163
-0.104907
-0.128074
-0.162296
-0.14167
-0.0541912
-0.0155662
-0.00393842
-67.3065
63.7499
0.681144
0.50141
0.375676
0.250042
0.186941
0.130316
0.100322
0.0704501
0.0591908
0.0561766
0.0545375
0.051778
0.0497146
0.0466867
0.0445989
0.0417358
0.0397844
0.0371243
0.0353121
0.0328428
0.0311731
0.0289211
0.0274397
0.0255207
0.0244279
0.0233823
0.0238423
0.0266735
0.0315355
0.0233177
0.0167485
0.0138413
0.0115903
0.0103716
0.00902996
0.00820048
0.00717036
0.00650973
0.00566405
0.00511764
0.00441432
0.00395974
0.00337454
0.00299495
0.00250342
0.00217843
0.0017473
0.00145301
0.00106089
0.000882987
0.00076703
0.000665475
0.00047876
0.00031923
5.38566e-05
-0.000169395
-0.000539931
-0.000862635
-0.00141456
-0.00191782
-0.00281013
-0.00367167
-0.00526991
-0.00695906
-0.0103257
-0.0145155
-0.0239371
-0.0390395
-0.0760839
-0.127591
-0.138406
-0.174769
-0.212969
-0.272928
-0.23908
-0.0881552
-0.0247438
-0.00618858
-65.5107
61.2356
0.977737
0.699177
0.525903
0.346607
0.261326
0.180971
0.140427
0.0976003
0.082405
0.0785691
0.0764142
0.0724524
0.0696539
0.065311
0.0624814
0.0583812
0.0557373
0.0519286
0.0494732
0.045937
0.0436744
0.0404479
0.0384396
0.0356839
0.0341957
0.0326513
0.0332473
0.0372352
0.0448697
0.0325576
0.023245
0.0193397
0.0161692
0.0145264
0.012614
0.0114916
0.0100185
0.00912385
0.0079136
0.00717346
0.00616677
0.00555101
0.00471345
0.00419928
0.00349598
0.00305582
0.00243899
0.0020397
0.00147361
0.00123283
0.00107321
0.000936497
0.000668983
0.000452873
7.33014e-05
-0.000228941
-0.000758283
-0.00119497
-0.00198273
-0.00266341
-0.00393535
-0.00509958
-0.0073718
-0.00964964
-0.0144076
-0.0200302
-0.0331874
-0.0534369
-0.105727
-0.180856
-0.192374
-0.244557
-0.296994
-0.387313
-0.341174
-0.118619
-0.032127
-0.00789761
-63.7147
58.7074
1.29933
0.892736
0.676373
0.439414
0.335516
0.230034
0.180624
0.123646
0.105165
0.100895
0.098364
0.0930811
0.0896559
0.0838757
0.0804156
0.0749693
0.0717378
0.0666796
0.0636784
0.0589809
0.0562149
0.0519264
0.0494698
0.0457967
0.0439661
0.0418348
0.0425166
0.0476509
0.0590018
0.0416774
0.0295252
0.0248087
0.0206871
0.0186922
0.0161665
0.0147969
0.0128438
0.0117509
0.0101447
0.00924028
0.00790393
0.00715149
0.00603975
0.00541151
0.00447832
0.00394057
0.00312223
0.00263327
0.00187349
0.00157959
0.00137862
0.0012129
0.000857292
0.00059319
8.97779e-05
-0.000279284
-0.000980235
-0.00151317
-0.00255508
-0.00338527
-0.00506479
-0.00648308
-0.00947341
-0.0122409
-0.0184549
-0.0252433
-0.0421539
-0.0665526
-0.134456
-0.236665
-0.244716
-0.314336
-0.379504
-0.507155
-0.450324
-0.143639
-0.0370198
-0.0088945
-61.9184
56.162
1.65428
1.07869
0.827672
0.526902
0.409772
0.276856
0.221125
0.148153
0.127358
0.123153
0.120425
0.113637
0.109753
0.102349
0.0984304
0.0914698
0.0878123
0.0813492
0.0779524
0.0719485
0.0688172
0.0633324
0.0605492
0.0558362
0.0537488
0.0509059
0.0516079
0.057818
0.0742808
0.0505902
0.0355079
0.030254
0.0251201
0.0228794
0.0196731
0.0181259
0.015635
0.0143988
0.0123481
0.0113248
0.00961818
0.00876678
0.00734714
0.00663635
0.00544523
0.0048369
0.0037926
0.00323797
0.00225495
0.00192282
0.00168282
0.00149709
0.00104212
0.000743254
0.00010104
-0.0003162
-0.00120877
-0.00181087
-0.00313579
-0.00407304
-0.00620458
-0.00780361
-0.0115838
-0.0146943
-0.0224792
-0.0300516
-0.0508208
-0.0779281
-0.161812
-0.296241
-0.294594