/*--------------------------------*- C++ -*----------------------------------*\
| =========                 |                                                 |
| \\      /  F ield         | OpenFOAM: The Open Source CFD Toolbox           |
|  \\    /   O peration     | Version:  5.x                                   |
|   \\  /    A nd           | Web:      www.OpenFOAM.org                      |
|    \\/     M anipulation  |                                                 |
\*---------------------------------------------------------------------------*/
FoamFile
{
    version     2.0;
    format      ascii;
    class       volScalarField;
    location    "1.9";
    object      T;
}
// * * * * * * * * * * * * * * * * * * * * * * * * * * * * * * * * * * * * * //

dimensions      [0 0 0 1 0 0 0];

internalField   nonuniform List<scalar> 
3200
(
2.11876
2.46024
2.47968
2.61968
2.62852
2.69783
2.70244
2.74223
2.74495
2.77001
2.77168
2.78611
2.78738
2.80309
2.80436
2.81931
2.8205
2.8342
2.83529
2.84763
2.8486
2.85959
2.86045
2.87015
2.87091
2.87947
2.88015
2.88792
2.88861
2.89696
2.90437
2.9049
2.90976
2.91012
2.91385
2.91413
2.9171
2.91732
2.91969
2.91986
2.92173
2.92187
2.92331
2.92342
2.92452
2.9246
2.92541
2.92547
2.92602
2.92606
2.92636
2.92638
2.92664
2.92666
2.92681
2.92681
2.9268
2.92679
2.92657
2.92654
2.92599
2.92592
2.92487
2.92474
2.9228
2.92256
2.91885
2.91834
2.91034
2.90895
2.88642
2.8472
2.84283
2.77915
2.77164
2.6524
2.64745
2.64682
2.6467
2.64667
2.28995
2.5512
2.59182
2.70384
2.72271
2.77815
2.78796
2.81968
2.82548
2.8454
2.84894
2.86051
2.86321
2.87564
2.87834
2.89018
2.89271
2.90357
2.90587
2.91565
2.91771
2.92642
2.92825
2.93593
2.93755
2.94434
2.94579
2.95197
2.95345
2.96037
2.96659
2.96774
2.97162
2.97239
2.97535
2.97594
2.9783
2.97877
2.98064
2.98102
2.9825
2.98279
2.98394
2.98416
2.98504
2.9852
2.98585
2.98597
2.98641
2.98648
2.98672
2.98677
2.98698
2.98702
2.98713
2.98714
2.98714
2.98711
2.98693
2.98687
2.98643
2.98629
2.98545
2.98518
2.98363
2.98311
2.98014
2.97905
2.97254
2.96947
2.94979
2.91768
2.90833
2.85757
2.84176
2.74913
2.73868
2.73695
2.73659
2.73651
2.45069
2.65099
2.70111
2.79172
2.81543
2.86028
2.87261
2.89817
2.90544
2.92144
2.92588
2.93527
2.93864
2.94858
2.95196
2.96142
2.96459
2.97327
2.97615
2.98398
2.98656
2.99352
2.99581
3.00196
3.00398
3.00942
3.01124
3.01621
3.01808
3.02381
3.02902
3.03047
3.0336
3.03456
3.03694
3.03768
3.03957
3.04016
3.04166
3.04213
3.04331
3.04368
3.0446
3.04488
3.04558
3.04579
3.0463
3.04646
3.04681
3.0469
3.0471
3.04716
3.04732
3.04737
3.04746
3.04748
3.04747
3.04744
3.0473
3.04721
3.04686
3.04668
3.046
3.04567
3.04441
3.04377
3.04135
3.03998
3.0346
3.03065
3.01365
2.98725
2.97549
2.93459
2.91496
2.84257
2.82956
2.82703
2.82648
2.82636
2.60341
2.75678
2.80878
2.88228
2.9073
2.94372
2.95672
2.9774
2.98505
2.99794
3.00262
3.01026
3.01382
3.02178
3.02533
3.03292
3.03624
3.04321
3.04623
3.05251
3.05522
3.06081
3.06322
3.06816
3.07028
3.07465
3.07656
3.08057
3.08255
3.08727
3.09159
3.09314
3.09567
3.09668
3.0986
3.09938
3.10089
3.10151
3.10272
3.10321
3.10416
3.10455
3.10529
3.10558
3.10614
3.10636
3.10678
3.10694
3.10722
3.10732
3.10748
3.10754
3.10767
3.10772
3.10779
3.10781
3.1078
3.10778
3.10766
3.10757
3.10728
3.10709
3.10655
3.10619
3.10518
3.1045
3.10252
3.10106
3.0966
3.09236
3.07789
3.05624
3.04381
3.01076
2.99026
2.93364
2.92003
2.91703
2.91634
2.91619
2.74999
2.86663
2.91558
2.97478
2.99872
3.02809
3.04052
3.05714
3.06444
3.07477
3.07924
3.08542
3.08881
3.09515
3.09853
3.10458
3.10775
3.1133
3.11618
3.12119
3.12377
3.12823
3.13052
3.13446
3.13649
3.13998
3.1418
3.14501
3.14691
3.15074
3.15427
3.15576
3.1578
3.15877
3.1603
3.16104
3.16225
3.16284
3.16381
3.16427
3.16503
3.1654
3.16599
3.16627
3.16672
3.16693
3.16726
3.16741
3.16764
3.16773
3.16786
3.16792
3.16803
3.16807
3.16813
3.16814
3.16814
3.16811
3.16802
3.16793
3.1677
3.16752
3.16708
3.16674
3.16592
3.16527
3.16368
3.16227
3.1586
3.15448
3.14242
3.12486
3.11296
3.08643
3.06701
3.023
3.01007
3.00693
3.00619
3.00603
2.8919
2.97918
3.02197
3.06868
3.08992
3.11313
3.12416
3.13725
3.14372
3.15183
3.15579
3.16068
3.16369
3.16865
3.17163
3.17636
3.17916
3.18351
3.18605
3.18997
3.19225
3.19574
3.19776
3.20085
3.20264
3.20537
3.20698
3.20951
3.21119
3.21423
3.21704
3.21837
3.21997
3.22083
3.22203
3.22269
3.22363
3.22416
3.22491
3.22533
3.22592
3.22624
3.22671
3.22696
3.22731
3.22749
3.22775
3.22788
3.22806
3.22815
3.22825
3.2283
3.22838
3.22842
3.22847
3.22848
3.22848
3.22845
3.22838
3.2283
3.22812
3.22796
3.22761
3.22731
3.22667
3.22609
3.22482
3.22356
3.22061
3.21691
3.20716
3.19325
3.18269
3.16182
3.14475
3.1111
3.09972
3.09674
3.09601
3.09585
3.03032
3.09351
3.1282
3.16361
3.18104
3.19866
3.20771
3.21763
3.22293
3.22905
3.2323
3.23602
3.23849
3.24222
3.24466
3.24822
3.2505
3.25378
3.25586
3.25881
3.26068
3.26331
3.26496
3.26728
3.26875
3.27081
3.27213
3.27404
3.27542
3.27773
3.27987
3.28096
3.28217
3.28288
3.28378
3.28432
3.28503
3.28546
3.28603
3.28637
3.28682
3.28708
3.28743
3.28763
3.2879
3.28805
3.28825
3.28836
3.28849
3.28856
3.28863
3.28868
3.28874
3.28877
3.28881
3.28882
3.28881
3.28879
3.28874
3.28867
3.28854
3.28841
3.28815
3.2879
3.28741
3.28693
3.28597
3.28493
3.28265
3.27959
3.27208
3.2615
3.25284
3.23705
3.22314
3.19832
3.18903
3.18646
3.18582
3.18567
3.16621
3.20898
3.2344
3.25925
3.27214
3.28453
3.29123
3.29819
3.30211
3.30639
3.3088
3.31142
3.31324
3.31584
3.31764
3.32013
3.32181
3.3241
3.32563
3.3277
3.32907
3.33091
3.33213
3.33375
3.33483
3.33627
3.33725
3.33858
3.33961
3.34123
3.34273
3.34354
3.3444
3.34492
3.34555
3.34595
3.34645
3.34676
3.34716
3.34741
3.34772
3.34792
3.34816
3.34831
3.3485
3.34861
3.34875
3.34883
3.34892
3.34897
3.34902
3.34906
3.3491
3.34912
3.34915
3.34915
3.34915
3.34914
3.3491
3.34905
3.34896
3.34886
3.34867
3.34849
3.34815
3.3478
3.34712
3.34634
3.34472
3.34244
3.33711
3.32968
3.32328
3.31221
3.30198
3.28492
3.27807
3.2761
3.2756
3.27548
3.30038
3.32514
3.34062
3.35537
3.36327
3.37063
3.37474
3.37887
3.38127
3.38381
3.38528
3.38684
3.38795
3.38949
3.39059
3.39206
3.3931
3.39445
3.39539
3.39661
3.39745
3.39854
3.39928
3.40024
3.4009
3.40176
3.40235
3.40315
3.40377
3.40474
3.40563
3.40613
3.40663
3.40695
3.40733
3.40757
3.40787
3.40806
3.40829
3.40845
3.40863
3.40875
3.4089
3.40899
3.4091
3.40917
3.40925
3.4093
3.40935
3.40938
3.40941
3.40943
3.40946
3.40947
3.40949
3.40949
3.40949
3.40948
3.40946
3.40943
3.40937
3.40931
3.4092
3.40909
3.40889
3.40867
3.40827
3.40779
3.40682
3.40542
3.40224
3.39782
3.3939
3.38733
3.38109
3.3711
3.36692
3.36569
3.36537
3.36529
3.43357
3.44168
3.44687
3.45176
3.45442
3.45686
3.45825
3.45961
3.46042
3.46126
3.46176
3.46228
3.46265
3.46316
3.46353
3.46402
3.46437
3.46481
3.46513
3.46553
3.46582
3.46618
3.46643
3.46675
3.46697
3.46725
3.46745
3.46771
3.46793
3.46824
3.46854
3.46871
3.46888
3.46898
3.46911
3.46919
3.46929
3.46935
3.46943
3.46948
3.46954
3.46958
3.46963
3.46966
3.4697
3.46972
3.46975
3.46977
3.46978
3.46979
3.4698
3.46981
3.46982
3.46982
3.46983
3.46983
3.46983
3.46983
3.46982
3.46981
3.46979
3.46977
3.46973
3.4697
3.46963
3.46956
3.46942
3.46926
3.46894
3.46846
3.46741
3.46594
3.46462
3.46245
3.46035
3.45706
3.45565
3.45523
3.45512
3.4551
3.43589
3.44455
3.45055
3.45702
3.46099
3.46529
3.46802
3.47115
3.47316
3.47545
3.47686
3.4784
3.47953
3.48107
3.48218
3.48362
3.48464
3.48593
3.48682
3.48795
3.48872
3.48969
3.49036
3.49119
3.49177
3.49249
3.493
3.49365
3.49417
3.49495
3.49567
3.49607
3.49648
3.49674
3.49704
3.49724
3.49748
3.49765
3.49784
3.49798
3.49814
3.49825
3.49838
3.49847
3.49858
3.49865
3.49873
3.49879
3.49885
3.49889
3.49894
3.49897
3.49901
3.49904
3.49908
3.4991
3.49913
3.49916
3.49918
3.4992
3.49922
3.49923
3.49925
3.49926
3.49926
3.49926
3.49924
3.49921
3.4991
3.4989
3.49838
3.49758
3.49674
3.49523
3.49364
3.49101
3.48989
3.48955
3.48946
3.48944
3.30733
3.33375
3.35162
3.37117
3.38294
3.39593
3.40406
3.41349
3.41946
3.42639
3.43058
3.43522
3.43858
3.44322
3.44652
3.45088
3.4539
3.4578
3.46046
3.46386
3.46616
3.46909
3.47108
3.47359
3.4753
3.47748
3.47898
3.48096
3.4825
3.48485
3.48702
3.48822
3.48945
3.49022
3.49113
3.49172
3.49245
3.49294
3.49353
3.49393
3.49442
3.49474
3.49514
3.49541
3.49573
3.49594
3.4962
3.49637
3.49656
3.49668
3.49681
3.4969
3.49703
3.49711
3.49723
3.4973
3.4974
3.49746
3.49754
3.4976
3.49766
3.4977
3.49774
3.49777
3.49779
3.49778
3.49773
3.49762
3.49731
3.4967
3.49517
3.49275
3.49026
3.4857
3.48096
3.47298
3.46962
3.46863
3.46837
3.46831
3.1777
3.22328
3.25263
3.28563
3.30485
3.32676
3.34003
3.35597
3.36572
3.37744
3.38427
3.39209
3.39757
3.40542
3.41082
3.4182
3.42313
3.42972
3.43407
3.43981
3.44358
3.44853
3.45178
3.45603
3.45882
3.46249
3.46495
3.46829
3.4708
3.47476
3.47841
3.48036
3.48243
3.48369
3.48522
3.4862
3.48743
3.48822
3.48923
3.48987
3.4907
3.49123
3.49191
3.49234
3.49289
3.49324
3.49367
3.49394
3.49427
3.49446
3.49468
3.49483
3.49504
3.49519
3.49538
3.49551
3.49567
3.49577
3.49591
3.49599
3.4961
3.49616
3.49624
3.49628
3.49631
3.4963
3.49622
3.49604
3.49553
3.49455
3.49198
3.48791
3.48386
3.47618
3.46841
3.45476
3.44927
3.44769
3.44728
3.44719
3.04625
3.11347
3.15349
3.20063
3.22665
3.25793
3.2759
3.2987
3.3119
3.32868
3.33793
3.34904
3.35647
3.36773
3.37504
3.38561
3.3923
3.40172
3.40762
3.41583
3.42095
3.42803
3.43243
3.43851
3.4423
3.44755
3.45088
3.45564
3.45904
3.46467
3.46986
3.4725
3.47545
3.47715
3.47934
3.48066
3.48243
3.4835
3.48494
3.48582
3.487
3.48772
3.48868
3.48927
3.49005
3.49053
3.49115
3.49152
3.49199
3.49225
3.49256
3.49276
3.49307
3.49326
3.49354
3.49371
3.49394
3.49408
3.49428
3.49439
3.49454
3.49463
3.49474
3.4948
3.49484
3.49483
3.49472
3.49448
3.49377
3.49246
3.48886
3.48308
3.47761
3.46667
3.4561
3.43622
3.42876
3.42669
3.42618
3.42606
2.9121
3.00473
3.05406
3.11648
3.14823
3.18963
3.21157
3.24181
3.25794
3.28021
3.29151
3.30615
3.31521
3.33018
3.33912
3.35317
3.36135
3.37387
3.38107
3.39198
3.39823
3.40764
3.41301
3.42109
3.42572
3.43269
3.43676
3.44305
3.4472
3.45461
3.46142
3.46463
3.46851
3.47059
3.4735
3.47511
3.47745
3.47876
3.48067
3.48174
3.48331
3.48419
3.48548
3.48619
3.48723
3.48781
3.48864
3.48909
3.48971
3.49003
3.49044
3.49069
3.49109
3.49133
3.4917
3.49191
3.49222
3.49239
3.49265
3.49279
3.49299
3.4931
3.49324
3.49331
3.49338
3.49336
3.49322
3.49293
3.49204
3.49046
3.48582
3.47824
3.47158
3.45714
3.44415
3.41718
3.40804
3.40564
3.40506
3.40493
2.77425
2.89773
2.9541
3.03355
3.06942
3.12211
3.14691
3.18547
3.20372
3.23219
3.24495
3.26347
3.27371
3.29288
3.303
3.32097
3.33022
3.34622
3.35438
3.36832
3.37539
3.38741
3.39349
3.40381
3.40904
3.41794
3.42254
3.43055
3.43522
3.44457
3.45312
3.45673
3.46165
3.46399
3.4677
3.46953
3.47252
3.474
3.47644
3.47765
3.47966
3.48065
3.48229
3.4831
3.48443
3.48509
3.48615
3.48665
3.48745
3.48781
3.48833
3.48861
3.48913
3.4894
3.48987
3.4901
3.4905
3.4907
3.49102
3.49118
3.49144
3.49156
3.49175
3.49183
3.49192
3.4919
3.49174
3.49141
3.49033
3.48859
3.48291
3.47336
3.46585
3.44755
3.43278
3.39744
3.38704
3.38452
3.38393
3.38379
2.63144
2.7934
2.85321
2.95235
2.98993
3.05569
3.08169
3.12995
3.14909
3.18478
3.19815
3.22112
3.23185
3.25593
3.26656
3.2891
3.29882
3.31889
3.32745
3.34492
3.35235
3.36741
3.37379
3.38673
3.39222
3.40337
3.40819
3.41818
3.42305
3.43455
3.44502
3.44877
3.45489
3.45734
3.46199
3.4639
3.46764
3.4692
3.47226
3.47353
3.47604
3.47709
3.47914
3.47999
3.48166
3.48234
3.48367
3.48421
3.48521
3.48558
3.48622
3.48652
3.48717
3.48746
3.48805
3.48829
3.48879
3.489
3.48941
3.48958
3.4899
3.49003
3.49027
3.49035
3.49046
3.49044
3.49025
3.48992
3.48865
3.48687
3.48015
3.4684
3.46057
3.43783
3.42222
3.37669
3.36574
3.36333
3.36278
3.36266
2.48215
2.69315
2.75073
2.87361
2.90931
2.99086
3.01557
3.07558
3.0938
3.13827
3.15097
3.17926
3.18945
3.21951
3.22964
3.25775
3.26701
3.29201
3.30016
3.32193
3.32899
3.34776
3.35383
3.36994
3.37517
3.38904
3.39362
3.40601
3.41061
3.42458
3.43719
3.44072
3.44828
3.4506
3.45638
3.4582
3.46286
3.46433
3.46815
3.46936
3.47249
3.47348
3.47604
3.47685
3.47893
3.47958
3.48123
3.48174
3.48299
3.48335
3.48414
3.48442
3.48524
3.48551
3.48624
3.48648
3.4871
3.4873
3.48781
3.48796
3.48837
3.48849
3.48879
3.48886
3.48901
3.48899
3.48878
3.48848
3.487
3.48536
3.4776
3.46329
3.45588
3.42782
3.41287
3.35457
3.3441
3.34206
3.34161
3.34152
2.32441
2.59903
2.64564
2.79835
2.82684
2.9283
2.94803
3.02288
3.03744
3.09301
3.10315
3.13811
3.14624
3.18389
3.192
3.22715
3.23455
3.2658
3.27232
3.29952
3.30517
3.32861
3.33347
3.35358
3.35776
3.37509
3.37875
3.39415
3.3978
3.41467
3.42972
3.43251
3.44187
3.44373
3.45093
3.45238
3.4582
3.45938
3.46414
3.46511
3.46902
3.46981
3.47301
3.47366
3.47625
3.47677
3.47884
3.47925
3.48081
3.4811
3.48207
3.4823
3.48332
3.48354
3.48446
3.48465
3.48542
3.48558
3.48622
3.48634
3.48685
3.48695
3.48732
3.48738
3.48757
3.48756
3.48731
3.48708
3.48535
3.48409
3.4753
3.45791
3.45202
3.4173
3.40525
3.33054
3.32212
3.32073
3.32044
3.32038
2.15566
2.51401
2.53629
2.72805
2.74145
2.86899
2.87828
2.97258
2.97944
3.04957
3.05434
3.09803
3.10186
3.14944
3.15327
3.19765
3.20114
3.24058
3.24365
3.27797
3.28063
3.3102
3.31249
3.33786
3.33983
3.36168
3.3634
3.38276
3.38446
3.40482
3.42274
3.42403
3.43577
3.43664
3.44571
3.44639
3.45373
3.45428
3.46029
3.46074
3.46567
3.46605
3.47008
3.47039
3.47366
3.47391
3.47652
3.47671
3.47869
3.47882
3.48004
3.48015
3.48144
3.48154
3.4827
3.48279
3.48377
3.48385
3.48465
3.48471
3.48535
3.4854
3.48587
3.4859
3.48614
3.48613
3.48585
3.48574
3.48369
3.48312
3.47336
3.45207
3.44931
3.40586
3.40014
3.30386
3.29987
3.29936
3.29926
3.29924
2.15566
2.51401
2.53629
2.72805
2.74145
2.86899
2.87828
2.97257
2.97944
3.04957
3.05434
3.09803
3.10185
3.14944
3.15327
3.19765
3.20114
3.24058
3.24365
3.27796
3.28063
3.3102
3.31249
3.33786
3.33983
3.36167
3.3634
3.38276
3.38446
3.40482
3.42274
3.42403
3.43576
3.43664
3.44571
3.44639
3.45372
3.45428
3.46029
3.46074
3.46567
3.46605
3.47008
3.47039
3.47366
3.47391
3.47652
3.47671
3.47869
3.47882
3.48004
3.48015
3.48144
3.48154
3.4827
3.48279
3.48377
3.48385
3.48465
3.48471
3.48535
3.4854
3.48587
3.4859
3.48614
3.48613
3.48585
3.48574
3.48369
3.48312
3.47336
3.45206
3.44931
3.40586
3.40013
3.30385
3.29986
3.29935
3.29925
3.29923
2.32441
2.59902
2.64564
2.79835
2.82684
2.9283
2.94803
3.02287
3.03744
3.09301
3.10315
3.13811
3.14624
3.18389
3.192
3.22715
3.23455
3.2658
3.27232
3.29952
3.30517
3.32861
3.33347
3.35358
3.35776
3.37508
3.37875
3.39415
3.3978
3.41466
3.42972
3.43251
3.44187
3.44373
3.45093
3.45238
3.4582
3.45938
3.46414
3.46511
3.46902
3.46981
3.47301
3.47366
3.47625
3.47677
3.47884
3.47925
3.48081
3.4811
3.48207
3.4823
3.48332
3.48354
3.48446
3.48464
3.48542
3.48558
3.48622
3.48634
3.48685
3.48695
3.48732
3.48738
3.48757
3.48756
3.48731
3.48708
3.48535
3.48409
3.4753
3.45791
3.45202
3.41729
3.40524
3.33053
3.32211
3.32072
3.32043
3.32037
2.48215
2.69315
2.75073
2.87361
2.90931
2.99086
3.01557
3.07558
3.09379
3.13826
3.15097
3.17926
3.18944
3.21951
3.22964
3.25775
3.267
3.29201
3.30016
3.32193
3.32899
3.34775
3.35383
3.36994
3.37516
3.38904
3.39362
3.40601
3.41061
3.42458
3.43719
3.44072
3.44827
3.4506
3.45638
3.4582
3.46286
3.46433
3.46815
3.46936
3.47249
3.47348
3.47604
3.47685
3.47893
3.47958
3.48123
3.48174
3.48299
3.48335
3.48414
3.48442
3.48524
3.48551
3.48624
3.48648
3.4871
3.4873
3.4878
3.48796
3.48837
3.48849
3.48879
3.48886
3.48901
3.48899
3.48878
3.48848
3.487
3.48536
3.4776
3.46329
3.45588
3.42782
3.41286
3.35456
3.34409
3.34205
3.34161
3.34151
2.63144
2.7934
2.85321
2.95235
2.98993
3.05569
3.08169
3.12995
3.14909
3.18478
3.19815
3.22112
3.23184
3.25593
3.26656
3.2891
3.29882
3.31889
3.32745
3.34492
3.35234
3.36741
3.37379
3.38672
3.39222
3.40337
3.40819
3.41818
3.42305
3.43455
3.44502
3.44877
3.45489
3.45734
3.46199
3.4639
3.46764
3.46919
3.47226
3.47353
3.47604
3.47708
3.47914
3.47999
3.48166
3.48234
3.48367
3.4842
3.48521
3.48558
3.48622
3.48652
3.48717
3.48746
3.48805
3.48829
3.48879
3.489
3.48941
3.48958
3.4899
3.49003
3.49027
3.49035
3.49046
3.49044
3.49025
3.48992
3.48865
3.48687
3.48015
3.4684
3.46057
3.43783
3.42222
3.37669
3.36573
3.36332
3.36277
3.36265
2.77425
2.89773
2.9541
3.03355
3.06942
3.12211
3.14691
3.18547
3.20372
3.23218
3.24495
3.26347
3.27371
3.29287
3.303
3.32096
3.33022
3.34622
3.35438
3.36832
3.37539
3.38741
3.39349
3.40381
3.40904
3.41794
3.42254
3.43055
3.43521
3.44456
3.45312
3.45672
3.46165
3.46399
3.4677
3.46953
3.47252
3.474
3.47644
3.47765
3.47966
3.48065
3.48229
3.4831
3.48443
3.48508
3.48614
3.48665
3.48745
3.48781
3.48833
3.48861
3.48913
3.4894
3.48987
3.4901
3.4905
3.4907
3.49102
3.49118
3.49144
3.49156
3.49175
3.49183
3.49191
3.4919
3.49173
3.49141
3.49033
3.48859
3.48291
3.47336
3.46585
3.44755
3.43277
3.39743
3.38704
3.38452
3.38392
3.38379
2.9121
3.00474
3.05406
3.11648
3.14823
3.18963
3.21157
3.24181
3.25794
3.28021
3.29151
3.30615
3.31521
3.33018
3.33912
3.35317
3.36135
3.37387
3.38107
3.39198
3.39823
3.40764
3.41301
3.42109
3.42572
3.43269
3.43676
3.44305
3.4472
3.45461
3.46142
3.46463
3.46851
3.47058
3.4735
3.47511
3.47745
3.47876
3.48067
3.48174
3.48331
3.48419
3.48548
3.48619
3.48723
3.48781
3.48864
3.48909
3.48971
3.49003
3.49044
3.49069
3.49109
3.49133
3.4917
3.49191
3.49222
3.49239
3.49265
3.49279
3.49299
3.4931
3.49324
3.49331
3.49338
3.49336
3.49322
3.49293
3.49204
3.49046
3.48582
3.47824
3.47157
3.45714
3.44415
3.41718
3.40803
3.40564
3.40506
3.40492
3.04625
3.11347
3.15349
3.20063
3.22665
3.25793
3.2759
3.2987
3.3119
3.32868
3.33793
3.34904
3.35647
3.36772
3.37504
3.38561
3.3923
3.40172
3.40762
3.41583
3.42094
3.42803
3.43243
3.43851
3.4423
3.44755
3.45088
3.45564
3.45904
3.46467
3.46986
3.4725
3.47544
3.47714
3.47934
3.48066
3.48243
3.4835
3.48494
3.48581
3.487
3.48772
3.48868
3.48927
3.49005
3.49053
3.49115
3.49152
3.49199
3.49225
3.49256
3.49276
3.49307
3.49326
3.49354
3.49371
3.49394
3.49408
3.49428
3.49439
3.49454
3.49463
3.49474
3.4948
3.49484
3.49483
3.49472
3.49448
3.49377
3.49246
3.48886
3.48308
3.47761
3.46667
3.45609
3.43622
3.42876
3.42669
3.42617
3.42606
3.1777
3.22328
3.25263
3.28563
3.30485
3.32676
3.34003
3.35597
3.36572
3.37744
3.38427
3.39209
3.39757
3.40542
3.41082
3.4182
3.42313
3.42971
3.43407
3.4398
3.44358
3.44853
3.45177
3.45603
3.45882
3.46249
3.46495
3.46828
3.4708
3.47475
3.47841
3.48036
3.48243
3.48369
3.48522
3.4862
3.48743
3.48822
3.48923
3.48987
3.4907
3.49123
3.49191
3.49234
3.49289
3.49324
3.49367
3.49394
3.49427
3.49446
3.49468
3.49483
3.49504
3.49519
3.49538
3.49551
3.49567
3.49577
3.49591
3.49599
3.4961
3.49616
3.49624
3.49628
3.49631
3.4963
3.49622
3.49604
3.49553
3.49455
3.49198
3.48791
3.48386
3.47618
3.46841
3.45476
3.44927
3.44768
3.44728
3.44719
3.30733
3.33375
3.35162
3.37117
3.38294
3.39593
3.40406
3.41349
3.41946
3.42639
3.43058
3.43522
3.43858
3.44322
3.44652
3.45088
3.4539
3.4578
3.46046
3.46385
3.46616
3.46909
3.47108
3.47359
3.4753
3.47748
3.47898
3.48096
3.4825
3.48485
3.48702
3.48822
3.48944
3.49022
3.49113
3.49172
3.49245
3.49293
3.49353
3.49393
3.49442
3.49474
3.49514
3.4954
3.49573
3.49594
3.4962
3.49637
3.49656
3.49668
3.49681
3.4969
3.49702
3.49711
3.49723
3.4973
3.4974
3.49746
3.49754
3.4976
3.49766
3.4977
3.49774
3.49777
3.49779
3.49778
3.49773
3.49762
3.49731
3.4967
3.49517
3.49275
3.49026
3.4857
3.48096
3.47298
3.46962
3.46863
3.46837
3.46831
3.43589
3.44455
3.45055
3.45702
3.46099
3.46529
3.46802
3.47115
3.47316
3.47545
3.47686
3.4784
3.47953
3.48107
3.48218
3.48362
3.48464
3.48593
3.48682
3.48795
3.48872
3.48969
3.49036
3.49119
3.49177
3.49249
3.493
3.49365
3.49417
3.49495
3.49567
3.49607
3.49648
3.49674
3.49704
3.49724
3.49748
3.49765
3.49784
3.49798
3.49814
3.49825
3.49838
3.49847
3.49858
3.49865
3.49873
3.49879
3.49885
3.49889
3.49894
3.49897
3.49901
3.49904
3.49908
3.4991
3.49913
3.49915
3.49918
3.4992
3.49922
3.49923
3.49925
3.49926
3.49926
3.49926
3.49924
3.49921
3.4991
3.4989
3.49838
3.49758
3.49674
3.49523
3.49364
3.49101
3.48988
3.48955
3.48946
3.48944
3.43355
3.44165
3.44684
3.45171
3.45435
3.45676
3.4581
3.45939
3.46011
3.46081
3.4613
3.46193
3.46239
3.46297
3.46338
3.4639
3.46427
3.46474
3.46507
3.46548
3.46577
3.46614
3.4664
3.46672
3.46694
3.46723
3.46743
3.4677
3.46791
3.46823
3.46853
3.4687
3.46887
3.46898
3.4691
3.46919
3.46928
3.46935
3.46943
3.46948
3.46954
3.46958
3.46963
3.46966
3.4697
3.46972
3.46975
3.46976
3.46978
3.46979
3.4698
3.46981
3.46982
3.46982
3.46983
3.46983
3.46983
3.46983
3.46982
3.46981
3.46979
3.46977
3.46973
3.4697
3.46963
3.46956
3.46942
3.46926
3.46894
3.46846
3.46741
3.46594
3.46462
3.46244
3.46035
3.45706
3.45565
3.45523
3.45512
3.4551
3.30033
3.32507
3.34052
3.35522
3.36307
3.37032
3.3743
3.37818
3.38032
3.38244
3.38389
3.38581
3.38716
3.38892
3.39014
3.39172
3.39281
3.39422
3.3952
3.39645
3.39732
3.39842
3.39919
3.40016
3.40083
3.40169
3.4023
3.4031
3.40373
3.4047
3.4056
3.4061
3.40661
3.40693
3.40731
3.40756
3.40785
3.40805
3.40828
3.40844
3.40862
3.40875
3.40889
3.40898
3.40909
3.40916
3.40924
3.40929
3.40935
3.40938
3.40941
3.40943
3.40946
3.40947
3.40949
3.40949
3.40949
3.40948
3.40946
3.40943
3.40937
3.40931
3.4092
3.40909
3.40889
3.40867
3.40827
3.40779
3.40682
3.40542
3.40223
3.39782
3.39389
3.38733
3.38109
3.3711
3.36692
3.36568
3.36536
3.36529
3.16613
3.20887
3.23424
3.25901
3.27181
3.28401
3.2905
3.29704
3.30053
3.30409
3.30645
3.30971
3.31191
3.31488
3.31688
3.31955
3.32134
3.32373
3.32532
3.32744
3.32885
3.33072
3.33197
3.33361
3.33471
3.33617
3.33715
3.3385
3.33954
3.34117
3.34269
3.3435
3.34437
3.34489
3.34552
3.34593
3.34643
3.34675
3.34714
3.3474
3.34771
3.34791
3.34815
3.3483
3.34849
3.3486
3.34874
3.34882
3.34891
3.34897
3.34902
3.34905
3.3491
3.34912
3.34915
3.34915
3.34915
3.34914
3.3491
3.34905
3.34896
3.34886
3.34867
3.34849
3.34815
3.3478
3.34711
3.34634
3.34472
3.34244
3.33711
3.32968
3.32327
3.3122
3.30198
3.28491
3.27807
3.2761
3.27559
3.27548
3.03021
3.09335
3.12798
3.16327
3.18057
3.19793
3.2067
3.21603
3.22075
3.22579
3.22899
3.23364
3.23663
3.24089
3.24359
3.24742
3.24984
3.25326
3.25542
3.25845
3.26036
3.26305
3.26473
3.26709
3.26857
3.27066
3.27199
3.27392
3.27532
3.27765
3.27981
3.2809
3.28213
3.28284
3.28375
3.28429
3.28501
3.28544
3.28601
3.28635
3.2868
3.28707
3.28742
3.28762
3.28789
3.28804
3.28824
3.28835
3.28848
3.28855
3.28863
3.28868
3.28874
3.28877
3.2888
3.28882
3.28881
3.28879
3.28874
3.28867
3.28854
3.28841
3.28814
3.2879
3.28741
3.28693
3.28597
3.28493
3.28265
3.27959
3.27208
3.2615
3.25284
3.23704
3.22314
3.19831
3.18902
3.18645
3.18581
3.18566
2.89176
2.97898
3.02169
3.06825
3.08933
3.11219
3.12288
3.1352
3.14094
3.14756
3.15146
3.15765
3.1613
3.16696
3.17026
3.17535
3.1783
3.18284
3.18548
3.18951
3.19185
3.19541
3.19747
3.2006
3.20241
3.20518
3.20681
3.20936
3.21106
3.21413
3.21696
3.2183
3.21992
3.22078
3.22198
3.22265
3.2236
3.22413
3.22489
3.2253
3.2259
3.22623
3.22669
3.22694
3.22729
3.22748
3.22774
3.22788
3.22805
3.22814
3.22824
3.2283
3.22838
3.22842
3.22847
3.22848
3.22847
3.22845
3.22838
3.2283
3.22812
3.22796
3.22761
3.22731
3.22667
3.22609
3.22482
3.22356
3.22061
3.21691
3.20716
3.19324
3.18269
3.16181
3.14474
3.11109
3.09971
3.09673
3.096
3.09584
2.74982
2.86638
2.91525
2.97425
2.99802
3.02694
3.03899
3.05463
3.06111
3.06944
3.07384
3.08176
3.08588
3.09312
3.09686
3.10335
3.1067
3.1125
3.11548
3.12064
3.12328
3.12783
3.13016
3.13416
3.13622
3.13975
3.14159
3.14484
3.14675
3.15062
3.15418
3.15568
3.15773
3.1587
3.16024
3.16099
3.16221
3.16281
3.16377
3.16425
3.16501
3.16538
3.16597
3.16625
3.1667
3.16692
3.16725
3.1674
3.16763
3.16773
3.16785
3.16792
3.16802
3.16807
3.16813
3.16814
3.16814
3.16811
3.16802
3.16793
3.1677
3.16752
3.16708
3.16674
3.16592
3.16527
3.16368
3.16227
3.15859
3.15447
3.14241
3.12485
3.11295
3.08642
3.067
3.02298
3.01005
3.00692
3.00618
3.00601
2.60322
2.75649
2.8084
2.88166
2.9065
2.94236
2.95496
2.97442
2.98119
2.99148
2.99608
3.00601
3.01035
3.01942
3.02335
3.03149
3.035
3.04227
3.0454
3.05186
3.05464
3.06034
3.06279
3.06781
3.06996
3.07438
3.07631
3.08037
3.08236
3.08712
3.09148
3.09304
3.09559
3.09661
3.09853
3.09932
3.10084
3.10147
3.10268
3.10318
3.10413
3.10452
3.10526
3.10556
3.10613
3.10635
3.10676
3.10692
3.10721
3.10731
3.10747
3.10754
3.10767
3.10772
3.10779
3.10781
3.1078
3.10777
3.10766
3.10756
3.10728
3.10709
3.10655
3.10619
3.10517
3.10449
3.10252
3.10106
3.0966
3.09236
3.07788
3.05623
3.0438
3.01075
2.99025
2.93363
2.92001
2.91701
2.91633
2.91618
2.45048
2.65065
2.70069
2.791
2.81453
2.85871
2.87065
2.89472
2.90114
2.91374
2.91811
2.93049
2.93462
2.94593
2.94966
2.95981
2.96315
2.97221
2.97519
2.98323
2.98588
2.99298
2.99531
3.00156
3.00361
3.00912
3.01095
3.01598
3.01786
3.02364
3.02889
3.03036
3.03351
3.03448
3.03687
3.03762
3.03951
3.04011
3.04162
3.04209
3.04328
3.04365
3.04457
3.04486
3.04556
3.04577
3.04629
3.04644
3.0468
3.04689
3.04709
3.04715
3.04732
3.04736
3.04746
3.04747
3.04747
3.04744
3.04729
3.04721
3.04686
3.04668
3.046
3.04567
3.04441
3.04377
3.04135
3.03997
3.0346
3.03065
3.01364
2.98724
2.97548
2.93458
2.91494
2.84256
2.82955
2.82701
2.82646
2.82634
2.28973
2.55081
2.59137
2.70301
2.72174
2.77635
2.78586
2.81572
2.82083
2.83633
2.83981
2.8553
2.8586
2.87273
2.87572
2.8884
2.89107
2.90239
2.90477
2.91482
2.91694
2.92582
2.92768
2.93548
2.93712
2.944
2.94546
2.95171
2.95321
2.96018
2.96645
2.96761
2.97151
2.97229
2.97527
2.97587
2.97824
2.97871
2.9806
2.98097
2.98246
2.98275
2.98391
2.98414
2.98501
2.98518
2.98583
2.98595
2.98639
2.98647
2.98671
2.98676
2.98697
2.98701
2.98713
2.98714
2.98713
2.98711
2.98693
2.98686
2.98643
2.98629
2.98545
2.98518
2.98362
2.98311
2.98014
2.97905
2.97254
2.96947
2.94978
2.91767
2.90832
2.85755
2.84174
2.74911
2.73866
2.73693
2.73657
2.73649
2.11853
2.45979
2.4792
2.61873
2.62751
2.69579
2.70025
2.73772
2.74011
2.7594
2.76103
2.78059
2.78215
2.79998
2.80139
2.81738
2.81865
2.83292
2.83404
2.84673
2.84772
2.85893
2.85981
2.86965
2.87043
2.87909
2.87978
2.88763
2.88833
2.89675
2.90422
2.90475
2.90965
2.91001
2.91376
2.91405
2.91703
2.91726
2.91963
2.91981
2.92169
2.92183
2.92328
2.92339
2.9245
2.92458
2.92539
2.92545
2.92601
2.92604
2.92635
2.92637
2.92663
2.92665
2.9268
2.92681
2.9268
2.92679
2.92656
2.92653
2.92599
2.92592
2.92487
2.92474
2.9228
2.92256
2.91885
2.91834
2.91034
2.90895
2.88641
2.84719
2.84282
2.77913
2.77162
2.65238
2.64743
2.6468
2.64667
2.64665
)
;

boundaryField
{
    F1_1
    {
        type            fixedValue;
        value           nonuniform List<scalar> 
80
(
2.02627
2.42115
2.42115
2.58019
2.58019
2.65895
2.65895
2.70422
2.70422
2.73277
2.73277
2.74916
2.74916
2.76709
2.76709
2.78413
2.78413
2.79976
2.79976
2.81384
2.81384
2.82637
2.82637
2.83743
2.83743
2.84719
2.84719
2.85603
2.85603
2.86527
2.87339
2.87339
2.87891
2.87891
2.88317
2.88317
2.88655
2.88655
2.88925
2.88925
2.89138
2.89138
2.89303
2.89303
2.89428
2.89428
2.89521
2.89521
2.89584
2.89584
2.89618
2.89618
2.89648
2.89648
2.89665
2.89665
2.89664
2.89664
2.89638
2.89638
2.89576
2.89576
2.89457
2.89457
2.89235
2.89235
2.88814
2.88814
2.87912
2.87912
2.85508
2.81127
2.81127
2.73882
2.73882
2.60175
2.60175
2.60175
2.60175
2.60175
)
;
    }
    F1_2
    {
        type            fixedValue;
        value           nonuniform List<scalar> 
80
(
2.06397
2.47809
2.47809
2.69635
2.69635
2.8416
2.8416
2.94908
2.94908
3.02907
3.02907
3.07871
3.07871
3.13302
3.13302
3.18366
3.18366
3.22863
3.22863
3.26777
3.26777
3.3015
3.3015
3.33044
3.33044
3.35534
3.35534
3.37739
3.37739
3.39993
3.41957
3.41957
3.43292
3.43292
3.44326
3.44326
3.45163
3.45163
3.45848
3.45848
3.4641
3.4641
3.4687
3.4687
3.47244
3.47244
3.47542
3.47542
3.47768
3.47768
3.47907
3.47907
3.48055
3.48055
3.48187
3.48187
3.48299
3.48299
3.48391
3.48391
3.48464
3.48464
3.48518
3.48518
3.48545
3.48545
3.48514
3.48514
3.48286
3.48286
3.47265
3.44881
3.44881
3.39944
3.39944
3.28872
3.28872
3.28872
3.28872
3.28872
)
;
    }
    F1_3
    {
        type            fixedValue;
        value           nonuniform List<scalar> 
80
(
2.06397
2.47809
2.47809
2.69635
2.69635
2.8416
2.8416
2.94908
2.94908
3.02907
3.02907
3.0787
3.0787
3.13302
3.13302
3.18365
3.18365
3.22863
3.22863
3.26777
3.26777
3.30149
3.30149
3.33043
3.33043
3.35534
3.35534
3.37739
3.37739
3.39992
3.41957
3.41957
3.43292
3.43292
3.44326
3.44326
3.45162
3.45162
3.45848
3.45848
3.4641
3.4641
3.4687
3.4687
3.47244
3.47244
3.47542
3.47542
3.47768
3.47768
3.47907
3.47907
3.48055
3.48055
3.48187
3.48187
3.48299
3.48299
3.48391
3.48391
3.48464
3.48464
3.48518
3.48518
3.48545
3.48545
3.48514
3.48514
3.48286
3.48286
3.47265
3.44881
3.44881
3.39943
3.39943
3.28871
3.28871
3.28871
3.28871
3.28871
)
;
    }
    F1_4
    {
        type            fixedValue;
        value           nonuniform List<scalar> 
80
(
2.02605
2.42068
2.42068
2.57917
2.57917
2.65676
2.65676
2.69939
2.69939
2.72127
2.72127
2.74358
2.74358
2.76392
2.76392
2.78216
2.78216
2.79844
2.79844
2.81291
2.81291
2.82568
2.82568
2.83691
2.83691
2.8468
2.8468
2.85573
2.85573
2.86505
2.87323
2.87323
2.8788
2.8788
2.88308
2.88308
2.88648
2.88648
2.8892
2.8892
2.89133
2.89133
2.89299
2.89299
2.89426
2.89426
2.89519
2.89519
2.89583
2.89583
2.89617
2.89617
2.89647
2.89647
2.89664
2.89664
2.89664
2.89664
2.89638
2.89638
2.89576
2.89576
2.89456
2.89456
2.89235
2.89235
2.88814
2.88814
2.87911
2.87911
2.85507
2.81126
2.81126
2.7388
2.7388
2.60173
2.60173
2.60173
2.60173
2.60173
)
;
    }
    F2_1
    {
        type            fixedValue;
        value           uniform 3.5;
    }
    F2_2
    {
        type            fixedValue;
        value           uniform 3.5;
    }
    F2_3
    {
        type            fixedValue;
        value           uniform 3.5;
    }
    F2_4
    {
        type            fixedValue;
        value           uniform 3.5;
    }
    defaultFaces
    {
        type            empty;
    }
}


// ************************************************************************* //
