/*--------------------------------*- C++ -*----------------------------------*\
| =========                 |                                                 |
| \\      /  F ield         | OpenFOAM: The Open Source CFD Toolbox           |
|  \\    /   O peration     | Version:  5.x                                   |
|   \\  /    A nd           | Web:      www.OpenFOAM.org                      |
|    \\/     M anipulation  |                                                 |
\*---------------------------------------------------------------------------*/
FoamFile
{
    version     2.0;
    format      ascii;
    class       volScalarField;
    location    "1.4";
    object      T;
}
// * * * * * * * * * * * * * * * * * * * * * * * * * * * * * * * * * * * * * //

dimensions      [0 0 0 1 0 0 0];

internalField   nonuniform List<scalar> 
6300
(
322.853
322.56
322.266
321.969
321.671
321.37
321.065
320.756
320.442
320.124
319.8
319.47
319.135
318.794
318.448
322.854
322.561
322.267
321.972
321.674
321.373
321.069
320.76
320.447
320.129
319.805
319.476
319.141
318.8
318.453
322.854
322.563
322.271
321.976
321.68
321.38
321.077
320.769
320.457
320.14
319.816
319.487
319.152
318.811
318.464
322.856
322.566
322.276
321.984
321.689
321.391
321.089
320.783
320.472
320.156
319.834
319.505
319.17
318.829
318.481
322.857
322.57
322.283
321.993
321.701
321.406
321.106
320.802
320.493
320.178
319.857
319.529
319.194
318.852
318.504
322.859
322.576
322.291
322.005
321.716
321.424
321.128
320.827
320.52
320.207
319.887
319.56
319.225
318.883
318.533
322.861
322.582
322.302
322.02
321.735
321.447
321.154
320.856
320.553
320.242
319.924
319.598
319.263
318.92
318.569
322.863
322.589
322.314
322.037
321.758
321.474
321.186
320.892
320.592
320.285
319.969
319.644
319.31
318.966
318.613
322.866
322.598
322.329
322.058
321.784
321.506
321.223
320.934
320.639
320.336
320.023
319.701
319.367
319.022
318.666
322.87
322.608
322.346
322.081
321.814
321.542
321.266
320.984
320.694
320.396
320.087
319.768
319.435
319.089
318.729
322.873
322.619
322.364
322.107
321.847
321.584
321.315
321.04
320.757
320.466
320.163
319.847
319.517
319.17
318.805
322.877
322.632
322.385
322.136
321.885
321.63
321.37
321.104
320.83
320.547
320.252
319.942
319.615
319.269
318.9
322.882
322.645
322.408
322.168
321.926
321.681
321.431
321.176
320.912
320.64
320.354
320.054
319.734
319.39
319.019
322.887
322.66
322.432
322.203
321.971
321.737
321.498
321.255
321.004
320.745
320.473
320.185
319.875
319.539
319.171
322.892
322.675
322.458
322.239
322.019
321.797
321.571
321.341
321.105
320.862
320.608
320.338
320.044
319.718
319.357
318.125
317.828
317.527
317.224
316.917
316.607
316.294
315.979
315.662
315.342
315.021
314.697
314.372
314.046
313.719
313.391
313.062
312.732
312.402
312.072
311.741
311.41
311.08
310.749
310.418
310.086
309.755
309.424
309.092
308.761
308.429
308.098
307.767
307.436
307.105
306.774
306.444
306.114
305.784
305.454
305.124
304.795
304.465
304.135
303.805
303.476
303.146
302.817
302.488
302.159
301.83
301.502
301.173
300.845
300.517
300.189
299.861
299.533
299.205
298.877
298.549
298.221
297.894
297.567
297.24
296.913
296.587
296.261
295.935
295.61
295.284
294.959
294.634
294.309
293.984
293.659
293.335
293.011
292.687
292.364
292.04
291.717
291.393
291.07
290.745
290.42
290.094
289.767
289.44
289.111
318.13
317.833
317.532
317.228
316.921
316.611
316.298
315.982
315.665
315.345
315.023
314.7
314.374
314.048
313.72
313.392
313.062
312.733
312.402
312.072
311.741
311.411
311.08
310.749
310.418
310.087
309.755
309.424
309.092
308.761
308.429
308.098
307.766
307.435
307.105
306.774
306.444
306.114
305.784
305.454
305.124
304.795
304.465
304.135
303.805
303.475
303.146
302.816
302.487
302.158
301.83
301.501
301.173
300.845
300.517
300.189
299.861
299.533
299.205
298.877
298.549
298.221
297.893
297.566
297.239
296.913
296.587
296.261
295.935
295.609
295.284
294.959
294.633
294.308
293.984
293.659
293.335
293.011
292.687
292.363
292.04
291.717
291.394
291.07
290.746
290.421
290.096
289.769
289.441
289.112
318.141
317.843
317.542
317.237
316.929
316.618
316.305
315.989
315.671
315.351
315.028
314.704
314.378
314.051
313.723
313.394
313.064
312.734
312.403
312.072
311.742
311.411
311.08
310.749
310.418
310.087
309.756
309.424
309.092
308.76
308.429
308.097
307.766
307.435
307.104
306.773
306.443
306.113
305.784
305.454
305.124
304.795
304.465
304.135
303.805
303.475
303.145
302.816
302.486
302.158
301.829
301.501
301.173
300.845
300.517
300.189
299.861
299.533
299.204
298.876
298.548
298.22
297.892
297.565
297.238
296.912
296.586
296.26
295.934
295.609
295.283
294.958
294.633
294.308
293.983
293.658
293.334
293.01
292.686
292.363
292.04
291.717
291.395
291.072
290.748
290.424
290.099
289.772
289.444
289.115
318.157
317.858
317.556
317.25
316.942
316.63
316.316
315.999
315.68
315.359
315.036
314.711
314.384
314.056
313.727
313.397
313.066
312.735
312.404
312.073
311.742
311.411
311.081
310.75
310.419
310.088
309.756
309.424
309.092
308.76
308.428
308.096
307.764
307.433
307.103
306.772
306.442
306.113
305.783
305.454
305.124
304.795
304.465
304.135
303.804
303.474
303.144
302.814
302.485
302.156
301.828
301.5
301.172
300.844
300.517
300.189
299.861
299.533
299.204
298.876
298.547
298.219
297.891
297.564
297.237
296.91
296.584
296.259
295.933
295.608
295.283
294.958
294.632
294.307
293.982
293.657
293.332
293.008
292.685
292.362
292.04
291.718
291.396
291.074
290.751
290.428
290.103
289.777
289.449
289.12
318.179
317.879
317.575
317.268
316.958
316.646
316.33
316.013
315.693
315.37
315.046
314.72
314.392
314.063
313.732
313.4
313.069
312.737
312.405
312.074
311.742
311.412
311.081
310.751
310.42
310.089
309.757
309.425
309.092
308.76
308.427
308.095
307.763
307.431
307.101
306.771
306.441
306.112
305.783
305.454
305.125
304.795
304.465
304.134
303.804
303.473
303.143
302.813
302.483
302.154
301.826
301.499
301.171
300.844
300.517
300.189
299.861
299.533
299.204
298.875
298.546
298.217
297.889
297.561
297.234
296.908
296.582
296.257
295.932
295.607
295.282
294.957
294.631
294.306
293.98
293.655
293.33
293.006
292.682
292.36
292.038
291.718
291.397
291.077
290.755
290.433
290.11
289.784
289.457
289.127
318.206
317.905
317.599
317.291
316.979
316.665
316.348
316.029
315.708
315.385
315.059
314.732
314.402
314.071
313.738
313.405
313.071
312.738
312.405
312.073
311.742
311.412
311.082
310.752
310.421
310.09
309.759
309.426
309.093
308.759
308.426
308.092
307.76
307.428
307.098
306.768
306.439
306.111
305.783
305.454
305.126
304.796
304.466
304.135
303.803
303.472
303.14
302.81
302.48
302.151
301.824
301.497
301.17
300.844
300.517
300.19
299.862
299.533
299.204
298.874
298.544
298.215
297.886
297.558
297.231
296.905
296.58
296.255
295.931
295.607
295.282
294.957
294.631
294.305
293.978
293.652
293.326
293.002
292.679
292.357
292.036
291.717
291.399
291.08
290.761
290.441
290.119
289.795
289.468
289.138
318.24
317.936
317.628
317.317
317.003
316.687
316.369
316.049
315.727
315.402
315.076
314.746
314.414
314.081
313.745
313.41
313.074
312.739
312.405
312.072
311.741
311.411
311.082
310.753
310.424
310.093
309.761
309.428
309.094
308.759
308.424
308.089
307.756
307.424
307.093
306.764
306.436
306.109
305.783
305.456
305.127
304.798
304.467
304.135
303.803
303.47
303.137
302.806
302.476
302.147
301.82
301.494
301.169
300.844
300.519
300.192
299.864
299.535
299.205
298.873
298.542
298.211
297.881
297.553
297.226
296.9
296.576
296.253
295.93
295.607
295.283
294.957
294.631
294.304
293.976
293.648
293.321
292.996
292.673
292.352
292.033
291.716
291.4
291.084
290.769
290.451
290.132
289.809
289.482
289.152
318.281
317.974
317.662
317.348
317.031
316.712
316.393
316.072
315.749
315.424
315.095
314.764
314.43
314.093
313.754
313.414
313.075
312.737
312.402
312.069
311.738
311.41
311.082
310.755
310.427
310.098
309.766
309.432
309.096
308.759
308.421
308.085
307.749
307.417
307.086
306.758
306.433
306.108
305.783
305.458
305.131
304.802
304.47
304.137
303.802
303.467
303.133
302.8
302.469
302.141
301.815
301.491
301.168
300.845
300.521
300.196
299.868
299.538
299.206
298.873
298.539
298.206
297.874
297.545
297.218
296.894
296.572
296.251
295.93
295.608
295.285
294.959
294.632
294.303
293.973
293.643
293.314
292.988
292.664
292.344
292.026
291.712
291.4
291.089
290.778
290.465
290.149
289.829
289.503
289.172
318.329
318.017
317.701
317.381
317.061
316.74
316.419
316.097
315.774
315.449
315.12
314.786
314.449
314.107
313.763
313.418
313.074
312.733
312.395
312.062
311.733
311.407
311.082
310.758
310.433
310.105
309.774
309.439
309.1
308.759
308.418
308.077
307.74
307.406
307.076
306.75
306.427
306.106
305.785
305.463
305.138
304.809
304.477
304.141
303.803
303.464
303.126
302.79
302.458
302.131
301.807
301.486
301.166
300.847
300.526
300.203
299.875
299.544
299.21
298.873
298.535
298.199
297.864
297.534
297.208
296.885
296.565
296.248
295.93
295.611
295.289
294.964
294.636
294.304
293.97
293.636
293.304
292.975
292.65
292.33
292.016
291.706
291.399
291.094
290.79
290.483
290.172
289.856
289.532
289.199
318.387
318.068
317.743
317.417
317.091
316.767
316.445
316.125
315.803
315.479
315.15
314.815
314.473
314.126
313.774
313.421
313.069
312.723
312.383
312.049
311.723
311.401
311.082
310.764
310.443
310.118
309.787
309.45
309.108
308.761
308.413
308.066
307.725
307.389
307.06
306.737
306.419
306.104
305.789
305.471
305.149
304.822
304.488
304.148
303.804
303.459
303.115
302.776
302.442
302.115
301.795
301.478
301.165
300.851
300.535
300.214
299.888
299.555
299.217
298.874
298.53
298.187
297.849
297.517
297.191
296.872
296.557
296.244
295.932
295.618
295.299
294.975
294.644
294.308
293.968
293.627
293.289
292.955
292.629
292.31
291.999
291.695
291.396
291.099
290.804
290.506
290.204
289.894
289.572
289.239
318.455
318.125
317.789
317.452
317.118
316.791
316.47
316.153
315.837
315.516
315.189
314.853
314.507
314.15
313.787
313.42
313.058
312.704
312.36
312.027
311.705
311.391
311.081
310.772
310.459
310.139
309.809
309.47
309.121
308.764
308.405
308.049
307.701
307.363
307.035
306.718
306.407
306.101
305.796
305.486
305.169
304.843
304.507
304.161
303.807
303.451
303.098
302.752
302.416
302.091
301.776
301.467
301.163
300.859
300.55
300.235
299.91
299.575
299.23
298.877
298.522
298.17
297.825
297.49
297.166
296.851
296.544
296.241
295.938
295.631
295.317
294.994
294.66
294.317
293.967
293.615
293.266
292.926
292.596
292.279
291.972
291.676
291.387
291.103
290.821
290.537
290.248
289.947
289.631
289.295
318.539
318.193
317.836
317.481
317.136
316.806
316.489
316.181
315.875
315.564
315.242
314.906
314.554
314.185
313.803
313.415
313.035
312.669
312.321
311.991
311.676
311.374
311.079
310.785
310.485
310.173
309.846
309.504
309.144
308.771
308.393
308.021
307.662
307.321
306.996
306.687
306.389
306.099
305.808
305.511
305.203
304.88
304.54
304.184
303.815
303.439
303.07
302.714
302.376
302.053
301.746
301.45
301.161
300.872
300.576
300.269
299.947
299.608
299.253
298.885
298.51
298.142
297.787
297.449
297.127
296.821
296.525
296.237
295.949
295.654
295.348
295.027
294.69
294.336
293.97
293.597
293.232
292.88
292.546
292.23
291.931
291.647
291.373
291.105
290.84
290.576
290.307
290.024
289.718
289.38
318.648
318.279
317.879
317.495
317.133
316.802
316.495
316.206
315.921
315.626
315.316
314.982
314.625
314.238
313.828
313.399
312.991
312.608
312.257
311.931
311.63
311.347
311.077
310.808
310.526
310.229
309.907
309.562
309.186
308.787
308.371
307.973
307.598
307.255
306.935
306.64
306.361
306.096
305.83
305.552
305.258
304.94
304.598
304.226
303.831
303.418
303.024
302.652
302.311
301.994
301.7
301.423
301.159
300.894
300.617
300.324
300.007
299.666
299.295
298.901
298.488
298.095
297.723
297.383
297.066
296.774
296.497
296.233
295.969
295.693
295.4
295.084
294.744
294.374
293.981
293.57
293.178
292.809
292.471
292.158
291.87
291.601
291.349
291.103
290.858
290.621
290.385
290.135
289.849
289.511
318.804
318.408
317.902
317.475
317.085
316.766
316.473
316.225
315.982
315.709
315.424
315.092
314.741
314.323
313.878
313.355
312.912
312.5
312.156
311.834
311.56
311.3
311.074
310.848
310.59
310.319
310.001
309.664
309.26
308.829
308.322
307.891
307.49
307.154
306.838
306.57
306.315
306.092
305.87
305.616
305.348
305.033
304.699
304.3
303.874
303.37
302.944
302.545
302.212
301.899
301.632
301.378
301.157
300.935
300.682
300.415
300.101
299.768
299.37
298.943
298.441
298.014
297.616
297.283
296.97
296.703
296.45
296.229
296.008
295.755
295.488
295.174
294.842
294.444
294.018
293.516
293.09
292.692
292.36
292.048
291.783
291.532
291.314
291.1
290.864
290.666
290.486
290.294
290.058
289.73
319.048
318.695
317.809
317.405
316.934
316.691
316.388
316.235
316.088
315.809
315.6
315.227
314.953
314.448
314.042
313.194
312.789
312.294
312.026
311.667
311.468
311.206
311.07
310.935
310.674
310.478
310.123
309.86
309.375
308.982
308.161
307.769
307.286
307.025
306.674
306.479
306.222
306.089
305.955
305.699
305.505
305.155
304.895
304.415
304.026
303.212
302.823
302.345
302.086
301.737
301.543
301.288
301.155
301.022
300.766
300.572
300.223
299.964
299.484
299.095
298.282
297.894
297.415
297.156
296.807
296.613
296.358
296.225
296.092
295.836
295.642
295.293
295.033
294.554
294.165
293.351
292.962
292.482
292.222
291.87
291.675
291.413
291.276
291.129
290.815
290.685
290.602
290.519
290.399
290.152
288.747
288.35
287.952
287.552
287.153
286.754
286.355
285.957
285.559
285.163
284.768
284.374
283.981
283.588
283.196
288.749
288.351
287.952
287.553
287.153
286.753
286.354
285.956
285.558
285.162
284.767
284.373
283.98
283.588
283.196
288.752
288.353
287.954
287.553
287.153
286.752
286.352
285.954
285.556
285.16
284.765
284.371
283.979
283.587
283.196
288.756
288.357
287.956
287.554
287.152
286.751
286.35
285.95
285.552
285.156
284.762
284.368
283.976
283.585
283.195
288.762
288.362
287.959
287.555
287.151
286.748
286.346
285.946
285.547
285.151
284.757
284.364
283.973
283.584
283.194
288.771
288.369
287.963
287.556
287.15
286.744
286.34
285.939
285.54
285.144
284.75
284.359
283.969
283.581
283.194
288.784
288.378
287.969
287.558
287.147
286.738
286.332
285.929
285.53
285.134
284.741
284.351
283.963
283.577
283.192
288.801
288.39
287.975
287.559
287.143
286.73
286.321
285.916
285.516
285.121
284.729
284.341
283.956
283.573
283.191
288.825
288.407
287.984
287.559
287.136
286.718
286.305
285.899
285.498
285.104
284.714
284.329
283.947
283.567
283.189
288.858
288.429
287.994
287.557
287.125
286.7
286.283
285.875
285.475
285.082
284.695
284.313
283.935
283.56
283.186
288.905
288.459
288.004
287.551
287.107
286.673
286.252
285.843
285.444
285.053
284.67
284.293
283.921
283.551
283.184
288.972
288.496
288.013
287.537
287.077
286.635
286.21
285.8
285.404
285.018
284.64
284.269
283.903
283.541
283.18
289.07
288.542
288.013
287.507
287.029
286.579
286.152
285.745
285.353
284.974
284.603
284.24
283.882
283.528
283.176
289.216
288.589
287.992
287.448
286.954
286.5
286.076
285.674
285.291
284.92
284.559
284.206
283.858
283.513
283.171
289.427
288.606
287.917
287.339
286.839
286.39
285.976
285.587
285.215
284.856
284.508
284.166
283.829
283.496
283.165
322.897
322.69
322.483
322.274
322.065
321.854
321.641
321.425
321.205
320.979
320.746
320.499
320.23
319.915
319.506
322.901
322.704
322.506
322.307
322.108
321.908
321.707
321.504
321.299
321.092
320.88
320.662
320.429
320.159
319.75
322.906
322.718
322.529
322.341
322.152
321.963
321.774
321.585
321.395
321.207
321.019
320.834
320.655
320.499
320.446
322.91
322.731
322.553
322.374
322.196
322.018
321.841
321.665
321.491
321.321
321.157
321.002
320.866
320.767
320.731
322.915
322.745
322.576
322.407
322.239
322.072
321.907
321.744
321.585
321.432
321.287
321.157
321.052
320.99
321.015
322.92
322.759
322.599
322.44
322.282
322.125
321.971
321.82
321.675
321.536
321.408
321.295
321.207
321.155
321.147
322.924
322.773
322.622
322.471
322.323
322.177
322.033
321.894
321.759
321.633
321.517
321.416
321.337
321.288
321.288
322.928
322.786
322.643
322.502
322.363
322.226
322.092
321.963
321.839
321.723
321.616
321.522
321.445
321.388
321.352
322.933
322.798
322.664
322.532
322.401
322.273
322.148
322.028
321.913
321.806
321.706
321.617
321.54
321.472
321.405
322.937
322.81
322.684
322.56
322.438
322.318
322.202
322.09
321.983
321.882
321.789
321.704
321.627
321.557
321.495
322.94
322.822
322.704
322.587
322.472
322.36
322.252
322.148
322.048
321.954
321.867
321.785
321.709
321.636
321.555
322.944
322.833
322.722
322.612
322.505
322.401
322.299
322.202
322.109
322.022
321.94
321.863
321.79
321.72
321.654
322.948
322.843
322.739
322.637
322.536
322.438
322.344
322.253
322.167
322.086
322.009
321.938
321.869
321.8
321.719
322.951
322.853
322.755
322.659
322.565
322.474
322.386
322.301
322.221
322.146
322.076
322.01
321.948
321.888
321.829
322.954
322.862
322.77
322.681
322.593
322.507
322.425
322.347
322.272
322.203
322.139
322.08
322.027
321.975
321.91
322.957
322.87
322.785
322.7
322.618
322.538
322.462
322.389
322.32
322.256
322.198
322.147
322.103
322.072
322.068
322.959
322.878
322.798
322.719
322.642
322.567
322.496
322.428
322.364
322.306
322.253
322.208
322.172
322.148
322.139
322.962
322.886
322.81
322.736
322.664
322.594
322.527
322.464
322.405
322.351
322.303
322.263
322.232
322.214
322.219
322.964
322.893
322.822
322.752
322.685
322.619
322.557
322.497
322.442
322.392
322.348
322.311
322.283
322.265
322.258
322.966
322.899
322.833
322.767
322.704
322.642
322.583
322.528
322.476
322.429
322.388
322.353
322.326
322.309
322.307
322.968
322.905
322.842
322.781
322.721
322.663
322.608
322.555
322.507
322.462
322.423
322.389
322.362
322.343
322.331
322.97
322.91
322.851
322.793
322.737
322.682
322.63
322.581
322.534
322.492
322.454
322.421
322.393
322.372
322.36
322.972
322.915
322.86
322.805
322.751
322.7
322.65
322.603
322.559
322.519
322.482
322.449
322.42
322.395
322.374
322.973
322.92
322.867
322.815
322.765
322.716
322.669
322.624
322.582
322.543
322.507
322.474
322.443
322.415
322.387
322.975
322.924
322.874
322.825
322.777
322.731
322.686
322.643
322.603
322.565
322.529
322.496
322.465
322.436
322.408
322.976
322.928
322.881
322.834
322.788
322.744
322.702
322.661
322.622
322.585
322.551
322.518
322.487
322.456
322.423
322.977
322.932
322.887
322.842
322.799
322.757
322.716
322.677
322.64
322.604
322.57
322.538
322.507
322.477
322.447
322.978
322.935
322.892
322.85
322.808
322.768
322.729
322.692
322.656
322.622
322.589
322.558
322.528
322.497
322.464
322.979
322.938
322.897
322.857
322.817
322.779
322.741
322.705
322.671
322.638
322.607
322.577
322.548
322.52
322.491
322.98
322.941
322.902
322.863
322.825
322.788
322.753
322.718
322.685
322.654
322.624
322.595
322.568
322.542
322.512
322.981
322.943
322.906
322.869
322.833
322.797
322.763
322.73
322.698
322.668
322.639
322.613
322.588
322.567
322.553
322.982
322.946
322.91
322.874
322.839
322.805
322.772
322.741
322.71
322.681
322.654
322.629
322.606
322.587
322.571
322.983
322.948
322.913
322.879
322.845
322.813
322.781
322.75
322.721
322.693
322.667
322.643
322.622
322.604
322.591
322.983
322.95
322.916
322.883
322.851
322.819
322.789
322.759
322.731
322.704
322.679
322.656
322.635
322.617
322.602
322.984
322.951
322.919
322.887
322.856
322.826
322.796
322.767
322.74
322.714
322.689
322.666
322.646
322.628
322.614
322.984
322.953
322.922
322.891
322.861
322.831
322.802
322.775
322.748
322.722
322.698
322.676
322.655
322.637
322.62
322.985
322.954
322.924
322.894
322.865
322.836
322.808
322.781
322.755
322.73
322.706
322.684
322.663
322.644
322.628
322.985
322.956
322.926
322.897
322.869
322.841
322.813
322.787
322.761
322.737
322.713
322.691
322.67
322.65
322.631
322.986
322.957
322.928
322.9
322.872
322.845
322.818
322.792
322.767
322.743
322.719
322.697
322.676
322.655
322.634
322.986
322.958
322.93
322.902
322.875
322.848
322.822
322.797
322.772
322.748
322.725
322.702
322.681
322.66
322.64
322.986
322.959
322.931
322.904
322.878
322.851
322.826
322.801
322.776
322.753
322.73
322.707
322.686
322.665
322.643
322.987
322.96
322.933
322.906
322.88
322.854
322.829
322.804
322.78
322.757
322.734
322.712
322.69
322.669
322.649
322.987
322.96
322.934
322.908
322.882
322.857
322.832
322.807
322.784
322.761
322.738
322.716
322.695
322.674
322.652
322.987
322.961
322.935
322.909
322.884
322.859
322.834
322.81
322.787
322.764
322.742
322.72
322.699
322.678
322.658
322.987
322.961
322.936
322.91
322.885
322.861
322.836
322.813
322.789
322.767
322.745
322.724
322.703
322.683
322.662
322.987
322.962
322.936
322.911
322.887
322.862
322.838
322.815
322.792
322.769
322.748
322.727
322.706
322.687
322.67
322.987
322.962
322.937
322.912
322.888
322.863
322.84
322.816
322.794
322.771
322.75
322.729
322.709
322.691
322.673
322.987
322.962
322.937
322.913
322.888
322.864
322.841
322.817
322.795
322.773
322.752
322.731
322.712
322.693
322.676
322.987
322.963
322.938
322.913
322.889
322.865
322.841
322.818
322.796
322.774
322.753
322.733
322.713
322.695
322.677
322.988
322.963
322.938
322.913
322.889
322.865
322.842
322.819
322.796
322.775
322.754
322.734
322.714
322.696
322.678
322.988
322.963
322.938
322.913
322.889
322.865
322.842
322.819
322.797
322.775
322.754
322.734
322.715
322.696
322.679
322.987
322.962
322.938
322.913
322.889
322.865
322.841
322.818
322.796
322.775
322.754
322.734
322.715
322.696
322.679
322.987
322.962
322.937
322.913
322.888
322.864
322.841
322.818
322.795
322.774
322.753
322.733
322.714
322.696
322.678
322.987
322.962
322.937
322.912
322.887
322.863
322.839
322.816
322.794
322.772
322.752
322.732
322.713
322.695
322.678
322.987
322.962
322.936
322.911
322.886
322.862
322.838
322.815
322.792
322.77
322.749
322.73
322.711
322.693
322.676
322.987
322.961
322.935
322.91
322.885
322.86
322.836
322.813
322.79
322.768
322.747
322.727
322.708
322.69
322.674
322.987
322.961
322.934
322.909
322.883
322.858
322.834
322.81
322.787
322.765
322.743
322.723
322.704
322.687
322.671
322.987
322.96
322.933
322.907
322.881
322.856
322.831
322.807
322.783
322.761
322.739
322.719
322.7
322.682
322.667
322.986
322.959
322.932
322.905
322.879
322.853
322.827
322.803
322.779
322.756
322.734
322.714
322.694
322.676
322.66
322.986
322.958
322.93
322.903
322.876
322.849
322.824
322.799
322.774
322.751
322.729
322.708
322.688
322.669
322.654
322.986
322.957
322.929
322.9
322.873
322.846
322.819
322.794
322.769
322.745
322.722
322.701
322.68
322.659
322.638
322.985
322.956
322.927
322.898
322.869
322.841
322.814
322.788
322.763
322.739
322.715
322.693
322.671
322.65
322.63
322.985
322.954
322.924
322.895
322.865
322.837
322.809
322.782
322.756
322.732
322.708
322.685
322.663
322.641
322.619
322.984
322.953
322.922
322.891
322.861
322.832
322.803
322.775
322.749
322.724
322.699
322.676
322.654
322.632
322.612
322.984
322.951
322.919
322.887
322.856
322.826
322.796
322.768
322.741
322.715
322.69
322.667
322.645
322.623
322.601
322.983
322.949
322.916
322.883
322.851
322.819
322.789
322.76
322.732
322.705
322.68
322.657
322.635
322.614
322.594
322.982
322.947
322.912
322.878
322.845
322.812
322.78
322.75
322.722
322.695
322.67
322.646
322.625
322.604
322.584
322.982
322.945
322.909
322.873
322.838
322.804
322.771
322.74
322.71
322.683
322.657
322.634
322.613
322.595
322.579
322.981
322.942
322.904
322.867
322.83
322.795
322.761
322.729
322.698
322.67
322.644
322.62
322.6
322.584
322.572
322.98
322.94
322.9
322.861
322.822
322.785
322.75
322.716
322.684
322.655
322.628
322.604
322.585
322.569
322.557
322.979
322.936
322.895
322.853
322.813
322.774
322.737
322.702
322.668
322.638
322.61
322.586
322.566
322.552
322.545
322.978
322.933
322.889
322.846
322.803
322.762
322.723
322.686
322.651
322.619
322.59
322.565
322.544
322.53
322.521
322.976
322.929
322.883
322.837
322.793
322.749
322.708
322.669
322.632
322.597
322.567
322.54
322.518
322.504
322.501
322.975
322.925
322.876
322.828
322.781
322.735
322.691
322.65
322.61
322.574
322.541
322.511
322.487
322.469
322.46
322.974
322.921
322.869
322.818
322.768
322.72
322.673
322.629
322.587
322.548
322.512
322.48
322.452
322.43
322.423
322.972
322.916
322.861
322.807
322.754
322.703
322.654
322.606
322.562
322.52
322.481
322.445
322.412
322.379
322.34
322.97
322.911
322.853
322.795
322.739
322.685
322.632
322.582
322.535
322.49
322.448
322.408
322.371
322.334
322.298
322.969
322.906
322.844
322.783
322.723
322.665
322.61
322.556
322.506
322.458
322.413
322.37
322.329
322.288
322.24
322.967
322.9
322.834
322.769
322.706
322.644
322.585
322.529
322.475
322.424
322.377
322.332
322.288
322.246
322.206
322.964
322.894
322.823
322.754
322.687
322.622
322.559
322.499
322.442
322.389
322.339
322.291
322.246
322.202
322.153
322.962
322.887
322.812
322.738
322.667
322.597
322.53
322.467
322.407
322.351
322.298
322.25
322.204
322.161
322.122
322.96
322.879
322.8
322.721
322.645
322.571
322.5
322.432
322.369
322.31
322.256
322.206
322.161
322.118
322.073
322.957
322.871
322.787
322.703
322.622
322.543
322.467
322.395
322.328
322.266
322.209
322.159
322.115
322.077
322.046
322.954
322.863
322.772
322.683
322.596
322.512
322.431
322.355
322.283
322.218
322.159
322.108
322.065
322.031
322.012
322.951
322.854
322.757
322.662
322.569
322.479
322.392
322.31
322.234
322.165
322.104
322.052
322.01
321.974
321.932
322.948
322.844
322.741
322.64
322.54
322.444
322.351
322.262
322.18
322.106
322.042
321.989
321.949
321.921
321.897
322.945
322.834
322.724
322.616
322.509
322.406
322.305
322.21
322.121
322.041
321.972
321.917
321.881
321.866
321.871
322.941
322.823
322.706
322.59
322.476
322.365
322.257
322.153
322.056
321.968
321.892
321.833
321.798
321.797
321.839
322.937
322.812
322.688
322.564
322.442
322.322
322.205
322.092
321.985
321.887
321.8
321.731
321.691
321.697
321.782
322.933
322.801
322.668
322.536
322.406
322.277
322.15
322.027
321.909
321.797
321.695
321.61
321.551
321.544
321.653
289.649
288.501
287.745
287.169
286.686
286.257
285.862
285.49
285.134
284.789
284.454
284.125
283.8
283.479
283.159
289.245
288.133
287.463
286.95
286.51
286.113
285.742
285.39
285.051
284.722
284.4
284.084
283.772
283.462
283.154
287.649
287.459
287.072
286.679
286.305
285.95
285.61
285.282
284.962
284.65
284.343
284.041
283.741
283.444
283.148
287.021
286.92
286.686
286.396
286.087
285.777
285.469
285.167
284.868
284.574
284.283
283.995
283.709
283.425
283.142
286.429
286.474
286.34
286.124
285.871
285.602
285.326
285.048
284.771
284.495
284.221
283.948
283.676
283.405
283.135
286.162
286.152
286.05
285.878
285.666
285.431
285.183
284.93
284.674
284.416
284.158
283.9
283.643
283.386
283.129
285.885
285.895
285.808
285.661
285.476
285.268
285.045
284.813
284.577
284.337
284.095
283.852
283.609
283.366
283.122
285.76
285.706
285.608
285.47
285.303
285.115
284.913
284.701
284.482
284.259
284.033
283.805
283.576
283.346
283.115
285.661
285.548
285.434
285.3
285.145
284.973
284.787
284.592
284.39
284.183
283.972
283.758
283.543
283.326
283.109
285.491
285.391
285.274
285.144
284.998
284.839
284.669
284.489
284.302
284.109
283.912
283.712
283.51
283.307
283.102
285.38
285.246
285.124
284.998
284.861
284.714
284.556
284.391
284.217
284.039
283.855
283.668
283.479
283.288
283.096
285.198
285.093
284.978
284.858
284.731
284.595
284.45
284.297
284.137
283.971
283.801
283.626
283.449
283.27
283.09
285.079
284.947
284.835
284.724
284.607
284.483
284.35
284.209
284.061
283.907
283.748
283.586
283.42
283.253
283.084
284.877
284.786
284.692
284.594
284.489
284.376
284.255
284.125
283.989
283.846
283.699
283.548
283.393
283.237
283.079
284.731
284.629
284.551
284.468
284.376
284.275
284.165
284.046
283.921
283.789
283.652
283.511
283.367
283.221
283.074
284.445
284.455
284.412
284.349
284.271
284.181
284.081
283.973
283.857
283.735
283.608
283.477
283.343
283.207
283.069
284.316
284.317
284.289
284.239
284.173
284.093
284.003
283.904
283.797
283.685
283.567
283.445
283.32
283.193
283.064
284.174
284.198
284.182
284.142
284.084
284.013
283.931
283.841
283.742
283.638
283.529
283.415
283.299
283.18
283.06
284.103
284.107
284.091
284.056
284.005
283.94
283.866
283.782
283.691
283.595
283.493
283.387
283.279
283.168
283.056
284.018
284.029
284.014
283.981
283.934
283.875
283.806
283.729
283.645
283.555
283.46
283.362
283.26
283.157
283.052
283.974
283.968
283.95
283.917
283.872
283.817
283.752
283.68
283.602
283.518
283.43
283.338
283.243
283.147
283.049
283.922
283.917
283.895
283.861
283.817
283.764
283.704
283.636
283.563
283.485
283.402
283.316
283.228
283.137
283.046
283.898
283.876
283.848
283.812
283.769
283.718
283.66
283.596
283.527
283.454
283.377
283.296
283.213
283.129
283.043
283.876
283.841
283.807
283.769
283.725
283.675
283.62
283.56
283.495
283.426
283.353
283.278
283.2
283.121
283.04
283.839
283.805
283.769
283.729
283.685
283.637
283.584
283.527
283.466
283.4
283.332
283.261
283.188
283.113
283.038
283.814
283.771
283.732
283.692
283.649
283.602
283.551
283.497
283.439
283.377
283.313
283.246
283.177
283.107
283.036
283.772
283.735
283.697
283.657
283.615
283.57
283.521
283.469
283.414
283.356
283.295
283.232
283.167
283.101
283.034
283.744
283.701
283.662
283.623
283.583
283.54
283.493
283.444
283.391
283.336
283.279
283.219
283.157
283.095
283.032
283.697
283.663
283.628
283.591
283.553
283.512
283.468
283.421
283.371
283.318
283.264
283.207
283.149
283.09
283.03
283.663
283.626
283.594
283.561
283.525
283.486
283.444
283.399
283.352
283.302
283.25
283.196
283.141
283.085
283.028
283.596
283.585
283.561
283.532
283.499
283.462
283.422
283.38
283.335
283.287
283.238
283.187
283.134
283.081
283.027
283.566
283.553
283.532
283.505
283.475
283.44
283.403
283.362
283.319
283.274
283.227
283.178
283.128
283.077
283.026
283.534
283.525
283.507
283.482
283.453
283.421
283.385
283.346
283.305
283.262
283.217
283.17
283.122
283.074
283.025
283.518
283.504
283.486
283.462
283.435
283.403
283.369
283.332
283.292
283.251
283.208
283.163
283.117
283.071
283.024
283.499
283.487
283.468
283.445
283.419
283.388
283.355
283.319
283.281
283.241
283.2
283.157
283.113
283.068
283.023
283.489
283.473
283.454
283.431
283.405
283.375
283.343
283.308
283.271
283.233
283.193
283.151
283.109
283.066
283.022
283.478
283.463
283.443