/*--------------------------------*- C++ -*----------------------------------*\
| =========                 |                                                 |
| \\      /  F ield         | OpenFOAM: The Open Source CFD Toolbox           |
|  \\    /   O peration     | Version:  5.x                                   |
|   \\  /    A nd           | Web:      www.OpenFOAM.org                      |
|    \\/     M anipulation  |                                                 |
\*---------------------------------------------------------------------------*/
FoamFile
{
    version     2.0;
    format      ascii;
    class       volScalarField;
    location    "2.6";
    object      gradTy;
}
// * * * * * * * * * * * * * * * * * * * * * * * * * * * * * * * * * * * * * //

dimensions      [0 -1 0 1 0 0 0];

internalField   nonuniform List<scalar> 
2048
(
-26.4245
-26.3969
-26.3425
-26.2629
-26.1601
-26.0368
-25.8955
-25.7393
-25.5708
-25.3927
-25.2073
-25.0167
-24.823
-24.6277
-24.4325
-24.2385
-24.047
-23.8589
-23.6748
-23.4954
-23.3212
-23.1524
-22.9894
-22.8323
-22.6814
-22.537
-22.3993
-22.2687
-22.1455
-22.0303
-21.9235
-21.8258
-21.738
-21.6609
-21.5954
-21.5425
-21.5034
-21.4792
-21.4711
-21.4804
-21.5084
-21.5562
-21.6252
-21.7164
-21.8309
-21.9693
-22.1321
-22.3193
-22.53
-22.763
-23.0158
-23.2854
-23.5672
-23.8562
-24.1462
-24.4307
-24.7029
-24.9562
-25.1846
-25.3826
-25.546
-25.6713
-25.7561
-25.7989
-26.4468
-26.4185
-26.3629
-26.2816
-26.1768
-26.0512
-25.9077
-25.7492
-25.5786
-25.3986
-25.2114
-25.0193
-24.8242
-24.6277
-24.4314
-24.2366
-24.0443
-23.8555
-23.671
-23.4913
-23.3167
-23.1477
-22.9845
-22.8273
-22.6762
-22.5316
-22.3936
-22.2627
-22.1391
-22.0234
-21.9161
-21.8178
-21.7293
-21.6514
-21.5851
-21.5314
-21.4913
-21.4661
-21.457
-21.4653
-21.4923
-21.5391
-21.6072
-21.6976
-21.8115
-21.9496
-22.1125
-22.3001
-22.512
-22.7468
-23.0024
-23.2754
-23.5615
-23.8553
-24.1507
-24.4406
-24.7182
-24.9764
-25.209
-25.4106
-25.5767
-25.704
-25.7901
-25.8335
-26.4895
-26.46
-26.402
-26.3173
-26.2085
-26.0785
-25.9306
-25.7679
-25.5933
-25.4096
-25.2191
-25.0241
-24.8263
-24.6276
-24.4293
-24.2327
-24.0391
-23.8492
-23.6637
-23.4833
-23.3083
-23.1389
-22.9753
-22.8178
-22.6663
-22.5213
-22.3828
-22.2513
-22.127
-22.0105
-21.9022
-21.8028
-21.713
-21.6337
-21.5658
-21.5103
-21.4685
-21.4414
-21.4304
-21.4367
-21.4617
-21.5067
-21.573
-21.6619
-21.7746
-21.912
-22.0749
-22.2635
-22.4774
-22.7157
-22.9763
-23.2559
-23.5501
-23.8533
-24.159
-24.4595
-24.7474
-25.0151
-25.2559
-25.4642
-25.6355
-25.7665
-25.8549
-25.8994
-26.5507
-26.5193
-26.4577
-26.3681
-26.2534
-26.1171
-25.9628
-25.7939
-25.6136
-25.4247
-25.2297
-25.0305
-24.8291
-24.6271
-24.426
-24.2271
-24.0314
-23.8399
-23.6533
-23.472
-23.2963
-23.1264
-22.9624
-22.8044
-22.6525
-22.5068
-22.3677
-22.2353
-22.1101
-21.9924
-21.8827
-21.7817
-21.6901
-21.6088
-21.5386
-21.4808
-21.4364
-21.4067
-21.3929
-21.3965
-21.4187
-21.4609
-21.5246
-21.6112
-21.7221
-21.8584
-22.0211
-22.2108
-22.4276
-22.6706
-22.9381
-23.2271
-23.533
-23.8498
-24.1704
-24.4863
-24.7892
-25.0706
-25.3233
-25.5411
-25.7196
-25.8557
-25.9472
-25.9933
-26.6291
-26.5951
-26.5287
-26.4325
-26.31
-26.1655
-26.0029
-25.8261
-25.6386
-25.4432
-25.2423
-25.0381
-24.8321
-24.6262
-24.4216
-24.2196
-24.0215
-23.8281
-23.64
-23.4576
-23.2812
-23.1108
-22.9463
-22.7878
-22.6353
-22.4889
-22.3489
-22.2156
-22.0891
-21.97
-21.8586
-21.7556
-21.6617
-21.5778
-21.5048
-21.444
-21.3964
-21.3633
-21.3461
-21.3462
-21.3648
-21.4035
-21.4639
-21.5475
-21.6558
-21.7904
-21.9526
-22.1434
-22.3632
-22.612
-22.8881
-23.1889
-23.5097
-23.8442
-24.1842
-24.5203
-24.8427
-25.1419
-25.4096
-25.6395
-25.8269
-25.969
-26.0643
-26.1121
-26.7237
-26.6864
-26.6138
-26.5092
-26.377
-26.2221
-26.0493
-25.8631
-25.6669
-25.464
-25.2564
-25.0463
-24.8351
-24.6244
-24.4157
-24.2103
-24.0093
-23.8136
-23.6239
-23.4405
-23.2633
-23.0923
-22.9274
-22.7684
-22.6152
-22.4681
-22.3272
-22.1926
-22.0648
-21.944
-21.8307
-21.7254
-21.6288
-21.5418
-21.4655
-21.4011
-21.3497
-21.3127
-21.2914
-21.2872
-21.3016
-21.3361
-21.3923
-21.4721
-21.5772
-21.7094
-21.8705
-22.062
-22.2851
-22.54
-22.8261
-23.1407
-23.4795
-23.8355
-24.1996
-24.5607
-24.9072
-25.2282
-25.5141
-25.758
-25.9556
-26.1045
-26.2038
-26.2534
-26.8338
-26.7924
-26.7122
-26.5972
-26.4531
-26.2857
-26.1009
-25.9036
-25.6977
-25.4862
-25.2713
-25.0546
-24.8376
-24.6218
-24.4084
-24.199
-23.9948
-23.7967
-23.6052
-23.4207
-23.2429
-23.0715
-22.9062
-22.7467
-22.5929
-22.4449
-22.3029
-22.1671
-22.0378
-21.9153
-21.7998
-21.6918
-21.5922
-21.5018
-21.4217
-21.3531
-21.2974
-21.2559
-21.23
-21.221
-21.2305
-21.2601
-21.3115
-21.3866
-21.4876
-21.6167
-21.7759
-21.9676
-22.1934
-22.4548
-22.7516
-23.082
-23.4416
-23.8231
-24.2158
-24.607
-24.9825
-25.3292
-25.6361
-25.8959
-26.1044
-26.2602
-26.3634
-26.4147
-26.959
-26.9126
-26.823
-26.6954
-26.537
-26.355
-26.1564
-25.9466
-25.7299
-25.5092
-25.2864
-25.0628
-24.8395
-24.618
-24.3995
-24.1857
-23.9779
-23.7772
-23.584
-23.3985
-23.2203
-23.0486
-22.8831
-22.7231
-22.5687
-22.4198
-22.2767
-22.1396
-22.0088
-21.8843
-21.7665
-21.6557
-21.5527
-21.4584
-21.3741
-21.301
-21.2405
-21.1941
-21.163
-21.1488
-21.1528
-21.1768
-21.2226
-21.2924
-21.3884
-21.5133
-21.6698
-21.8607
-22.0887
-22.3562
-22.6641
-23.0117
-23.3949
-23.8057
-24.2322
-24.6588
-25.0684
-25.4449
-25.7756
-26.0525
-26.2722
-26.4345
-26.5411
-26.5938
-27.0992
-27.0467
-26.9456
-26.803
-26.6277
-26.4287
-26.2143
-25.9907
-25.7625
-25.5322
-25.3012
-25.0704
-24.8406
-24.613
-24.389
-24.1704
-23.9587
-23.7552
-23.5604
-23.3741
-23.1957
-23.0241
-22.8585
-22.6982
-22.5431
-22.3932
-22.249
-22.1105
-21.9781
-21.8518
-21.7315
-21.6178
-21.5111
-21.4126
-21.3236
-21.2455
-21.1799
-21.1281
-21.0916
-21.0716
-21.0696
-21.0875
-21.127
-21.1906
-21.2808
-21.4005
-21.5531
-21.742
-21.9711
-22.2439
-22.563
-22.9288
-23.3379
-23.7822
-24.2478
-24.7158
-25.1651
-25.5758
-25.9327
-26.2275
-26.4579
-26.6259
-26.7349
-26.7884
-27.2545
-27.1945
-27.0797
-26.9191
-26.7239
-26.5055
-26.2734
-26.0349
-25.7945
-25.5544
-25.3153
-25.0773
-24.8408
-24.6067
-24.3768
-24.1529
-23.9371
-23.7307
-23.5343
-23.3476
-23.1694
-22.9982
-22.8328
-22.6723
-22.5165
-22.3656
-22.22
-22.0803
-21.9464
-21.8182
-21.6955
-21.5785
-21.468
-21.3649
-21.2709
-21.1875
-21.1163
-21.0589
-21.0165
-20.9904
-20.9821
-20.9932
-21.0259
-21.0825
-21.1659
-21.2794
-21.4267
-21.6123
-21.841
-22.1179
-22.4475
-22.832
-23.2693
-23.7512
-24.2616
-24.7779
-25.2733
-25.7226
-26.1079
-26.4208
-26.6608
-26.8327
-26.9426
-26.9961
-27.4251
-27.3561
-27.2248
-27.0429
-26.8246
-26.5839
-26.3323
-26.0778
-25.825
-25.5753
-25.3283
-25.0833
-24.84
-24.5992
-24.3628
-24.1332
-23.9129
-23.7036
-23.5059
-23.3191
-23.1416
-22.9713
-22.8064
-22.6457
-22.4892
-22.3371
-22.1902
-22.0492
-21.9139
-21.7839
-21.6589
-21.5386
-21.4239
-21.316
-21.2165
-21.1274
-21.0504
-20.9871
-20.9386
-20.9062
-20.8912
-20.8951
-20.9203
-20.9692
-21.0449
-21.151
-21.2917
-21.4722
-21.6987
-21.9779
-22.3168
-22.72
-23.1873
-23.7109
-24.2728
-24.845
-25.3936
-25.8865
-26.3022
-26.6325
-26.88
-27.0533
-27.1622
-27.2145
-27.6115
-27.5317
-27.3807
-27.1736
-26.9285
-26.6627
-26.3897
-26.1184
-25.8531
-25.5943
-25.3401
-25.0885
-24.8385
-24.5906
-24.3471
-24.1112
-23.886
-23.6737
-23.475
-23.2887
-23.1126
-22.9438
-22.7797
-22.619
-22.4616
-22.3081
-22.1598
-22.0175
-21.881
-21.7496
-21.6222
-21.4986
-21.3795
-21.2663
-21.161
-21.0659
-20.9828
-20.9134
-20.8587
-20.8198
-20.7977
-20.7941
-20.8112
-20.8517
-20.9189
-21.0165
-21.1492
-21.3228
-21.5448
-21.824
-22.17
-22.5912
-23.09
-23.6596
-24.28
-24.9172
-25.5274
-26.0693
-26.5168
-26.8629
-27.1147
-27.2861
-27.3913
-27.441
-27.8144
-27.7216
-27.5471
-27.3103
-27.0342
-26.7402
-26.444
-26.1553
-25.8781
-25.6111
-25.3507
-25.093
-24.8363
-24.581
-24.3298
-24.0868
-23.8563
-23.641
-23.4415
-23.2565
-23.0826
-22.9159
-22.753
-22.5924
-22.4339
-22.2788
-22.1288
-21.9854
-21.8481
-21.7154
-21.5859
-21.4589
-21.3352
-21.2163
-21.1047
-21.0032
-20.9139
-20.8383
-20.7774
-20.7319
-20.7027
-20.6912
-20.6996
-20.7311
-20.7889
-20.877
-21.0002
-21.165
-21.3799
-21.656
-22.0066
-22.444
-22.9751
-23.5948
-24.2817
-24.9945
-25.6764
-26.2732
-26.7533
-27.1122
-27.364
-27.5293
-27.6276
-27.6731
-28.0347
-27.9262
-27.7238
-27.4521
-27.1404
-26.815
-26.4939
-26.1875
-25.899
-25.6253
-25.36
-25.0969
-24.8337
-24.5708
-24.3109
-24.0599
-23.8237
-23.6053
-23.4055
-23.2225
-23.052
-22.8882
-22.7269
-22.5663
-22.4065
-22.2492
-22.0973
-21.9529
-21.8152
-21.6819
-21.5504
-21.4201
-21.2914
-21.1663
-21.048
-20.9399
-20.8442
-20.7624
-20.6953
-20.6432
-20.6067
-20.587
-20.5864
-20.6083
-20.6561
-20.7336
-20.8459
-20.9998
-21.2049
-21.4744
-21.8257
-22.2769
-22.8402
-23.514
-24.276
-25.0771
-25.8429
-26.5011
-27.0136
-27.3809
-27.6268
-27.7807
-27.8685
-27.9079
-28.2733
-28.146
-27.9107
-27.5981
-27.2455
-26.8855
-26.5379
-26.2136
-25.9153
-25.6368
-25.3682
-25.1008
-24.8313
-24.5601
-24.2905
-24.0304
-23.7878
-23.5663
-23.3666
-23.1868
-23.0208
-22.8611
-22.7018
-22.5411
-22.3796
-22.2196
-22.0653
-21.9201
-21.7827
-21.6493
-21.5162
-21.3825
-21.2487
-21.1168
-20.9912
-20.8761
-20.7739
-20.6859
-20.6128
-20.5544
-20.5106
-20.4824
-20.4724
-20.4841
-20.5213
-20.5875
-20.6875
-20.8286
-21.0209
-21.2796
-21.627
-22.0881
-22.6828
-23.414
-24.2606
-25.1651
-26.0298
-26.7565
-27.2998
-27.6693
-27.9018
-28.0382
-28.1114
-28.1427
-28.5314
-28.3818
-28.1077
-27.7472
-27.3479
-26.95
-26.5745
-26.2324
-25.9261
-25.6455
-25.3758
-25.1049
-24.8293
-24.5495
-24.2688
-23.9981
-23.7486
-23.5239
-23.3248
-23.1495
-22.9896
-22.835
-22.6781
-22.5172
-22.3536
-22.1899
-22.0326
-21.8868
-21.7506
-21.618
-21.4837
-21.3465
-21.2073
-21.068
-20.9344
-20.812
-20.7032
-20.6092
-20.5305
-20.466
-20.415
-20.3781
-20.3581
-20.3594
-20.3855
-20.4398
-20.5264
-20.6528
-20.8292
-21.0723
-21.4101
-21.8761
-22.5
-23.2913
-24.2322
-25.2587
-26.241
-27.0439
-27.6146
-27.9773
-28.1875
-28.2995
-28.3536
-28.3748
-28.8106
-28.6341
-28.3146
-27.8981
-27.4455
-27.0068
-26.6022
-26.2428
-25.931
-25.6514
-25.3834
-25.1099
-24.8283
-24.5396
-24.2458
-23.9626
-23.7058
-23.4777
-23.2797
-23.1104
-22.9585
-22.8106
-22.6562
-22.4949
-22.3287
-22.16
-21.9988
-21.853
-21.7191
-21.5884
-21.4531
-21.3125
-21.1677
-21.0201
-20.8776
-20.7478
-20.6325
-20.5326
-20.4487
-20.3786
-20.3205
-20.2746
-20.2443
-20.2346
-20.2496
-20.2915
-20.3636
-20.4738
-20.6314
-20.8536
-21.1749
-21.6394
-22.2891
-23.1417
-24.1866
-25.3578
-26.4816
-27.3687
-27.9605
-28.3048
-28.4821
-28.5619
-28.5923
-28.6013
-29.1123
-28.9036
-28.5317
-28.0497
-27.5361
-27.0545
-26.6199
-26.2433
-25.9293
-25.6547
-25.3916
-25.1163
-24.8287
-24.531
-24.2218
-23.9235
-23.6591
-23.4277
-23.2309
-23.0696
-22.928
-22.7885
-22.6367
-22.4746
-22.3055
-22.13
-21.9634
-21.8183
-21.6884
-21.5611
-21.425
-21.2808
-21.1304
-20.9733
-20.8207
-20.6835
-20.5618
-20.4562
-20.3677
-20.2925
-20.2277
-20.1725
-20.1314
-20.1105
-20.1143
-20.1437
-20.2005
-20.2932
-20.4295
-20.6249
-20.9218
-21.3764
-22.0475
-22.9607
-24.1183
-25.4619
-26.7583
-27.7373
-28.3399
-28.6511
-28.783
-28.8227
-28.825
-28.8197
-29.4385
-29.1908
-28.7592
-28.2003
-27.6171
-27.0916
-26.6264
-26.2325
-25.9205
-25.6558
-25.4017
-25.1246
-24.8309
-24.525
-24.1968
-23.8801
-23.6085
-23.3736
-23.1779
-23.027
-22.8985
-22.7695
-22.6199
-22.4563
-22.2843
-22.0998
-21.9256
-21.7825
-21.6585
-21.5364
-21.3995
-21.2516
-21.0958
-20.9278
-20.7636
-20.6193
-20.4912
-20.38
-20.2878
-20.2084
-20.1372
-20.0723
-20.0197
-19.9872
-19.9802
-19.9973
-20.0379
-20.1126
-20.2256
-20.3878
-20.6512
-21.0859
-21.7727
-22.7436
-24.0195
-25.57
-27.0799
-28.1577
-28.7554
-29.0145
-29.0874
-29.0789
-29.0488
-29.0277
-29.7913
-29.4957
-28.9978
-28.3483
-27.6851
-27.1172
-26.6208
-26.2087
-25.9044
-25.6551
-25.4151
-25.1353
-24.835
-24.5228
-24.1711
-23.8311
-23.554
-23.3153
-23.1198
-22.9826
-22.8703
-22.7547
-22.6062
-22.4403
-22.2661
-22.0691
-21.8844
-21.745
-21.6295
-21.5153
-21.3769
-21.2249
-21.0648
-20.8836
-20.7056
-20.5551
-20.421
-20.3039
-20.2093
-20.1265
-20.0496
-19.9744
-19.9095
-19.8652
-19.848
-19.8535
-19.8767
-19.9335
-20.0224
-20.1443
-20.3642
-20.7665
-21.4632
-22.4858
-23.8801
-25.6801
-27.4584
-28.6387
-29.2086
-29.3929
-29.3921
-29.3275
-29.2615
-29.2231
-30.1732
-29.8179
-29.2487
-28.492
-27.7359
-27.1308
-26.6027
-26.1697
-25.8806
-25.653
-25.4338
-25.1486
-24.8407
-24.5266
-24.1447
-23.7747
-23.4961
-23.2531
-23.0555
-22.9363
-22.8438
-22.7455
-22.5956
-22.4262
-22.2521
-22.038
-21.8383
-21.7055
-21.6017
-21.4988
-21.3574
-21.2006
-21.0383
-20.8408
-20.6461
-20.4913
-20.3513
-20.2278
-20.1323
-20.0473
-19.9655
-19.8792
-19.801
-19.7444
-19.7181
-19.7132
-19.7175
-19.7573
-19.8231
-19.8965
-20.0621
-20.4166
-21.1179
-22.1833
-23.6858
-25.7888
-27.9103
-29.1905
-29.7001
-29.7828
-29.6931
-29.5655
-29.4608
-29.4042
-30.5874
-30.1555
-29.5146
-28.6294
-27.7637
-27.1332
-26.5722
-26.1127
-25.8494
-25.6498
-25.4608
-25.1644
-24.8471
-24.5395
-24.1178
-23.7083
-23.4358
-23.1874
-22.9832
-22.8884
-22.8192
-22.7438
-22.5882
-22.4133
-22.2442
-22.0061
-21.7849
-21.6638
-21.5749
-21.4882
-21.3408
-21.1782
-21.0178
-20.7995
-20.5836
-20.4282
-20.2822
-20.1512
-20.0573
-19.9711
-19.8856
-19.7871
-19.6943
-19.6247
-19.5908
-19.5776
-19.5604
-19.5852
-19.6313
-19.6468
-19.7471
-20.0341
-20.7374
-21.8336
-23.4176
-25.8904
-28.4579
-29.8243
-30.2292
-30.1796
-29.9864
-29.79
-29.6448
-29.5697
-31.0379
-30.5049
-29.7995
-28.7583
-27.7609
-27.1267
-26.5302
-26.0334
-25.8115
-25.6454
-25.5
-25.1823
-24.852
-24.5661
-24.0906
-23.6277
-23.375
-23.1189
-22.9004
-22.8393
-22.7965
-22.7523
-22.5836
-22.4004
-22.2452
-21.9736
-21.7213
-21.6199
-21.549
-21.4858
-21.3269
-21.1564
-21.0055
-20.7597
-20.5164
-20.3666
-20.2143
-20.0732
-19.9846
-19.8982
-19.8109
-19.6982
-19.5892
-19.5056
-19.4665
-19.4485
-19.4048
-19.4179
-19.4516
-19.3973
-19.4221
-19.6159
-20.3239
-21.4376
-23.0496
-25.9758
-29.1323
-30.5516
-30.7926
-30.5773
-30.2673
-29.9982
-29.812
-29.7184
-31.53
-30.8592
-30.1105
-28.8766
-27.7165
-27.1159
-26.4785
-25.9261
-25.7688
-25.6388
-25.5573
-25.2008
-24.8518
-24.6132
-24.0631
-23.5264
-23.3172
-23.049
-22.8031
-22.7903
-22.775
-22.7746
-22.5809
-22.3848
-22.2595
-21.9403
-21.6432
-21.5743
-21.5233
-21.4943
-21.3149
-21.1334
-21.0045
-20.7213
-20.4413
-20.3079
-20.1481
-19.9926
-19.9147
-19.8285
-19.7423
-19.6127
-19.4858
-19.3867
-19.3452
-19.3279
-19.2494
-19.2556
-19.2897
-19.1495
-19.0917
-19.1568
-19.8815
-21.0012
-22.5469
-26.0312
-29.9766
-31.3828
-31.3841
-30.9688
-30.5313
-30.1879
-29.9612
-29.8498
-32.0713
-31.2065
-30.4588
-28.9821
-27.6154
-27.1093
-26.42
-25.7819
-25.7249
-25.6275
-25.6409
-25.2178
-24.84
-24.6909
-24.0354
-23.3953
-23.268
-22.9797
-22.6856
-22.7436
-22.7528
-22.8162
-22.5785
-22.3625
-22.2935
-21.906
-21.5446
-21.5287
-21.4965
-21.5183
-21.3038
-21.1059
-21.0197
-20.6842
-20.3541
-20.2545
-20.0843
-19.9074
-19.8487
-19.7618
-19.6813
-19.5307
-19.384
-19.2668
-19.2267
-19.2189
-19.092
-19.0974
-19.1531
-18.9037
-18.7626
-18.6484
-19.4165
-20.5385
-21.8627
-26.0361
-31.0505
-32.3258
-31.9941
-31.3456
-30.774
-30.357
-30.0918
-29.9638
-32.6721
-31.5278
-30.8618
-29.0723
-27.4363
-27.1202
-26.359
-25.5883
-25.6867
-25.6061
-25.7626
-25.2297
-24.8069
-24.8137
-24.0073
-23.2208
-23.2362
-22.914
-22.5395
-22.7034
-22.7265
-22.8849
-22.5742
-22.3272
-22.3565
-21.8707
-21.4171
-21.4866
-21.4657
-21.5638
-21.2915
-21.069
-21.0581
-20.6482
-20.2487
-20.2101
-20.0238
-19.8145
-19.7883
-19.6975
-19.6296
-19.4519
-19.2837
-19.1448
-19.1101
-19.126
-18.9287
-18.9412
-19.0516
-18.6584
-18.4449
-18.0773
-18.9375
-20.0757
-20.935
-25.9604
-32.4362
-33.3827
-32.6083
-31.6988
-30.9912
-30.504
-30.2034
-30.0603
-33.3473
-31.7936
-31.3456
-29.1451
-27.1493
-27.1695
-26.3014
-25.327
-25.6656
-25.565
-25.9395
-25.2316
-24.7378
-25.0023
-23.9788
-22.9836
-23.2353
-22.8556
-22.3526
-22.6773
-22.6897
-22.9916
-22.5646
-22.2693
-22.4618
-21.8342
-21.2493
-21.4542
-21.4259
-21.6398
-21.2754
-21.0152
-21.1298
-20.6129
-20.1162
-20.1805
-19.968
-19.7096
-19.7361
-19.6339
-19.5897
-19.3757
-19.1852
-19.0189
-18.9942
-19.0558
-18.7541
-18.7833
-18.9987
-18.4079
-18.1543
-17.4234
-18.4547
-19.6565
-19.6822
-25.761
-34.2464
-34.5456
-33.208
-32.0189
-31.1795
-30.6282
-30.2961
-30.1401
-34.1177
-31.9597
-31.9488
-29.1983
-26.7132
-27.2875
-26.2547
-24.9718
-25.6804
-25.4878
-26.1952
-25.2162
-24.611
-25.2859
-23.9493
-22.6569
-23.2848
-22.8096
-22.1075
-22.6771
-22.6313
-23.1521
-22.5449
-22.175
-22.6282
-21.7958
-21.0255
-21.4417
-21.3685
-21.7588
-21.2517
-20.9337
-21.2489
-20.5775
-19.9445
-20.1743
-19.9183
-19.5864
-19.6965
-19.5685
-19.5652
-19.3009
-19.089
-18.8871
-18.8765
-19.0177
-18.5607
-18.6174
-19.0126
-18.1416
-17.9143
-16.6566
-17.9789
-19.3487
-17.9983
-25.3777
-36.6342
-35.7904
-33.7701
-32.297
-31.3364
-30.7292
-30.3706
-30.2037
-35.013
-31.9617
-32.7264
-29.2296
-26.0719
-27.5178
-26.2283
-24.4861
-25.7603
-25.3482
-26.5634
-25.1741
-24.3961
-25.7046
-23.9177
-22.2036
-23.4128
-22.7822
-21.7798
-22.7219
-22.5341
-23.3882
-22.5087
-22.0245
-22.8816
-21.7545
-20.7245
-21.4654
-21.2797
-21.9383
-21.2152
-20.8095
-21.435
-20.5408
-19.7171
-20.2039
-19.8762
-19.4362
-19.6759
-19.4968
-19.5609
-19.2255
-18.9963
-18.747
-18.7528
-19.025
-18.338
-18.4341
-19.1186
-17.8398
-17.7598
-15.7339
-17.5201
-19.2525
-15.7472
-24.7272
-39.8052
-37.069
-34.2678
-32.5252
-31.4604
-30.8074
-30.4276
-30.2521
-36.0741
-31.7085
-33.7556
-29.2368
-25.15
-27.9212
-26.2335
-23.8194
-25.9493
-25.106
-27.0901
-25.093
-24.0508
-26.3124
-23.8827
-21.5742
-23.6584
-22.7809
-21.3361
-22.8402
-22.3716
-23.7302
-22.4476
-21.7907
-23.2568
-21.7085
-20.3178
-21.5499
-21.1384
-22.2026
-21.159
-20.6216
-21.7149
-20.5009
-19.4117
-20.2867
-19.8435
-19.247
-19.6843
-19.412
-19.5835
-19.1464
-18.9088
-18.5958
-18.6166
-19.0962
-18.0725
-18.2193
-19.3516
-17.4712
-17.7421
-14.5958
-17.0849
-19.5102
-12.7561
-23.6964
-44.0328
-38.2983
-34.6729
-32.6977
-31.551
-30.8636
-30.4683
-30.2865
-37.3567
-31.0738
-35.1423
-29.2172
-23.8479
-28.5802
-26.283
-22.9033
-26.3118
-24.7015
-27.8378
-24.9568
-23.5182
-27.1813
-23.8418
-20.7028
-24.0747
-22.8144
-20.731
-23.074
-22.1044
-24.2192
-22.3508
-21.4371
-23.8005
-21.6549
-19.768
-21.7312
-20.9131
-22.5846
-21.0742
-20.342
-22.1239
-20.4551
-18.9991
-20.4466
-19.8217
-19.0025
-19.7356
-19.3037
-19.6424
-19.0584
-18.8297
-18.4306
-18.4583
-19.2565
-17.7468
-17.9536
-19.759
-16.9871
-17.934
-13.1617
-16.6727
-20.3179
-8.80903
-22.1345
-49.6754
-39.3472
-34.9589
-32.8116
-31.6092
-30.8993
-30.4938
-30.3081
-38.9369
-29.8869
-37.0286
-29.1662
-22.035
-29.6034
-26.3905
-21.6463
-26.9393
-24.0494
-28.8906
-24.7459
-22.7231
-28.4052
-23.7915
-19.5044
-24.7325
-22.893
-19.9043
-23.4831
-21.6765
-24.9105
-22.2048
-20.9155
-24.5737
-21.5893
-19.0265
-22.0605
-20.5587
-23.1288
-20.95
-19.9343
-22.7094
-20.4001
-18.4422
-20.7162
-19.8125
-18.6825
-19.8507
-19.1579
-19.7513
-18.9552
-18.7644
-18.2495
-18.2647
-19.5399
-17.3399
-17.611
-20.4062
-16.3172
-18.4386
-11.3264
-16.2725
-21.9399
-3.64059
-19.845
-57.1975
-40.021
-35.1072
-32.8679
-31.638
-30.917
-30.5067
-30.3192
)
;

boundaryField
{
    left
    {
        type            calculated;
        value           nonuniform List<scalar> 
32
(
-26.4245
-26.4468
-26.4895
-26.5507
-26.6291
-26.7237
-26.8338
-26.959
-27.0992
-27.2545
-27.4251
-27.6115
-27.8144
-28.0347
-28.2733
-28.5314
-28.8106
-29.1123
-29.4385
-29.7913
-30.1732
-30.5874
-31.0379
-31.53
-32.0713
-32.6721
-33.3473
-34.1177
-35.013
-36.0741
-37.3567
-38.9369
)
;
    }
    right
    {
        type            calculated;
        value           nonuniform List<scalar> 
32
(
-25.7989
-25.8335
-25.8994
-25.9933
-26.1121
-26.2534
-26.4147
-26.5938
-26.7884
-26.9961
-27.2145
-27.441
-27.6731
-27.9079
-28.1427
-28.3748
-28.6013
-28.8197
-29.0277
-29.2231
-29.4042
-29.5697
-29.7184
-29.8498
-29.9638
-30.0603
-30.1401
-30.2037
-30.2521
-30.2865
-30.3081
-30.3192
)
;
    }
    interface
    {
        type            calculated;
        value           nonuniform List<scalar> 
64
(
-39.8123
-29.1311
-38.1169
-29.1321
-20.9823
-30.2214
-26.4603
-20.9196
-27.3325
-23.649
-29.5054
-24.6192
-22.2493
-29.1192
-23.7635
-18.8115
-25.1318
-22.945
-19.427
-23.7404
-21.4143
-25.3146
-22.1178
-20.6059
-25.0262
-21.5529
-18.601
-22.2696
-20.3427
-23.4478
-20.8765
-19.6934
-23.053
-20.3698
-18.1226
-20.8831
-19.8114
-18.5008
-19.9272
-19.0736
-19.8203
-18.8988
-18.7361
-18.1547
-18.1571
-19.7174
-17.1132
-17.4168
-20.7991
-15.9253
-18.7841
-10.2938
-16.0733
-22.9921
-0.714568
-18.4907
-61.494
-40.2354
-35.1453
-32.8822
-31.6455
-30.9219
-30.5104
-30.3225
)
;
    }
    bottom
    {
        type            calculated;
        value           nonuniform List<scalar> 
64
(
-26.4187
-26.3913
-26.3372
-26.258
-26.1558
-26.033
-25.8924
-25.7367
-25.5688
-25.3911
-25.2062
-25.016
-24.8226
-24.6277
-24.4327
-24.239
-24.0477
-23.8597
-23.6758
-23.4965
-23.3223
-23.1536
-22.9906
-22.8336
-22.6828
-22.5384
-22.4008
-22.2703
-22.1472
-22.0321
-21.9254
-21.8279
-21.7403
-21.6633
-21.598
-21.5454
-21.5065
-21.4826
-21.4748
-21.4844
-21.5126
-21.5607
-21.6299
-21.7213
-21.836
-21.9745
-22.1373
-22.3242
-22.5347
-22.7671
-23.0193
-23.2879
-23.5687
-23.8564
-24.145
-24.4281
-24.6989
-24.951
-25.1782
-25.3753
-25.538
-25.6628
-25.7473
-25.7899
)
;
    }
    defaultFaces
    {
        type            empty;
    }
}


// ************************************************************************* //
