/*--------------------------------*- C++ -*----------------------------------*\
| =========                 |                                                 |
| \\      /  F ield         | OpenFOAM: The Open Source CFD Toolbox           |
|  \\    /   O peration     | Version:  5.x                                   |
|   \\  /    A nd           | Web:      www.OpenFOAM.org                      |
|    \\/     M anipulation  |                                                 |
\*---------------------------------------------------------------------------*/
FoamFile
{
    version     2.0;
    format      ascii;
    class       volScalarField;
    location    "2.6";
    object      T;
}
// * * * * * * * * * * * * * * * * * * * * * * * * * * * * * * * * * * * * * //

dimensions      [0 0 0 1 0 0 0];

internalField   nonuniform List<scalar> 
2048
(
9.8102
9.8104
9.81079
9.81136
9.81209
9.81297
9.81398
9.8151
9.81631
9.81758
9.81891
9.82028
9.82167
9.82307
9.82447
9.82586
9.82723
9.82859
9.82991
9.83119
9.83245
9.83366
9.83483
9.83596
9.83704
9.83808
9.83907
9.84
9.84089
9.84172
9.84248
9.84318
9.84381
9.84436
9.84483
9.84521
9.84549
9.84566
9.84572
9.84565
9.84545
9.8451
9.8446
9.84395
9.84312
9.84213
9.84096
9.83962
9.8381
9.83643
9.83462
9.83269
9.83068
9.82861
9.82654
9.8245
9.82256
9.82075
9.81911
9.8177
9.81653
9.81563
9.81502
9.81472
9.43874
9.43933
9.44049
9.44218
9.44437
9.44699
9.44999
9.45331
9.4569
9.46068
9.46463
9.46868
9.47279
9.47694
9.48109
9.48521
9.48928
9.49328
9.49719
9.501
9.5047
9.50828
9.51175
9.51508
9.51829
9.52135
9.52428
9.52705
9.52967
9.53212
9.53439
9.53646
9.53833
9.53997
9.54136
9.54249
9.54332
9.54384
9.54401
9.54381
9.54322
9.54221
9.54074
9.53881
9.53638
9.53344
9.52998
9.526
9.52153
9.51657
9.5112
9.50547
9.49947
9.49333
9.48716
9.48111
9.47532
9.46993
9.46507
9.46086
9.45738
9.45472
9.45291
9.452
9.08308
9.08406
9.08597
9.08878
9.09239
9.09673
9.10168
9.10716
9.11305
9.11928
9.12575
9.1324
9.13915
9.14595
9.15275
9.1595
9.16616
9.1727
9.17909
9.18532
9.19137
9.19723
9.20289
9.20834
9.21358
9.21859
9.22337
9.22791
9.23219
9.2362
9.23992
9.24332
9.24638
9.24907
9.25137
9.25322
9.2546
9.25547
9.25577
9.25548
9.25453
9.2529
9.25053
9.24738
9.24343
9.23864
9.23299
9.22649
9.21915
9.21103
9.20219
9.19276
9.18287
9.17273
9.16254
9.15254
9.14296
9.13405
9.12603
9.11907
9.11333
9.10894
9.10597
9.10447
8.74231
8.74367
8.74635
8.75027
8.75531
8.76135
8.76824
8.77584
8.78401
8.79263
8.80158
8.81075
8.82007
8.82944
8.8388
8.84809
8.85725
8.86624
8.87503
8.88358
8.89188
8.89992
8.90768
8.91516
8.92235
8.92923
8.9358
8.94203
8.94791
8.95342
8.95854
8.96323
8.96746
8.97118
8.97436
8.97694
8.97887
8.9801
8.98056
8.9802
8.97895
8.97675
8.97354
8.96927
8.96388
8.95732
8.94958
8.94065
8.93055
8.91933
8.90711
8.89403
8.8803
8.86619
8.85199
8.83804
8.82468
8.81226
8.80107
8.79138
8.78341
8.7773
8.77317
8.77109
8.41557
8.41733
8.4208
8.42585
8.43235
8.44011
8.44894
8.45866
8.46908
8.48006
8.49144
8.50309
8.5149
8.52678
8.53864
8.55038
8.56196
8.57332
8.5844
8.59519
8.60566
8.61579
8.62557
8.63499
8.64405
8.65273
8.661
8.66887
8.6763
8.68327
8.68974
8.69568
8.70105
8.70578
8.70984
8.71315
8.71564
8.71725
8.7179
8.71752
8.71601
8.71332
8.70935
8.70402
8.69728
8.68906
8.67932
8.66805
8.65527
8.64103
8.62547
8.60878
8.59121
8.5731
8.55486
8.53691
8.51973
8.50375
8.48938
8.47695
8.46672
8.45891
8.45364
8.45098
8.10211
8.10428
8.10856
8.11479
8.12278
8.13229
8.14309
8.15494
8.16761
8.18093
8.1947
8.20879
8.22305
8.23738
8.25165
8.2658
8.27972
8.29336
8.30667
8.3196
8.33215
8.34428
8.356
8.36729
8.37814
8.38854
8.39847
8.40791
8.41683
8.42521
8.433
8.44017
8.44665
8.45239
8.45732
8.46137
8.46444
8.46646
8.46734
8.46697
8.46527
8.46214
8.45748
8.4512
8.4432
8.43341
8.42177
8.40825
8.39286
8.37567
8.35681
8.3365
8.31507
8.29292
8.27055
8.24852
8.22742
8.20781
8.19019
8.17498
8.1625
8.15298
8.14656
8.14333
7.8012
7.80382
7.80895
7.81641
7.82594
7.83726
7.85006
7.86406
7.87899
7.89463
7.91078
7.92726
7.94393
7.96065
7.9773
7.99377
8.00997
8.02582
8.04127
8.05627
8.07081
8.08487
8.09845
8.11153
8.1241
8.13616
8.14768
8.15864
8.16901
8.17875
8.18783
8.19619
8.20377
8.21051
8.21632
8.22111
8.22479
8.22725
8.22838
8.22809
8.22626
8.22277
8.2175
8.21034
8.20118
8.18992
8.17648
8.16081
8.14289
8.1228
8.10067
8.07674
8.05139
8.0251
7.99849
7.97226
7.94711
7.92376
7.90282
7.88478
7.87002
7.85879
7.85123
7.84743
7.51219
7.51527
7.52131
7.53007
7.54122
7.55441
7.56927
7.58545
7.60265
7.62061
7.63911
7.65795
7.67699
7.69606
7.71503
7.73377
7.75218
7.77018
7.78769
7.80469
7.82114
7.83704
7.8524
7.86719
7.88143
7.89508
7.90813
7.92055
7.93232
7.94339
7.95372
7.96326
7.97193
7.97966
7.98635
7.9919
7.9962
7.99913
8.00057
8.00041
7.9985
7.99472
7.98893
7.98099
7.97077
7.95814
7.943
7.92527
7.90491
7.88197
7.85659
7.82902
7.79969
7.76916
7.73816
7.70754
7.6782
7.65097
7.62661
7.60569
7.58863
7.57568
7.567
7.56264
7.23445
7.23804
7.24506
7.25519
7.26805
7.28319
7.30017
7.31857
7.33806
7.35833
7.37916
7.40035
7.42171
7.44308
7.46433
7.48529
7.50586
7.52593
7.54544
7.56434
7.58263
7.6003
7.61735
7.63379
7.64962
7.66481
7.67933
7.69317
7.70629
7.71865
7.7302
7.74089
7.75064
7.75936
7.76694
7.77327
7.77822
7.78165
7.78344
7.78345
7.78153
7.77753
7.7713
7.76267
7.75149
7.73761
7.72087
7.70119
7.67848
7.65276
7.62416
7.59293
7.55953
7.52461
7.48905
7.45385
7.4201
7.38884
7.36095
7.3371
7.31772
7.30308
7.29328
7.28838
6.96741
6.97155
6.97962
6.99124
7.00591
7.02309
7.04226
7.06293
7.08472
7.10731
7.13045
7.15393
7.17759
7.20123
7.2247
7.24784
7.27051
7.29259
7.31402
7.33476
7.3548
7.37415
7.39284
7.41085
7.42821
7.44487
7.46082
7.47603
7.49046
7.50407
7.51681
7.52864
7.53945
7.54916
7.55764
7.56476
7.57038
7.57435
7.57653
7.57676
7.57489
7.57075
7.56416
7.55494
7.54291
7.52787
7.50966
7.48813
7.46317
7.43475
7.40295
7.36804
7.33048
7.29102
7.25068
7.21066
7.17229
7.13682
7.10529
7.07845
7.05675
7.04043
7.02955
7.02412
6.71052
6.71526
6.72448
6.7377
6.7543
6.77364
6.79507
6.81806
6.84216
6.86705
6.89248
6.91824
6.94414
6.97002
6.99568
7.02095
7.04566
7.0697
7.09298
7.11548
7.13719
7.15815
7.17838
7.19791
7.21673
7.23482
7.25215
7.26867
7.28436
7.29919
7.3131
7.32604
7.33791
7.34861
7.358
7.36593
7.37224
7.37678
7.37938
7.37989
7.37813
7.37391
7.36705
7.35734
7.34455
7.32848
7.30892
7.28566
7.25856
7.22752
7.19258
7.15396
7.11215
7.06799
7.02262
6.9775
6.93425
6.89436
6.85907
6.8292
6.80521
6.78726
6.77535
6.76942
6.46326
6.46866
6.47914
6.4941
6.51278
6.53438
6.55817
6.58352
6.60995
6.63713
6.66481
6.6928
6.72092
6.74899
6.7768
6.80416
6.83088
6.85681
6.88188
6.90605
6.92935
6.95184
6.97355
6.99452
7.01475
7.03421
7.05287
7.07066
7.08758
7.10358
7.11862
7.13266
7.14558
7.15727
7.16758
7.17634
7.18337
7.1885
7.19157
7.19239
7.1908
7.18658
7.17953
7.16941
7.15599
7.139
7.1182
7.09335
7.06422
7.03067
6.99265
6.95032
6.90418
6.85511
6.80444
6.75392
6.70547
6.66095
6.62178
6.58887
6.56263
6.54312
6.53024
6.52385
6.22514
6.23128
6.24315
6.26
6.28092
6.30492
6.33114
6.3589
6.38766
6.4171
6.44699
6.47717
6.50747
6.53771
6.56765
6.59706
6.62573
6.6535
6.68028
6.70605
6.73086
6.75479
6.77791
6.80026
6.82185
6.84263
6.86256
6.88159
6.89968
6.91682
6.93297
6.94808
6.96205
6.97473
6.98597
6.99557
7.00334
7.0091
7.01266
7.01385
7.01248
7.00833
7.00116
6.99073
6.97677
6.95898
6.93708
6.91077
6.87976
6.84381
6.80279
6.75677
6.70621
6.65203
6.59577
6.53947
6.48549
6.43609
6.39294
6.35699
6.32858
6.30761
6.29385
6.28704
5.9957
6.00266
6.01607
6.035
6.05832
6.08486
6.11362
6.14382
6.17491
6.20657
6.23863
6.27095
6.30339
6.33574
6.36778
6.39923
6.42981
6.45937
6.48778
6.51507
6.5413
6.56658
6.59104
6.61471
6.6376
6.65967
6.68084
6.70105
6.72027
6.7385
6.75573
6.77189
6.7869
6.80059
6.81277
6.82323
6.83176
6.83816
6.84225
6.84385
6.84274
6.83872
6.83152
6.82087
6.80647
6.788
6.76513
6.7375
6.70477
6.66657
6.62265
6.57298
6.51791
6.45843
6.39623
6.33374
6.27385
6.2193
6.17207
6.13313
6.10265
6.08036
6.06583
6.05867
5.77449
5.78237
5.79749
5.81871
5.84462
5.87385
5.90523
5.93791
5.97131
6.00515
6.0393
6.07371
6.10824
6.1427
6.17682
6.21026
6.24273
6.27401
6.304
6.33271
6.36027
6.38683
6.41254
6.43748
6.46163
6.48494
6.50732
6.52867
6.54897
6.56825
6.58651
6.60372
6.61975
6.63445
6.64759
6.65893
6.66823
6.67531
6.67995
6.68197
6.68118
6.67735
6.67019
6.65941
6.64467
6.62564
6.60193
6.57314
6.53884
6.49855
6.45188
6.39861
6.339
6.274
6.2055
6.13634
6.07007
6.0101
5.95871
5.91686
5.88449
5.86105
5.84587
5.83843
5.56109
5.57001
5.58703
5.61076
5.63949
5.67156
5.70565
5.74084
5.77651
5.81246
5.84864
5.88507
5.92165
5.95818
5.99436
6.0298
6.06412
6.09707
6.12856
6.15861
6.18739
6.21513
6.24203
6.26818
6.29355
6.31808
6.34162
6.36407
6.3854
6.40568
6.42495
6.44317
6.46023
6.47595
6.49006
6.50229
6.51239
6.52014
6.52536
6.52784
6.52741
6.52382
6.51678
6.50595
6.49097
6.47148
6.44707
6.41727
6.38158
6.3394
6.29014
6.23338
6.16918
6.09847
6.02327
5.94689
5.87372
5.80801
5.75243
5.70781
5.67376
5.64937
5.63371
5.62607
5.3551
5.36518
5.38432
5.41082
5.4426
5.47767
5.51457
5.55227
5.59018
5.62814
5.66626
5.70465
5.74323
5.7818
5.82004
5.85747
5.8936
5.92819
5.9611
5.99239
6.0223
6.05113
6.07915
6.10645
6.13301
6.15873
6.18342
6.20691
6.22922
6.25044
6.27068
6.2899
6.30798
6.32473
6.33983
6.35296
6.36387
6.37232
6.37812
6.38109
6.38105
6.37776
6.37089
6.36009
6.34497
6.32513
6.30015
6.2695
6.2326
6.18874
6.1371
6.07698
6.0082
5.93158
5.84926
5.76503
5.68434
5.61258
5.55281
5.50562
5.47016
5.44507
5.42909
5.42134
5.15612
5.16751
5.18902
5.21859
5.25368
5.29191
5.33169
5.37192
5.41198
5.45185
5.49181
5.53208
5.57262
5.6132
5.65351
5.69293
5.73086
5.76702
5.80129
5.83372
5.86464
5.89446
5.92353
5.95194
5.97965
6.00655
6.03236
6.05686
6.08007
6.10219
6.12336
6.14356
6.16266
6.18044
6.19656
6.21061
6.22233
6.23149
6.23788
6.24135
6.24173
6.23879
6.23217
6.22147
6.20628
6.1862
6.16078
6.12943
6.09151
6.04621
5.99243
5.92914
5.85581
5.77312
5.68325
5.59043
5.50149
5.42332
5.35943
5.30996
5.27341
5.24789
5.2318
5.22403
4.96379
4.97667
5.0008
5.03377
5.07245
5.11398
5.15672
5.19948
5.24161
5.28326
5.32492
5.36701
5.40946
5.45203
5.49442
5.53586
5.57555
5.61324
5.6488
5.68226
5.71407
5.74478
5.77484
5.80432
5.83315
5.86123
5.88816
5.9136
5.93765
5.96059
5.98266
6.00382
6.02392
6.04277
6.05993
6.0749
6.08744
6.09732
6.1043
6.10828
6.10911
6.10656
6.10025
6.08973
6.07455
6.05432
6.02857
5.99667
5.95793
5.91144
5.85581
5.78957
5.71177
5.62289
5.52503
5.42276
5.32468
5.23976
5.17189
5.12052
5.08327
5.05764
5.04163
5.03395
4.77773
4.7923
4.81935
4.8561
4.89867
4.94364
4.9894
5.03469
5.07877
5.12204
5.16527
5.2091
5.25341
5.29793
5.34245
5.38594
5.42736
5.46654
5.50333
5.5377
5.57027
5.60175
5.63275
5.66326
5.69318
5.72245
5.7505
5.77683
5.80165
5.82533
5.84827
5.87037
5.89146
5.91141
5.92963
5.94554
5.9589
5.96949
5.97707
5.98156
5.98286
5.98074
5.9748
5.96451
5.94942
5.92911
5.90316
5.87085
5.83148
5.78408
5.72692
5.65803
5.57587
5.48071
5.37446
5.26174
5.15342
5.06142
4.98983
4.93703
4.89953
4.87412
4.85841
4.85091
4.59761
4.61412
4.64436
4.68531
4.73212
4.78064
4.82947
4.8773
4.92316
4.96789
5.0125
5.05803
5.10417
5.15057
5.19729
5.2429
5.28599
5.32662
5.36458
5.39973
5.43292
5.46506
5.49694
5.52846
5.55944
5.58993
5.61913
5.64628
5.67176
5.6961
5.71987
5.7429
5.76497
5.78605
5.80539
5.82221
5.8364
5.84771
5.85586
5.86086
5.86263
5.861
5.85549
5.84551
5.83054
5.81024
5.7842
5.75161
5.71177
5.66378
5.60543
5.53425
5.44788
5.34643
5.23145
5.10709
4.98719
4.88778
4.8129
4.75925
4.722
4.69716
4.68195
4.67474
4.42309
4.44183
4.47555
4.52118
4.57263
4.62471
4.67668
4.72706
4.77453
4.82049
4.86629
4.91347
4.96141
5.00961
5.05862
5.10645
5.15115
5.19318
5.23229
5.26807
5.30173
5.33437
5.36713
5.39963
5.4316
5.46339
5.49378
5.52167
5.54771
5.57261
5.5972
5.62114
5.64415
5.66641
5.68692
5.70465
5.71966
5.7317
5.74039
5.74589
5.74814
5.74704
5.74202
5.7324
5.71761
5.69736
5.67136
5.63858
5.59843
5.55016
5.49104
5.41798
5.32758
5.2199
5.09599
4.9586
4.82539
4.71835
4.64077
4.58697
4.55052
4.5266
4.51211
4.50527
4.25383
4.27518
4.31262
4.3635
4.42003
4.47563
4.53076
4.58375
4.63258
4.67955
4.72629
4.77515
4.82485
4.87472
4.92617
4.97638
5.02254
5.06596
5.10621
5.14243
5.17641
5.20939
5.24302
5.27651
5.30938
5.34255
5.37423
5.40275
5.42923
5.45455
5.47998
5.50483
5.5287
5.55223
5.57399
5.59257
5.6084
5.62118
5.63038
5.63635
5.63909
5.63856
5.63409
5.62489
5.6103
5.59015
5.5643
5.53142
5.49107
5.44289
5.38341
5.30899
5.21472
5.10095
4.96817
4.81607
4.66736
4.55261
4.47316
4.42004
4.38496
4.36231
4.34873
4.34236
4.0895
4.11396
4.15526
4.21206
4.27421
4.33311
4.39148
4.4472
4.49706
4.54481
4.59218
4.64278
4.69426
4.74554
4.79965
4.85246
4.89987
4.94466
4.98611
5.02255
5.05668
5.0898
5.12436
5.15884
5.19248
5.22718
5.26028
5.28926
5.31606
5.34164
5.36794
5.39372
5.41835
5.44325
5.46637
5.48571
5.50235
5.51591
5.52556
5.53198
5.53518
5.53528
5.53143
5.52271
5.50834
5.48828
5.46274
5.42982
5.38931
5.34162
5.28222
5.20706
5.10905
4.9894
4.84817
4.67938
4.51232
4.39003
4.30983
4.25833
4.22519
4.20415
4.19166
4.18583
3.92978
3.958
4.00314
4.06668
4.13511
4.19689
4.25857
4.31723
4.36769
4.416
4.46359
4.5161
4.56939
4.62172
4.67881
4.73452
4.78284
4.82902
4.8718
4.90815
4.94229
4.97528
5.01091
5.0464
5.08057
5.11702
5.15174
5.18097
5.20798
5.2336
5.26087
5.28759
5.31279
5.33922
5.36386
5.38381
5.40128
5.41566
5.42566
5.43252
5.43614
5.43694
5.43377
5.42559
5.41143
5.39145
5.36641
5.33347
5.29276
5.24602
5.18712
5.11201
5.0103
4.88502
4.73633
4.54849
4.35933
4.23011
4.15061
4.10175
4.07114
4.05201
4.04076
4.03553
3.77431
3.80724
3.85589
3.92718
4.00274
4.06663
4.13177
4.19374
4.24418
4.29289
4.34014
4.39489
4.45008
4.50284
4.56339
4.62247
4.67114
4.71876
4.7631
4.79898
4.83302
4.86552
4.90242
4.93901
4.97334
5.01184
5.04848
5.07763
5.10475
5.13013
5.15853
5.18625
5.21173
5.23992
5.26628
5.2866
5.30492
5.32021
5.33044
5.33772
5.34171
5.34329
5.34087
5.3333
5.31933
5.29935
5.27506
5.24208
5.20102
5.15577
5.09775
5.02369
4.91814
4.78746
4.63318
4.42344
4.20723
4.07238
3.9954
3.95025
3.92271
3.90577
3.89588
3.8913
3.62273
3.66168
3.71308
3.79341
3.87718
3.94196
4.01079
4.07668
4.12623
4.1753
4.22143
4.27894
4.3362
4.38848
4.45314
4.51623
4.56442
4.61362
4.65991
4.69474
4.72866
4.76017
4.79871
4.83652
4.87043
4.91143
4.95041
4.979
5.0062
5.03091
5.06073
5.08953
5.11485
5.14513
5.17351
5.19383
5.21305
5.22939
5.23965
5.24735
5.25162
5.25409
5.25249
5.24562
5.23178
5.21166
5.18846
5.1554
5.11367
5.0706
5.01371
4.94202
4.83223
4.69626
4.53943
4.30445
4.05459
3.91643
3.84416
3.80381
3.77984
3.76529
3.75686
3.75297
3.47462
3.52147
3.57418
3.6652
3.75866
3.82241
3.89534
3.96605
4.01347
4.06309
4.10699
4.16809
4.22771
4.27812
4.34784
4.41584
4.46228
4.51331
4.56216
4.59513
4.62906
4.65887
4.69959
4.73883
4.77145
4.81557
4.85746
4.88478
4.91215
4.93562
4.96729
4.99734
5.0218
5.05463
5.08545
5.1052
5.12543
5.14303
5.15303
5.16122
5.16561
5.16912
5.16841
5.16233
5.14858
5.12806
5.10646
5.07322
5.03024
4.99028
4.93453
4.86701
4.7522
4.61073
4.45611
4.19185
3.8996
3.76197
3.69696
3.66246
3.64246
3.63046
3.62356
3.62038
3.32954
3.38697
3.43852
3.54243
3.64751
3.70742
3.78511
3.86199
3.90549
3.9562
3.99629
4.06219
4.12464
4.17116
4.24727
4.32144
4.36428
4.41755
4.46985
4.49981
4.53412
4.56118
4.60491
4.6459
4.67594
4.72407
4.76965
4.79469
4.82251
4.84389
4.87805
4.90958
4.93221
4.96825
5.00205
5.02041
5.04183
5.06102
5.07034
5.07914
5.08344
5.08818
5.0884
5.08325
5.06951
5.04819
5.0289
4.99536
4.95025
4.91464
4.8597
4.79877
4.67765
4.52992
4.38454
4.08626
3.73995
3.60891
3.55393
3.52622
3.5105
3.50116
3.49581
3.49336
3.18691
3.25874
3.30526
3.42494
3.54428
3.59625
3.67975
3.76473
3.80174
3.85471
3.88869
3.96115
4.02715
4.06688
4.15124
4.23328
4.26985
4.32604
4.38309
4.40837
4.44382
4.46664
4.51457
4.55778
4.58339
4.63675
4.68707
4.70835
4.73723
4.75531
4.7929
4.82627
4.84563
4.88579
4.92335
4.93913
4.96204
4.98325
4.9913
5.00096
5.00483
5.01108
5.01226
5.00822
4.99442
4.97168
4.9557
4.92168
4.87311
4.84361
4.78854
4.73758
4.60815
4.45248
4.32643
3.98853
3.57274
3.45739
3.41532
3.39513
3.38387
3.37724
3.37345
3.37172
3.04608
3.13769
3.17329
3.31262
3.44973
3.48799
3.57891
3.67469
3.70154
3.75883
3.78341
3.86494
3.93555
3.9644
4.05954
4.15179
4.17834
4.23848
4.3021
4.32029
4.35825
4.37469
4.42846
4.47459
4.49317
4.55343
4.6099
4.62531
4.65634
4.6694
4.71173
4.74747
4.76155
4.8071
4.84944
4.86096
4.88585
4.90971
4.91562
4.92655
4.92951
4.93767
4.93976
4.93707
4.92317
4.89809
4.88682
4.85213
4.79816
4.77727
4.72025
4.68393
4.54331
4.3766
4.28397
3.89988
3.39427
3.30797
3.28142
3.26922
3.2625
3.25856
3.25632
3.25529
2.90624
3.0251
3.04124
3.20533
3.3649
3.38149
3.4822
3.59249
3.604
3.669
3.67952
3.77355
3.85032
3.86266
3.97202
4.07758
4.08893
4.15456
4.22721
4.23496
4.27764
4.28465
4.34655
4.39661
4.40455
4.47397
4.53843
4.54502
4.58001
4.58559
4.63448
4.67334
4.67937
4.73203
4.7805
4.78546
4.81305
4.8404
4.84296
4.85585
4.85719
4.86782
4.87071
4.86967
4.85566
4.82695
4.82227
4.7867
4.72463
4.71588
4.65377
4.63852
4.48279
4.29986
4.25984
3.82199
3.19989
3.16171
3.15257
3.1485
3.14628
3.14498
3.14424
3.14391
)
;

boundaryField
{
    left
    {
        type            zeroGradient;
    }
    right
    {
        type            zeroGradient;
    }
    interface
    {
        type            fixedValue;
        value           nonuniform List<scalar> 
64
(
2.83475
2.97278
2.97278
3.15299
3.32719
3.32719
3.43466
3.55491
3.55491
3.62653
3.62653
3.72934
3.81036
3.81036
3.92935
4.0438
4.0438
4.11335
4.19232
4.19232
4.23918
4.23918
4.30683
4.3596
4.3596
4.43526
4.50503
4.50503
4.54348
4.54348
4.59699
4.63798
4.63798
4.69546
4.74796
4.74796
4.77748
4.80718
4.80718
4.8216
4.8216
4.83388
4.83707
4.83707
4.82306
4.79155
4.79155
4.75544
4.68729
4.68729
4.62004
4.62004
4.45394
4.25858
4.25858
3.7888
3.08946
3.08946
3.08946
3.08946
3.08946
3.08946
3.08946
3.08946
)
;
    }
    bottom
    {
        type            fixedValue;
        value           uniform 10;
    }
    defaultFaces
    {
        type            empty;
    }
}


// ************************************************************************* //
