/*--------------------------------*- C++ -*----------------------------------*\
| =========                 |                                                 |
| \\      /  F ield         | OpenFOAM: The Open Source CFD Toolbox           |
|  \\    /   O peration     | Version:  5.x                                   |
|   \\  /    A nd           | Web:      www.OpenFOAM.org                      |
|    \\/     M anipulation  |                                                 |
\*---------------------------------------------------------------------------*/
FoamFile
{
    version     2.0;
    format      ascii;
    class       volScalarField;
    location    "15.0999";
    object      gradTx;
}
// * * * * * * * * * * * * * * * * * * * * * * * * * * * * * * * * * * * * * //

dimensions      [0 -1 0 1 0 0 0];

internalField   nonuniform List<scalar> 
6300
(
-31.9428
-32.0135
-32.1544
-32.3638
-32.6397
-32.9788
-33.3769
-33.8285
-34.327
-34.8641
-35.4307
-36.0163
-36.6097
-37.1998
-37.776
-31.872
-31.9435
-32.0857
-32.2974
-32.5765
-32.9198
-33.3233
-33.7817
-34.2882
-34.8348
-35.4118
-36.0084
-36.6131
-37.2138
-37.7993
-31.7299
-31.8026
-31.9476
-32.1637
-32.449
-32.8006
-33.2149
-33.6868
-34.2095
-34.775
-35.3732
-35.9925
-36.6203
-37.2431
-37.8479
-31.5149
-31.5896
-31.7385
-31.9608
-32.255
-32.6189
-33.0491
-33.5409
-34.0882
-34.6825
-35.3134
-35.9683
-36.6326
-37.2904
-37.926
-31.2253
-31.3023
-31.456
-31.686
-31.9915
-32.3708
-32.8216
-33.3398
-33.9197
-34.5533
-35.2297
-35.9347
-36.6513
-37.36
-38.0406
-30.8588
-30.9382
-31.0972
-31.3359
-31.6541
-32.0514
-32.5266
-33.0769
-33.6977
-34.3815
-35.1173
-35.8895
-36.6778
-37.4578
-38.2021
-30.4128
-30.4946
-30.6588
-30.9061
-31.2376
-31.6543
-32.1565
-32.7436
-33.4127
-34.1578
-34.9685
-35.8281
-36.7128
-37.5913
-38.426
-29.885
-29.9688
-30.1373
-30.3922
-30.7361
-31.1716
-31.7016
-32.3282
-33.0516
-33.8687
-34.7708
-35.7415
-36.7539
-37.7687
-38.7334
-29.2734
-29.3583
-29.5294
-29.7896
-30.1428
-30.5944
-31.1502
-31.8161
-32.597
-33.4945
-34.5044
-35.6131
-36.7927
-37.9962
-39.1526
-28.577
-28.6615
-28.8325
-29.0938
-29.4514
-29.9131
-30.4886
-31.1891
-32.0257
-33.0077
-34.1392
-35.4136
-36.8073
-38.2707
-39.7154
-27.7961
-27.8784
-28.0453
-28.3019
-28.6558
-29.1179
-29.7022
-30.4259
-31.3088
-32.3714
-33.6308
-35.0946
-36.7519
-38.5635
-40.4431
-26.933
-27.0106
-27.1685
-27.4126
-27.7522
-28.2007
-28.7764
-29.5034
-30.4121
-31.5379
-32.9176
-34.5813
-36.5415
-38.7874
-41.2927
-25.9925
-26.0626
-26.2056
-26.428
-26.7398
-27.1562
-27.6991
-28.3992
-29.2981
-30.4501
-31.9194
-33.7699
-36.0427
-38.7484
-41.9903
-24.9819
-25.0416
-25.1636
-25.354
-25.6227
-25.9851
-26.4646
-27.0959
-27.9307
-29.044
-30.5382
-32.5321
-35.1029
-38.158
-41.5693
-23.9118
-23.9582
-24.0533
-24.2018
-24.412
-24.6971
-25.0782
-25.5888
-26.2842
-27.2558
-28.6542
-30.7085
-33.6552
-37.1577
-37.5482
-38.2848
-38.7245
-39.14
-39.5295
-39.8919
-40.2273
-40.5361
-40.8186
-41.0752
-41.3057
-41.5095
-41.6856
-41.8329
-41.9509
-42.0392
-42.0989
-42.1317
-42.1407
-42.1296
-42.1028
-42.0644
-42.0183
-41.9674
-41.9135
-41.8571
-41.7975
-41.7334
-41.6627
-41.5836
-41.4947
-41.3952
-41.2855
-41.1671
-41.0422
-40.9138
-40.7845
-40.6572
-40.5335
-40.4144
-40.2997
-40.1882
-40.0778
-39.9664
-39.8517
-39.732
-39.6062
-39.4746
-39.3381
-39.1988
-39.059
-38.9214
-38.7882
-38.661
-38.5405
-38.4263
-38.3172
-38.2113
-38.1061
-37.9996
-37.8899
-37.7762
-37.6584
-37.5375
-37.4154
-37.2943
-37.1767
-37.0648
-36.96
-36.863
-36.7738
-36.6911
-36.6134
-36.5389
-36.4659
-36.3933
-36.3212
-36.2504
-36.1833
-36.1229
-36.073
-36.0377
-36.0207
-36.0248
-36.052
-36.1022
-36.1738
-36.2634
-36.3662
-36.4759
-36.5856
-38.3151
-38.7593
-39.1776
-39.5683
-39.9309
-40.2657
-40.5738
-40.8559
-41.1127
-41.3441
-41.5493
-41.7269
-41.8754
-41.9934
-42.0806
-42.1375
-42.166
-42.1695
-42.1524
-42.1194
-42.0756
-42.0253
-41.9718
-41.9171
-41.8615
-41.8041
-41.7427
-41.6749
-41.5979
-41.5098
-41.4098
-41.2981
-41.1764
-41.0475
-40.9148
-40.7819
-40.6518
-40.5269
-40.4081
-40.2951
-40.1864
-40.0794
-39.9712
-39.859
-39.7406
-39.6147
-39.4815
-39.3422
-39.1994
-39.0559
-38.9151
-38.7796
-38.6514
-38.5314
-38.419
-38.3127
-38.2101
-38.1081
-38.004
-37.8957
-37.782
-37.6628
-37.5393
-37.4139
-37.2893
-37.1686
-37.0545
-36.9486
-36.852
-36.7642
-36.6839
-36.6089
-36.5367
-36.4652
-36.3928
-36.3191
-36.2453
-36.1736
-36.1077
-36.052
-36.0113
-35.9901
-35.9918
-36.0188
-36.0713
-36.1478
-36.2446
-36.3562
-36.4758
-36.5955
-38.378
-38.8312
-39.2549
-39.6477
-40.0098
-40.3427
-40.6487
-40.9297
-41.1869
-41.4204
-41.6289
-41.8102
-41.9615
-42.0805
-42.1656
-42.2168
-42.2364
-42.2282
-42.1978
-42.1516
-42.096
-42.0368
-41.978
-41.922
-41.8687
-41.8163
-41.7615
-41.7001
-41.6281
-41.5423
-41.4412
-41.325
-41.1961
-41.0582
-40.9162
-40.775
-40.6391
-40.5115
-40.3935
-40.2845
-40.1821
-40.0826
-39.9818
-39.8753
-39.7599
-39.6338
-39.4971
-39.3516
-39.2008
-39.0491
-38.9009
-38.7604
-38.6301
-38.5112
-38.403
-38.3031
-38.2078
-38.1131
-38.0147
-37.9095
-37.7957
-37.6733
-37.544
-37.4112
-37.2788
-37.1512
-37.0321
-36.9241
-36.8283
-36.744
-36.6691
-36.6002
-36.5336
-36.4657
-36.394
-36.3174
-36.237
-36.1556
-36.0778
-36.0095
-35.957
-35.9264
-35.9225
-35.9487
-36.0059
-36.0925
-36.2044
-36.3349
-36.4755
-36.6165
-38.4786
-38.9457
-39.3768
-39.7712
-40.1306
-40.4585
-40.7596
-41.0376
-41.2952
-41.5325
-41.7476
-41.9365
-42.0944
-42.2164
-42.2992
-42.3419
-42.3467
-42.3189
-42.2661
-42.1973
-42.1218
-42.0475
-41.9803
-41.9228
-41.8746
-41.8321
-41.7897
-41.7406
-41.6781
-41.5969
-41.4942
-41.3703
-41.2286
-41.0748
-40.9163
-40.7607
-40.6144
-40.4823
-40.3659
-40.2643
-40.1736
-40.0879
-40.0004
-39.9044
-39.7946
-39.6682
-39.5252
-39.3686
-39.2036
-39.0371
-38.8759
-38.7263
-38.5924
-38.4757
-38.375
-38.2867
-38.2049
-38.1232
-38.0351
-37.9356
-37.8217
-37.6936
-37.5539
-37.4077
-37.2613
-37.1214
-36.9937
-36.882
-36.7879
-36.7103
-36.6455
-36.5883
-36.5323
-36.4718
-36.4022
-36.3213
-36.2301
-36.1322
-36.0342
-35.9442
-35.8713
-35.8241
-35.81
-35.834
-35.8981
-36.0009
-36.1374
-36.299
-36.4745
-36.651
-38.6257
-39.1118
-39.5516
-39.9451
-40.2965
-40.6131
-40.9035
-41.175
-41.4325
-41.6766
-41.904
-42.1076
-42.2788
-42.4086
-42.4904
-42.5215
-42.5041
-42.4456
-42.3572
-42.2527
-42.1457
-42.0482
-41.9686
-41.9103
-41.8721
-41.8477
-41.8277
-41.8005
-41.755
-41.6824
-41.5778
-41.4414
-41.2785
-41.0982
-40.9123
-40.7327
-40.5696
-40.4302
-40.3171
-40.2284
-40.1578
-40.0958
-40.0312
-39.9533
-39.8533
-39.7266
-39.5731
-39.3976
-39.2087
-39.0172
-38.8344
-38.6697
-38.5298
-38.417
-38.3293
-38.2607
-38.202
-38.1426
-38.0721
-37.9822
-37.8684
-37.7306
-37.5732
-37.4045
-37.2346
-37.0741
-36.9321
-36.8146
-36.7239
-36.6581
-36.6112
-36.5745
-36.5377
-36.491
-36.4265
-36.3402
-36.2327
-36.1092
-35.9791
-35.8544
-35.7485
-35.6742
-35.6426
-35.6615
-35.7345
-35.8608
-36.0342
-36.2432
-36.4723
-36.7032
-38.8331
-39.3447
-39.7932
-40.1797
-40.5126
-40.8056
-41.0744
-41.3327
-41.589
-41.8449
-42.0944
-42.3255
-42.5227
-42.67
-42.7548
-42.7709
-42.7208
-42.6152
-42.4717
-42.3115
-42.156
-42.0233
-41.926
-41.8691
-41.8496
-41.8572
-41.8759
-41.8867
-41.871
-41.8139
-41.7071
-41.5507
-41.3533
-41.1298
-40.8993
-40.6808
-40.4907
-40.3402
-40.2332
-40.1664
-40.1296
-40.1074
-40.0814
-40.0339
-39.9506
-39.8235
-39.6526
-39.4458
-39.2174
-38.985
-38.7666
-38.5776
-38.4282
-38.3221
-38.2562
-38.2204
-38.2001
-38.178
-38.1369
-38.0633
-37.9496
-37.7956
-37.609
-37.403
-37.1944
-37.0003
-36.8351
-36.7085
-36.6241
-36.5785
-36.5622
-36.5607
-36.5574
-36.5356
-36.4822
-36.3898
-36.2583
-36.0957
-35.916
-35.7375
-35.5801
-35.463
-35.4026
-35.4108
-35.4944
-35.6531
-35.8795
-36.1584
-36.4676
-36.78
-39.1223
-39.6683
-40.124
-40.4915
-40.786
-41.0329
-41.2604
-41.4931
-41.7461
-42.0222
-42.3112
-42.5923
-42.8384
-43.0213
-43.1178
-43.1157
-43.0173
-42.8395
-42.6103
-42.3637
-42.1332
-41.9474
-41.8252
-41.7739
-41.7882
-41.8507
-41.9354
-42.011
-42.0467
-42.0171
-41.9079
-41.7192
-41.4654
-41.1717
-40.8689
-40.588
-40.355
-40.1873
-40.0913
-40.0613
-40.0806
-40.1242
-40.1625
-40.1661
-40.1109
-39.9834
-39.7837
-39.5253
-39.2319
-38.9327
-38.6566
-38.4283
-38.264
-38.1696
-38.1395
-38.1579
-38.201
-38.2405
-38.2485
-38.2022
-38.0887
-37.9079
-37.6725
-37.4052
-37.1334
-36.8847
-36.6824
-36.5419
-36.4685
-36.4569
-36.4917
-36.5497
-36.6036
-36.6259
-36.5942
-36.4954
-36.3289
-36.1068
-35.8512
-35.5902
-35.3537
-35.1702
-35.0635
-35.0519
-35.1459
-35.3478
-35.6493
-36.0301
-36.4581
-36.8925
-39.5263
-40.1221
-40.582
-40.9082
-41.1282
-41.2881
-41.4389
-41.6241
-41.8701
-42.181
-42.5393
-42.9095
-43.2452
-43.4969
-43.6229
-43.5993
-43.4281
-43.1375
-42.7741
-42.3926
-42.0463
-41.7797
-41.6222
-41.5845
-41.6572
-41.8123
-42.0078
-42.193
-42.3164
-42.3347
-42.2231
-41.9815
-41.635
-41.2266
-40.8071
-40.4262
-40.1252
-39.9314
-39.8544
-39.885
-39.9965
-40.1487
-40.2938
-40.3829
-40.3753
-40.2474
-39.9994
-39.655
-39.2548
-38.8468
-38.4779
-38.1868
-37.9993
-37.9244
-37.953
-38.0599
-38.2069
-38.3485
-38.4384
-38.438
-38.3247
-38.0986
-37.7821
-37.4138
-37.0391
-36.7024
-36.4408
-36.2784
-36.2239
-36.2685
-36.3877
-36.5447
-36.6952
-36.794
-36.8028
-36.6985
-36.4796
-36.1662
-35.7942
-35.4075
-35.0513
-34.7665
-34.5877
-34.5407
-34.6422
-34.8991
-35.3047
-35.8337
-36.4397
-37.0585
-40.0961
-40.7717
-41.2327
-41.4776
-41.5572
-41.5565
-41.5678
-41.6676
-41.9005
-42.2717
-42.75
-43.2763
-43.7726
-44.1537
-44.3433
-44.2952
-44.0109
-43.5405
-42.9639
-42.3706
-41.8448
-41.455
-41.2467
-41.2361
-41.4074
-41.7159
-42.0951
-42.464
-42.7372
-42.8397
-42.7254
-42.3948
-41.8939
-41.2974
-40.6897
-40.1494
-39.741
-39.5071
-39.4627
-39.5924
-39.8537
-40.1836
-40.5055
-40.7389
-40.8128
-40.6843
-40.3538
-39.8651
-39.289
-38.7048
-38.187
-37.7963
-37.5725
-37.53
-37.6539
-37.904
-38.2205
-38.5308
-38.7585
-38.8362
-38.723
-38.4194
-37.9665
-37.4316
-36.8899
-36.4122
-36.0561
-35.8598
-35.8367
-35.9727
-36.2294
-36.5489
-36.8613
-37.0918
-37.1742
-37.0666
-36.7663
-36.3098
-35.7582
-35.1811
-34.6458
-34.2104
-33.9221
-33.8154
-33.9148
-34.2364
-34.7824
-35.5266
-36.4027
-37.3073
-40.9082
-41.7302
-42.1947
-42.2852
-42.1022
-41.8077
-41.5694
-41.5196
-41.7319
-42.2079
-42.8916
-43.6862
-44.4659
-45.0861
-45.4061
-45.3309
-44.8618
-44.0965
-43.1775
-42.2516
-41.4475
-40.869
-40.5863
-40.6259
-40.9599
-41.5178
-42.1971
-42.8726
-43.4041
-43.6566
-43.5394
-43.0533
-42.2902
-41.3847
-40.475
-39.6828
-39.1057
-38.8099
-38.8202
-39.1101
-39.6123
-40.23
-40.8449
-41.3245
-41.5419
-41.412
-40.936
-40.2012
-39.3347
-38.4672
-37.7133
-37.1651
-36.8849
-36.8959
-37.173
-37.6526
-38.2431
-38.8322
-39.2944
-39.5093
-39.3958
-38.9549
-38.2691
-37.4591
-36.6486
-35.9468
-35.4412
-35.1916
-35.2202
-35.5033
-35.9803
-36.5636
-37.1451
-37.603
-37.8192
-37.7122
-37.2781
-36.5905
-35.7588
-34.8947
-34.0962
-33.4427
-32.9947
-32.7936
-32.8675
-33.2505
-33.9748
-35.0292
-36.325
-37.6885
-42.0732
-43.2038
-43.6952
-43.4861
-42.8078
-41.9788
-41.2997
-40.9943
-41.1838
-41.8449
-42.8735
-44.1176
-45.389
-46.4505
-47.038
-46.9338
-46.1392
-44.8737
-43.4013
-41.9569
-40.7254
-39.8569
-39.462
-39.5915
-40.1903
-41.1447
-42.3045
-43.4888
-44.4725
-45.006
-44.8847
-44.1105
-42.8916
-41.4778
-40.0911
-38.9063
-38.0651
-37.6721
-37.7752
-38.3219
-39.2044
-40.2805
-41.379
-42.2876
-42.7713
-42.6381
-41.8909
-40.7268
-39.382
-38.066
-36.9434
-36.1478
-35.7779
-35.8787
-36.4006
-37.2417
-38.2675
-39.3162
-40.1865
-40.6553
-40.5401
-39.8431
-38.7508
-37.4871
-36.2509
-35.1986
-34.4579
-34.1229
-34.2373
-34.7546
-35.5784
-36.5808
-37.6068
-38.4622
-38.9297
-38.8288
-38.1548
-37.0788
-35.8059
-34.5141
-33.3375
-32.3792
-31.7119
-31.3757
-31.375
-31.7732
-32.6919
-34.1844
-36.1495
-38.2898
-43.7202
-45.6012
-46.2054
-45.3607
-43.7292
-41.9349
-40.4927
-39.7567
-39.9567
-40.953
-42.545
-44.5098
-46.614
-48.4975
-49.6657
-49.531
-48.0947
-45.9487
-43.5847
-41.3557
-39.4805
-38.1628
-37.5825
-37.8813
-38.9085
-40.476
-42.3767
-44.394
-46.1892
-47.2983
-47.1699
-45.8082
-43.7737
-41.5319
-39.4167
-37.6349
-36.3792
-35.82
-36.0914
-37.0502
-38.518
-40.2985
-42.1866
-43.8625
-44.8891
-44.7482
-43.446
-41.5126
-39.3879
-37.3863
-35.7025
-34.5178
-33.9931
-34.255
-35.1684
-36.5648
-38.259
-40.0572
-41.6566
-42.6424
-42.5221
-41.3003
-39.4793
-37.4757
-35.5881
-34.002
-32.8903
-32.4072
-32.6742
-33.5645
-34.9193
-36.5639
-38.3142
-39.8798
-40.8589
-40.7705
-39.6104
-37.8508
-35.8801
-33.9674
-32.2647
-30.8966
-29.9523
-29.4748
-29.3078
-29.5467
-30.5825
-32.659
-35.7217
-39.2753
-45.843
-49.8498
-50.8144
-48.366
-44.8769
-41.3827
-38.6703
-37.1719
-37.5832
-39.2034
-41.6797
-44.7012
-48.1569
-51.5745
-54.1695
-54.0022
-51.0724
-47.3376
-43.5736
-40.245
-37.4331
-35.4066
-34.4372
-35.1222
-36.8489
-39.3272
-42.2812
-45.6187
-48.894
-51.3727
-51.2311
-48.4748
-44.9543
-41.4039
-38.262
-35.6061
-33.6901
-32.772
-33.4176
-35.0456
-37.381
-40.1618
-43.2998
-46.3724
-48.6879
-48.5309
-45.9098
-42.5741
-39.2166
-36.2489
-33.7429
-31.9372
-31.0756
-31.6932
-33.2407
-35.4589
-38.1009
-41.0844
-44.0103
-46.2223
-46.0903
-43.6206
-40.4706
-37.2972
-34.4913
-32.1221
-30.4176
-29.6112
-30.2137
-31.7054
-33.8428
-36.395
-39.2875
-42.1419
-44.3255
-44.2553
-41.9294
-38.9269
-35.8707
-33.1186
-30.71
-28.8035
-27.5205
-27.1267
-26.6564
-26.1725
-26.9743
-29.7137
-34.5872
-40.9765
-47.371
-58.5073
-60.4096
-52.8992
-46.011
-39.6933
-35.0974
-31.837
-33.469
-36.2212
-40.0294
-44.2672
-49.7547
-55.8358
-62.6512
-62.4512
-55.2091
-48.7686
-42.9354
-38.3902
-34.2547
-31.1282
-28.9094
-30.8632
-33.707
-37.4933
-41.6334
-46.9332
-52.7456
-59.2204
-59.0574
-52.2419
-46.178
-40.6874
-36.4074
-32.5119
-29.564
-27.4722
-29.329
-32.0223
-35.6027
-39.5108
-44.5072
-49.9726
-56.0469
-55.862
-49.4027
-43.6668
-38.4838
-34.4467
-30.7751
-27.9971
-26.0281
-27.7922
-30.3472
-33.7428
-37.4511
-42.1946
-47.392
-53.1775
-53.0246
-46.9206
-41.4955
-36.5895
-32.7657
-29.2849
-26.6516
-24.7866
-26.4726
-28.9165
-32.1692
-35.736
-40.3156
-45.3702
-51.0373
-50.9885
-45.2225
-40.0803
-35.4232
-31.775
-28.4325
-25.8127
-23.8083
-24.8888
-24.0244
-20.9468
-20.5761
-23.6952
-31.2699
-44.1081
-40.9125
-80.3881
-83.8134
-56.7959
-46.3607
-35.5212
-29.6008
-19.4576
-27.742
-31.7185
-37.7606
-42.0337
-50.4974
-59.0399
-81.2349
-81.0406
-58.1913
-49.3249
-40.4423
-35.9457
-29.6232
-25.5425
-17.3733
-25.3225
-29.208
-35.1499
-39.3158
-47.5095
-55.6434
-76.6266
-76.4633
-54.9265
-46.5763
-38.2278
-33.9992
-28.0531
-24.2053
-16.4863
-24.036
-27.7218
-33.3522
-37.2928
-45.0391
-52.6959
-72.4193
-72.2284
-51.8538
-43.9632
-36.1011
-32.1182
-26.5202
-22.8922
-15.6048
-22.7523
-26.2433
-31.5763
-35.3107
-42.6513
-49.9266
-68.684
-68.5287
-49.2429
-41.7729
-34.3235
-30.5462
-25.2272
-21.7794
-14.8487
-21.6399
-24.9629
-30.0434
-33.6185
-40.6596
-47.7164
-65.9803
-65.9542
-47.6174
-40.5351
-33.5232
-29.9912
-25.1141
-21.9357
-15.654
-25.4513
-24.5796
-11.8233
-9.15253
-11.2605
-20.3731
-50.2143
-36.6976
-36.801
-36.8758
-36.9165
-36.9214
-36.8922
-36.8338
-36.7529
-36.6578
-36.5569
-36.4586
-36.3703
-36.2983
-36.2475
-36.2213
-36.7175
-36.8297
-36.9099
-36.9523
-36.9554
-36.9215
-36.8562
-36.7672
-36.6635
-36.5544
-36.4486
-36.3539
-36.2771
-36.223
-36.1951
-36.7597
-36.8903
-36.9817
-37.0275
-37.0265
-36.9823
-36.9023
-36.7962
-36.6747
-36.5485
-36.4273
-36.3199
-36.2331
-36.1723
-36.141
-36.8294
-36.99
-37.0993
-37.1495
-37.1406
-37.0788
-36.9745
-36.8406
-36.6907
-36.5375
-36.3924
-36.2651
-36.1631
-36.092
-36.0556
-36.9354
-37.1411
-37.2758
-37.3306
-37.3077
-37.2177
-37.0762
-36.9012
-36.7099
-36.5184
-36.3398
-36.185
-36.0622
-35.9772
-35.9337
-37.0921
-37.3633
-37.5323
-37.5895
-37.5419
-37.408
-37.2116
-36.9778
-36.7295
-36.4862
-36.2634
-36.073
-35.9234
-35.8207
-35.7685
-37.3229
-37.6875
-37.9004
-37.9532
-37.8626
-37.6607
-37.3844
-37.0689
-36.7442
-36.4336
-36.1547
-35.92
-35.7379
-35.6138
-35.551
-37.6657
-38.1634
-38.4288
-38.4601
-38.2946
-37.9878
-37.5964
-37.1693
-36.7446
-36.3493
-36.0019
-35.7145
-35.4942
-35.3455
-35.2707
-38.1844
-38.8716
-39.1914
-39.1638
-38.868
-38.3994
-37.844
-37.2675
-36.7155
-36.217
-35.7892
-35.4417
-35.1791
-35.0034
-34.9155
-38.9911
-39.9472
-40.3013
-40.1358
-39.614
-38.898
-38.1127
-37.3412
-36.6329
-36.0139
-35.4963
-35.084
-34.7769
-34.5736
-34.4724
-40.2945
-41.6248
-41.9308
-41.464
-40.5543
-39.4659
-38.3676
-37.3517
-36.4609
-35.7096
-35.0982
-34.6211
-34.271
-34.0416
-33.9281
-42.5159
-44.3266
-44.333
-43.2351
-41.6734
-40.0436
-38.54
-37.2371
-36.1493
-35.2653
-34.5658
-34.031
-33.6445
-33.3937
-33.2704
-46.5944
-48.8327
-47.8395
-45.4701
-42.8607
-40.495
-38.5117
-36.9075
-35.634
-34.6366
-33.8685
-33.2928
-32.8823
-32.6184
-32.4893
-54.9098
-56.5705
-52.7221
-47.9449
-43.8044
-40.564
-38.1044
-36.2473
-34.8424
-33.7788
-32.9789
-32.3892
-31.9736
-31.7083
-31.5791
-74.4913
-69.8175
-58.5337
-49.7829
-43.8481
-39.8522
-37.0945
-35.135
-33.7094
-32.6572
-31.879
-31.3116
-30.9145
-30.6622
-30.5396
-22.8884
-22.9206
-22.9865
-23.089
-23.2334
-23.4284
-23.6883
-24.0378
-24.5213
-25.2238
-26.3211
-28.2022
-31.7651
-38.944
-51.7139
-21.9357
-21.9541
-21.9914
-22.0485
-22.127
-22.2299
-22.3625
-22.5345
-22.766
-23.1012
-23.6505
-24.7306
-27.4359
-36.4685
-77.6276
-20.9703
-20.9746
-20.9826
-20.993
-21.0036
-21.0109
-21.0092
-20.9898
-20.9385
-20.8297
-20.6082
-20.1029
-18.5475
-11.6648
25.2963
-20.0019
-19.9925
-19.9722
-19.9375
-19.8826
-19.798
-19.6681
-19.4672
-19.1507
-18.637
-17.7647
-16.1937
-13.2087
-7.73152
-3.92298
-19.0401
-19.0181
-18.9717
-18.896
-18.7823
-18.6166
-18.3762
-18.0245
-17.4997
-16.6938
-15.4104
-13.2797
-9.57533
-2.62269
13.4564
-18.0937
-18.0606
-17.9918
-17.8811
-17.7182
-17.4869
-17.1616
-16.7019
-16.0435
-15.0816
-13.6451
-11.4659
-8.19931
-3.8456
-1.97413
-17.1702
-17.1281
-17.0409
-16.9023
-16.7017
-16.4226
-16.0402
-15.5173
-14.7979
-13.7983
-12.3948
-10.4091
-7.57932
-3.34344
4.91494
-16.276
-16.2269
-16.1259
-15.9667
-15.7397
-15.43
-15.0164
-14.469
-13.7468
-12.7954
-11.5483
-9.93866
-7.93615
-5.63447
-3.48068
-15.416
-15.3619
-15.2511
-15.0784
-14.8352
-14.5096
-14.0855
-13.5422
-12.8549
-11.9977
-10.9535
-9.74106
-8.50088
-7.82278
-10.3805
-14.5936
-14.5363
-14.4195
-14.2389
-13.9879
-13.6577
-13.2375
-12.7154
-12.0808
-11.3299
-10.4754
-9.56272
-8.67532
-7.76397
-5.05216
-13.811
-13.7519
-13.6322
-13.4484
-13.1957
-12.8684
-12.4602
-11.9666
-11.3876
-10.7341
-10.0376
-9.36682
-8.86641
-8.95544
-11.8446
-13.0694
-13.0098
-12.8894
-12.7056
-12.4554
-12.1352
-11.7424
-11.2771
-10.7462
-10.1682
-9.58198
-9.05261
-8.64819
-8.20232
-5.57436
-12.3693
-12.31
-12.1905
-12.0091
-11.7638
-11.4526
-11.0748
-10.6334
-10.1374
-9.60804
-9.08688
-8.65166
-8.45878
-8.96449
-12.5476
-11.7103
-11.6519
-11.5346
-11.3571
-11.1179
-10.8161
-10.4516
-10.0275
-9.55187
-9.04222
-8.53213
-8.08245
-7.78428
-7.58951
-5.46926
-11.0918
-11.0349
-10.9206
-10.7479
-10.5157
-10.223
-9.8698
-9.45736
-8.98999
-8.47671
-7.93547
-7.40804
-7.03799
-7.55163
-13.4579
-10.5129
-10.4577
-10.347
-10.1799
-9.95537
-9.67214
-9.32914
-8.92542
-8.46002
-7.93065
-7.32925
-6.62437
-5.67805
-3.76883
3.48819
-9.97221
-9.91916
-9.81267
-9.65194
-9.43583
-9.16277
-8.83065
-8.43634
-7.97448
-7.43464
-6.79491
-6.00838
-4.98682
-3.69973
-3.5621
-9.46839
-9.41771
-9.31597
-9.16242
-8.95584
-8.69441
-8.37536
-7.99418
-7.5431
-7.00802
-6.36253
-5.55562
-4.47999
-2.83236
0.867799
-8.99978
-8.95172
-8.85526
-8.70973
-8.51394
-8.26609
-7.96323
-7.60057
-7.17006
-6.65808
-6.04227
-5.28946
-4.3704
-3.39033
-3.51718
-8.56455
-8.51933
-8.42865
-8.29193
-8.10822
-7.87596
-7.59263
-7.25409
-6.8536
-6.38027
-5.81715
-5.13878
-4.30318
-3.1796
-0.908234
-8.16072
-8.11853
-8.034
-7.90677
-7.73622
-7.52131
-7.26037
-6.95064
-6.58772
-6.16482
-5.67207
-5.09728
-4.43594
-3.76594
-3.80383
-7.78618
-7.74714
-7.66901
-7.5517
-7.39502
-7.19864
-6.962
-6.68413
-6.36351
-5.99789
-5.58398
-5.11591
-4.57472
-3.86066
-2.35953
-7.43877
-7.40289
-7.33123
-7.22396
-7.08139
-6.90394
-6.69226
-6.4473
-6.17055
-5.8645
-5.5335
-5.18531
-4.83355
-4.50195
-4.23888
-7.11627
-7.0835
-7.01818
-6.92076
-6.79198
-6.63302
-6.44564
-6.23256
-5.99795
-5.74844
-5.49497
-5.25719
-5.0784
-5.09564
-5.93548
-6.81653
-6.78673
-6.72744
-6.63933
-6.52354
-6.38183
-6.21688
-6.03277
-5.8357
-5.63515
-5.44556
-5.2881
-5.18712
-5.11809
-4.57784
-6.53749
-6.51043
-6.4567
-6.37713
-6.2731
-6.14678
-6.00144
-5.84199
-5.67586
-5.51424
-5.37385
-5.27979
-5.27365
-5.46775
-6.48237
-6.27725
-6.25266
-6.20392
-6.13192
-6.03816
-5.92495
-5.79579
-5.65585
-5.51291
-5.37859
-5.26997
-5.21043
-5.22115
-5.24759
-4.6286
-6.03408
-6.01168
-5.96729
-5.90182
-5.81671
-5.71422
-5.59763
-5.47181
-5.34399
-5.22508
-5.13201
-5.0923
-5.15772
-5.47564
-6.80777
-5.80648
-5.78597
-5.74532
-5.68535
-5.60735
-5.51327
-5.40588
-5.28916
-5.16887
-5.05365
-4.95701
-4.90116
-4.91896
-4.99937
-4.46787
-5.59313
-5.57424
-5.53677
-5.4814
-5.40917
-5.32157
-5.22062
-5.10899
-4.99025
-4.86931
-4.75369
-4.65887
-4.63672
-4.94802
-7.20291
-5.39291
-5.37541
-5.34066
-5.28917
-5.22168
-5.13916
-5.04277
-4.93376
-4.81317
-4.6813
-4.53592
-4.36614
-4.12291
-3.54696
-1.04916
-5.20484
-5.18856
-5.15619
-5.10806
-5.04462
-4.96637
-4.8737
-4.76656
-4.64394
-4.50267
-4.33509
-4.12443
-3.84017
-3.4805
-3.61537
-5.02808
-5.0129
-4.98267
-4.93757
-4.87785
-4.80361
-4.71468
-4.61013
-4.48766
-4.34231
-4.16419
-3.93383
-3.60979
-3.0706
-1.70492
-4.86186
-4.84771
-4.81947
-4.77726
-4.72116
-4.65107
-4.5665
-4.46615
-4.34727
-4.20472
-4.02957
-3.80831
-3.52883
-3.23464
-3.41628
-4.70548
-4.69229
-4.66597
-4.62659
-4.57418
-4.5086
-4.4293
-4.33504
-4.22334
-4.08977
-3.92697
-3.72322
-3.45809
-3.06824
-2.1595
-4.55827
-4.54601
-4.52155
-4.48498
-4.43637
-4.37565
-4.30249
-4.21604
-4.1146
-3.99514
-3.8528
-3.68077
-3.47397
-3.26216
-3.3658
-4.41957
-4.4082
-4.38555
-4.35174
-4.30696
-4.25135
-4.18492
-4.10746
-4.01837
-3.91639
-3.79927
-3.66248
-3.49333
-3.23699
-2.58728
-4.28877
-4.27824
-4.25729
-4.22613
-4.18509
-4.13456
-4.075
-4.00697
-3.93109
-3.84817
-3.7594
-3.66667
-3.57326
-3.48497
-3.41425
-4.16529
-4.15552
-4.13612
-4.1074
-4.06982
-4.02404
-3.97099
-3.91193
-3.8487
-3.78403
-3.72228
-3.67133
-3.64963
-3.72075
-4.19205
-4.0486
-4.03949
-4.02143
-3.99482
-3.96024
-3.91858
-3.87114
-3.8198
-3.76733
-3.71787
-3.67766
-3.65567
-3.66156
-3.67861
-3.44275
-3.93825
-3.92966
-3.9127
-3.88777
-3.85557
-3.81714
-3.77401
-3.72845
-3.68386
-3.6453
-3.6204
-3.62067
-3.66575
-3.81209
-4.38392
-3.83386
-3.82567
-3.8095
-3.78579
-3.75525
-3.71897
-3.67857
-3.63645
-3.5962
-3.56325
-3.54566
-3.55454
-3.59962
-3.65007
-3.35052
-3.73516
-3.72722
-3.71154
-3.68855
-3.65891
-3.62366
-3.58433
-3.54315
-3.50349
-3.47054
-3.45253
-3.46329
-3.52978
-3.73111
-4.48065
-3.64198
-3.63415
-3.61868
-3.59592
-3.56647
-3.5312
-3.49137
-3.44879
-3.40613
-3.36746
-3.33944
-3.33335
-3.3663
-3.43143
-3.15839
-3.55424
-3.5464
-3.53087
-3.50795
-3.47808
-3.44192
-3.40034
-3.3545
-3.30599
-3.257
-3.21112
-3.1763
-3.18048
-3.36658
-4.61932
-3.47194
-3.464
-3.44821
-3.4248
-3.39406
-3.3564
-3.31226
-3.26208
-3.20618
-3.14438
-3.07513
-2.99217
-2.86833
-2.56098
-1.19514
-3.39517
-3.38704
-3.37085
-3.34674
-3.31486
-3.27538
-3.22837
-3.17365
-3.11047
-3.03693
-2.94868
-2.83643
-2.68361
-2.49046
-2.57741
-3.32405
-3.31569
-3.299
-3.27407
-3.24094
-3.1996
-3.14985
-3.09109
-3.02197
-2.93971
-2.83889
-2.70888
-2.52691
-2.2254
-1.46166
-3.25874
-3.25012
-3.23289
-3.20709
-3.17272
-3.12966
-3.07758
-3.01573
-2.94259
-2.85538
-2.74937
-2.61742
-2.45323
-2.28131
-2.37385
-3.19943
-3.19052
-3.17274
-3.14608
-3.11054
-3.06599
-3.01212
-2.94821
-2.87298
-2.78412
-2.67788
-2.54833
-2.38494
-2.15356
-1.63759
-3.1463
-3.1371
-3.11874
-3.09124
-3.05462
-3.00881
-2.95361
-2.88857
-2.81283
-2.72492
-2.62257
-2.50276
-2.36385
-2.22344
-2.25565
-3.09955
-3.09006
-3.0711
-3.04275
-3.00508
-2.95815
-2.90195
-2.83637
-2.76114
-2.67576
-2.5794
-2.47047
-2.3438
-2.17343
-1.80363
-3.05941
-3.04958
-3.02998
-3.00073
-2.96197
-2.91392
-2.8568
-2.79088
-2.71651
-2.63422
-2.54496
-2.45049
-2.35411
-2.2619
-2.18717
-3.0261
-3.0159
-2.99558
-2.96531
-2.92533
-2.876
-2.81776
-2.75125
-2.67738
-2.59754
-2.51415
-2.43184
-2.36152
-2.33822
-2.51877
-2.99987
-2.98924
-2.96809
-2.93663
-2.89519
-2.84426
-2.78447
-2.71675
-2.64239
-2.56332
-2.48258
-2.40487
-2.33628
-2.27299
-2.1017
-2.98103
-2.9699
-2.94776
-2.91488
-2.87166
-2.81867
-2.75671
-2.68686
-2.61066
-2.53028
-2.44892
-2.37158
-2.30736
-2.28274
-2.43965
-2.96992
-2.9582
-2.9349
-2.90032
-2.85491
-2.79931
-2.73441
-2.6614
-2.58185
-2.49791
-2.41246
-2.32917
-2.25094
-2.16643
-1.94874
-2.96695
-2.95454
-2.92988
-2.89328
-2.84523
-2.78641
-2.71776
-2.64047
-2.55609
-2.4666
-2.37451
-2.28326
-2.19889
-2.1426
-2.24439
-2.9726
-2.9594
-2.93316
-2.8942
-2.84303
-2.78036
-2.70711
-2.62446
-2.53388
-2.43708
-2.336
-2.23256
-2.12733
-2.009
-1.77079
-2.98742
-2.97332
-2.94527
-2.9036
-2.84882
-2.78164
-2.70298
-2.61398
-2.516
-2.41055
-2.29912
-2.18311
-2.06488
-1.95862
-1.97164
-3.01204
-2.99692
-2.96684
-2.92211
-2.86324
-2.79091
-2.70603
-2.60973
-2.50331
-2.38817
-2.26543
-2.1352
-1.99413
-1.82541
-1.54257
-3.04716
-3.03092
-2.99858
-2.95045
-2.887
-2.80889
-2.71702
-2.6125
-2.49669
-2.37106
-2.23695
-2.09482
-1.94257
-1.77143
-1.55599
-3.09356
-3.07609
-3.04129
-2.98942
-2.92093
-2.83644
-2.73679
-2.62313
-2.49689
-2.35985
-2.21403
-2.06146
-1.90415
-1.74822
-1.64232
-3.1521
-3.13331
-3.09585
-3.03995
-2.96598
-2.87451
-2.76631
-2.64249
-2.50459
-2.35473
-2.19581
-2.03141
-1.86476
-1.69025
-1.43253
-3.22369
-3.2035
-3.16322
-3.10302
-3.0232
-2.92419
-2.80667
-2.67162
-2.52058
-2.35593
-2.18139
-2.00292
-1.83082
-1.69006
-1.69536
-3.30929
-3.28765
-3.24443
-3.17973
-3.09373
-2.98674
-2.8592
-2.71187
-2.54604
-2.36398
-2.16969
-1.97002
-1.77513
-1.58842
-1.31024
-3.40993
-3.3868
-3.34055
-3.27122
-3.17886
-3.06356
-2.92548
-2.76497
-2.58277
-2.38054
-2.16174
-1.9338
-1.71376
-1.5503
-1.63417
-3.52663
-3.50199
-3.4527
-3.3787
-3.27992
-3.1562
-3.00735
-2.83312
-2.63342
-2.40859
-2.16014
-1.89209
-1.6131
-1.34042
-1.11406
-3.66045
-3.63432
-3.582
-3.5034
-3.39829
-3.2663
-3.10683
-2.91898
-2.70153
-2.45304
-2.17217
-1.85797
-1.50806
-1.09838
-0.436734
-3.81241
-3.78482
-3.72957
-3.64651
-3.53533
-3.39549
-3.22602
-3.02538
-2.79119
-2.51999
-2.20733
-1.84866
-1.44453
-1.0313
-0.896297
-3.98354
-3.95453
-3.89645
-3.80914
-3.69228
-3.54524
-3.36686
-3.1551
-2.90654
-2.61574
-2.27444
-1.8709
-1.38734
-0.771009
0.3343
-4.17482
-4.14444
-4.08363
-3.9923
-3.8702
-3.71677
-3.53088
-3.31036
-3.05124
-2.74656
-2.38478
-1.94873
-1.42233
-0.850281
-0.760072
-4.38721
-4.35547
-4.292
-4.19682
-4.06987
-3.91084
-3.71896
-3.49244
-3.22757
-2.91703
-2.54669
-2.08931
-1.48903
-0.594938
1.30078
-4.62164
-4.58853
-4.5224
-4.42342
-4.29181
-4.12773
-3.93109
-3.70114
-3.43563
-3.12904
-2.76903
-2.32914
-1.75975
-1.03517
-0.838615
-4.87907
-4.84452
-4.77561
-4.67268
-4.5363
-4.36722
-4.16635
-3.93455
-3.67221
-3.37815
-3.04685
-2.65891
-2.13826
-1.1087
2.67524
-5.16048
-5.12439
-5.05244
-4.94518
-4.8035
-4.6288
-4.42309
-4.18917
-3.93081
-3.65314
-3.36399
-3.08083
-2.87018
-3.09501
-6.06378
-5.46697
-5.42915
-5.3538
-5.24157
-5.09364
-4.91191
-4.69942
-4.46076
-4.20282
-3.93608
-3.67699
-3.45239
-3.29968
-3.17579
-1.9838
-5.79972
-5.75997
-5.68076
-5.56276
-5.40723
-5.2164
-4.99393
-4.74573
-4.48095
-4.21373
-3.96605
-3.77402
-3.70917
-3.99831
-5.90103
-6.16007
-6.11821
-6.03467
-5.91001
-5.74535
-5.54285
-5.30633
-5.04221
-4.76077
-4.4778
-4.21646
-4.00732
-3.87284
-3.70028
-2.31458
-6.5495
-6.50537
-6.41715
-6.28505
-6.10976
-5.89292
-5.63788
-5.35071
-5.04165
-4.72686
-4.43062
-4.18879
-4.06295
-4.24472
-5.88416
-6.96958
-6.92316
-6.83009
-6.69007
-6.50301
-6.26953
-5.99175
-5.67443
-5.32651
-4.96304
-4.607
-4.2897
-4.03944
-3.77687
-2.4739
-7.4219
-7.37334
-7.27563
-7.12777
-6.92851
-6.67691
-6.37308
-6.01939
-5.62218
-5.19405
-4.75647
-4.34407
-4.02446
-4.03154
-5.62249
-7.90795
-7.85764
-7.75602
-7.60115
-7.39035
-7.12056
-6.78904
-6.39456
-5.93932
-5.43163
-4.88846
-4.33399
-3.78263
-3.18629
-2.4122
-8.42893
-8.37758
-8.27339
-8.11338
-7.89315
-7.60707
-7.24872
-6.81193
-6.29289
-5.69386
-5.02829
-4.32175
-3.57204
-2.46447
1.33566
-8.98557
-8.93421
-8.82951
-8.66742
-8.44169
-8.14378
-7.76287
-7.28642
-6.70202
-6.00228
-5.19658
-4.33949
-3.60998
-3.61247
-6.95642
-9.57788
-9.5279
-9.4255
-9.26565
-9.04036
-8.73814
-8.34337
-7.83587
-7.19124
-6.38429
-5.40055
-4.26863
-3.13959
-2.44001
-2.89175
-10.2049
-10.158
-10.0614
-9.90933
-9.69245
-9.39675
-9.00217
-8.48054
-7.79319
-6.88908
-5.70743
-4.19576
-2.37096
-0.468015
0.85921
-10.8645
-10.8226
-10.7358
-10.598
-10.3993
-10.124
-9.74918
-9.24031
-8.54566
-7.58661
-6.24349
-4.34035
-1.65659
1.90378
5.53187
-11.5533
-11.5183
-11.4455
-11.3291
-11.1592
-10.9205
-10.5893
-10.1291
-9.48174
-8.55085
-7.16844
-5.02705
-1.55097
4.22856
12.724
-12.2663
-12.2402
-12.1856
-12.0974
-11.967
-11.7811
-11.5189
-11.1478
-10.6147
-9.82864
-8.62047
-6.64061
-3.04499
4.66727
25.8159
-146.473
-88.0197
-61.5389
-48.8865
-42.1107
-38.0648
-35.437
-33.6261
-32.3285
-31.378
-30.6775
-30.1676
-29.811
-29.5844
-29.4743
-182.187
-82.3637
-54.6679
-43.9907
-38.6354
-35.4551
-33.363
-31.8978
-30.8321
-30.0415
-29.4529
-29.0211
-28.7174
-28.5238
-28.4294
46.9205
-26.6196
-35.9783
-35.3991
-33.6497
-32.0896
-30.8537
-29.8921
-29.1446
-28.5647
-28.1194
-27.7857
-27.5475
-27.3941
-27.319
-7.04456
-15.4458
-24.19
-27.6202
-28.5326
-28.499
-28.1538
-27.7378
-27.3406
-26.9944
-26.7085
-26.4839
-26.3186
-26.2102
-26.1564
25.9107
-4.03394
-16.0921
-21.5897
-24.0724
-25.1248
-25.5032
-25.5703
-25.5014
-25.3822
-25.255
-25.141
-25.0504
-24.9881
-24.9566
-1.42528
-5.0432
-12.5501
-17.6529
-20.6055
-22.2187
-23.0687
-23.4973
-23.6971
-23.7755
-23.7925
-23.7818
-23.7623
-23.7448
-23.7348
11.4598
-3.35174
-10.6778
-15.2092
-18.0686
-19.8426
-20.9269
-21.5831
-21.977
-22.2114
-22.3492
-22.4286
-22.473
-22.4962
-22.5061
-3.07793
-6.85854
-10.7461
-13.9267
-16.2854
-17.9456
-19.0825
-19.851
-20.3677
-20.7145
-20.9464
-21.0998
-21.1984
-21.257
-21.2843
-14.9902
-10.2911
-11.3052
-13.215
-14.9874
-16.4119
-17.4939
-18.2937
-18.8765