/*--------------------------------*- C++ -*----------------------------------*\
| =========                 |                                                 |
| \\      /  F ield         | OpenFOAM: The Open Source CFD Toolbox           |
|  \\    /   O peration     | Version:  5.x                                   |
|   \\  /    A nd           | Web:      www.OpenFOAM.org                      |
|    \\/     M anipulation  |                                                 |
\*---------------------------------------------------------------------------*/
FoamFile
{
    version     2.0;
    format      ascii;
    class       volScalarField;
    location    "15.0999";
    object      gradTy;
}
// * * * * * * * * * * * * * * * * * * * * * * * * * * * * * * * * * * * * * //

dimensions      [0 -1 0 1 0 0 0];

internalField   nonuniform List<scalar> 
6300
(
32284.1
32252.1
32220.1
32187.9
32155.4
32122.7
32089.5
32056
32021.9
31987.4
31952.2
31916.5
31880.2
31843.3
31805.8
0.0533569
0.159573
0.264263
0.366294
0.464378
0.557021
0.642512
0.718937
0.784242
0.836365
0.873416
0.893931
0.897158
0.883333
0.853871
0.0894804
0.26765
0.443388
0.614871
0.779998
0.9363
1.0809
1.21054
1.32167
1.41062
1.47398
1.509
1.51411
1.48949
1.43749
0.126394
0.378158
0.626761
0.869798
1.10443
1.32726
1.53424
1.72065
1.88124
2.01044
2.10287
2.15394
2.16074
2.12298
2.04383
0.164329
0.491822
0.815692
1.13311
1.44065
1.73405
2.0081
2.25654
2.47214
2.64699
2.77306
2.84309
2.85188
2.79783
2.68449
0.203428
0.6091
1.01106
1.40629
1.79097
2.16016
2.50754
2.82522
3.10374
3.33227
3.49924
3.59344
3.60584
3.53192
3.37454
0.243707
0.730082
1.21314
1.69
2.15676
2.60804
3.03662
3.43302
3.78529
4.07908
4.29814
4.42559
4.44612
4.34949
4.13522
0.285021
0.85437
1.42141
1.9838
2.53798
3.07859
3.59785
4.0849
4.52529
4.9006
5.18867
5.36468
5.40365
5.28482
4.99879
0.327025
0.98096
1.6343
2.28577
2.93273
3.57045
4.19123
4.78342
5.33036
5.80939
6.19133
6.44097
6.51918
6.38759
6.01725
0.369141
1.10814
1.84903
2.59222
3.3367
4.07922
4.81317
5.52719
6.20337
6.81534
7.32645
7.68895
7.84495
7.72967
7.27765
0.410538
1.2334
2.06144
2.89736
3.74261
4.59652
5.45502
6.30879
7.14067
7.92232
8.61047
9.14395
9.44281
9.40974
8.92606
0.450139
1.35349
2.26595
3.19314
4.13984
5.10922
6.10161
7.11233
8.12832
9.12302
10.0497
10.8345
11.3744
11.5437
11.1895
0.486662
1.46446
2.45572
3.4694
4.51436
5.59891
6.72988
7.91067
9.13741
10.3921
11.6313
12.7715
13.6805
14.2101
14.3099
0.518703
1.56198
2.62304
3.71437
4.84928
6.04217
7.30835
8.66311
10.1187
11.677
13.313
14.9422
16.3744
17.3298
17.965
0.544872
1.64169
2.7601
3.91573
5.12621
6.41212
7.79827
9.31476
10.9974
12.8845
15.0023
17.3137
19.5601
20.8233
18.6116
31770.9
31738.8
31706.3
31673.5
31640.4
31607
31573.3
31539.4
31505.3
31470.9
31436.4
31401.7
31366.9
31331.9
31296.9
31261.8
31226.7
31191.6
31156.5
31121.4
31086.3
31051.2
31016.3
30981.3
30946.4
30911.5
30876.7
30842
30807.3
30772.7
30738.1
30703.6
30669.3
30635
30600.9
30566.8
30532.9
30499.1
30465.4
30431.7
30398.2
30364.7
30331.4
30298.1
30265
30231.9
30199
30166.1
30133.4
30100.8
30068.3
30035.9
30003.6
29971.5
29939.4
29907.4
29875.6
29843.8
29812.1
29780.4
29748.9
29717.5
29686.1
29654.9
29623.8
29592.7
29561.8
29531
29500.2
29469.6
29438.9
29408.4
29377.9
29347.5
29317.2
29286.9
29256.6
29226.4
29196.3
29166.2
29136.2
29106.2
29076.2
29046.2
29016.1
28986
28955.9
28925.6
28895.3
28864.8
0.81492
0.77272
0.726004
0.676982
0.627501
0.578792
0.531348
0.484937
0.438783
0.391856
0.343218
0.292347
0.239374
0.185185
0.131351
0.0799096
0.0330335
-0.0073528
-0.0399194
-0.0641794
-0.0805916
-0.0905026
-0.0959418
-0.0993069
-0.10299
-0.109004
-0.118679
-0.132453
-0.149832
-0.169493
-0.189535
-0.207842
-0.222465
-0.231981
-0.235746
-0.233999
-0.227824
-0.218955
-0.209485
-0.201513
-0.196796
-0.196455
-0.200787
-0.20922
-0.220413
-0.232498
-0.243409
-0.251255
-0.254652
-0.252959
-0.246376
-0.235906
-0.223169
-0.210127
-0.198747
-0.190672
-0.186943
-0.187822
-0.192746
-0.200423
-0.209062
-0.216684
-0.221477
-0.222104
-0.217934
-0.209131
-0.196611
-0.181868
-0.166702
-0.152898
-0.141904
-0.134555
-0.130902
-0.130156
-0.130782
-0.130712
-0.127665
-0.119498
-0.104552
-0.081925
-0.0516451
-0.0147235
0.0269029
0.0705346
0.112957
0.150753
0.180663
0.199953
0.206747
0.200277
1.36897
1.29502
1.21365
1.12901
1.04458
0.96262
0.883909
0.807785
0.732493
0.655767
0.575528
0.49053
0.400836
0.308025
0.215066
0.125885
0.044704
-0.0247162
-0.0797652
-0.119469
-0.144682
-0.157976
-0.163232
-0.16504
-0.167976
-0.175892
-0.191313
-0.215055
-0.24612
-0.2819
-0.318667
-0.352269
-0.378899
-0.395784
-0.401674
-0.397045
-0.383998
-0.365893
-0.346774
-0.330698
-0.321057
-0.320014
-0.328142
-0.344325
-0.365948
-0.389366
-0.410552
-0.425828
-0.43251
-0.429366
-0.416805
-0.39678
-0.372439
-0.347577
-0.326001
-0.310889
-0.304259
-0.306617
-0.316873
-0.332514
-0.350051
-0.365634
-0.375742
-0.377793
-0.370583
-0.354458
-0.331221
-0.30379
-0.275679
-0.250377
-0.230727
-0.218404
-0.21357
-0.214769
-0.219096
-0.222607
-0.22093
-0.209952
-0.186473
-0.148714
-0.0966324
-0.0320097
0.0416688
0.119509
0.195652
0.263835
0.318038
0.35317
0.365714
0.354215
1.93977
1.82795
1.70593
1.58069
1.45805
1.34171
1.23269
1.12939
1.02822
0.924702
0.814663
0.695451
0.56677
0.431068
0.293334
0.160337
0.0394371
-0.0627743
-0.141708
-0.195621
-0.225936
-0.23702
-0.235485
-0.229145
-0.225791
-0.23197
-0.251962
-0.287111
-0.335618
-0.392884
-0.452354
-0.506735
-0.549363
-0.575418
-0.582749
-0.57221
-0.547455
-0.514288
-0.479682
-0.450617
-0.432934
-0.430365
-0.443898
-0.471594
-0.508899
-0.549445
-0.586206
-0.612776
-0.624516
-0.619332
-0.59798
-0.563871
-0.522458
-0.480294
-0.443945
-0.418894
-0.408629
-0.414041
-0.433243
-0.461874
-0.493853
-0.52247
-0.541607
-0.546818
-0.536069
-0.510026
-0.471868
-0.426691
-0.380613
-0.339718
-0.309
-0.291469
-0.287548
-0.294879
-0.308584
-0.321971
-0.327588
-0.31841
-0.288956
-0.236126
-0.15968
-0.0623364
0.0504416
0.170927
0.289809
0.397047
0.482874
0.538916
0.559302
0.541564
2.53529
2.37552
2.20279
2.02854
1.86238
1.7102
1.57317
1.44785
1.32729
1.20297
1.06697
0.913971
0.742789
0.557019
0.364767
0.177358
0.00725364
-0.134355
-0.239683
-0.305756
-0.334883
-0.334235
-0.314656
-0.288951
-0.269877
-0.268155
-0.290788
-0.339929
-0.412501
-0.500697
-0.593367
-0.678123
-0.743696
-0.782012
-0.789558
-0.767846
-0.723024
-0.664757
-0.60461
-0.554145
-0.523047
-0.517528
-0.539261
-0.585027
-0.647182
-0.714976
-0.776534
-0.821081
-0.840893
-0.832581
-0.797523
-0.741482
-0.673557
-0.604639
-0.545618
-0.505606
-0.490426
-0.501607
-0.536037
-0.586415
-0.642494
-0.692956
-0.727527
-0.738824
-0.723579
-0.683041
-0.622622
-0.550889
-0.478082
-0.414402
-0.368285
-0.344936
-0.345324
-0.365811
-0.398528
-0.432526
-0.45555
-0.456065
-0.4251
-0.357548
-0.252819
-0.114888
0.0481161
0.224654
0.400735
0.561091
0.690601
0.776005
0.807787
0.781822
3.16555
2.94171
2.70178
2.46471
2.24652
2.0568
1.89674
1.75937
1.6317
1.498
1.34368
1.15864
0.939782
0.692278
0.429208
0.169448
-0.0659714
-0.258185
-0.394189
-0.469093
-0.486709
-0.45871
-0.40265
-0.339209
-0.288976
-0.269269
-0.291441
-0.359005
-0.466889
-0.602064
-0.745778
-0.877136
-0.977277
-1.03292
-1.0385
-0.996763
-0.917952
-0.817935
-0.715595
-0.629787
-0.576328
-0.565446
-0.600018
-0.674861
-0.777343
-0.889487
-0.99136
-1.065
-1.09777
-1.08435
-1.02728
-0.936206
-0.826087
-0.714731
-0.61992
-0.556559
-0.534264
-0.555692
-0.615866
-0.702745
-0.799223
-0.886327
-0.946959
-0.969053
-0.947509
-0.884682
-0.789671
-0.676631
-0.562408
-0.463796
-0.394783
-0.36422
-0.374158
-0.419132
-0.486625
-0.558885
-0.615923
-0.639052
-0.613928
-0.532503
-0.393767
-0.203547
0.0263035
0.279038
0.534303
0.769556
0.96184
1.09031
1.13943
1.10211
3.84462
3.53108
3.19672
2.8737
2.58966
2.36065
2.18757
2.05691
1.94471
1.82267
1.66459
1.45195
1.17799
0.849921
0.488862
0.126473
-0.201423
-0.462964
-0.636682
-0.714925
-0.704224
-0.623591
-0.501274
-0.370448
-0.264119
-0.210078
-0.226727
-0.320024
-0.481976
-0.691137
-0.915981
-1.1211
-1.27494
-1.3559
-1.35557
-1.27907
-1.14342
-0.974458
-0.802773
-0.658848
-0.568296
-0.547911
-0.602784
-0.724895
-0.893591
-1.07879
-1.24684
-1.36778
-1.42115
-1.39896
-1.30601
-1.15835
-0.980398
-0.800999
-0.648936
-0.548374
-0.515141
-0.553984
-0.657237
-0.805255
-0.969448
-1.11782
-1.22188
-1.26212
-1.23088
-1.13267
-0.982682
-0.804073
-0.624257
-0.470565
-0.365912
-0.325182
-0.352538
-0.440026
-0.567859
-0.70716
-0.825126
-0.891523
-0.883828
-0.789987
-0.608852
-0.349274
-0.0284614
0.329779
0.696691
1.03989
1.32497
1.51888
1.59554
1.54212
4.5949
4.15058
3.67546
3.22667
2.85365
2.584
2.41732
2.32782
2.27186
2.19917
2.06402
1.83352
1.49405
1.05504
0.550403
0.0338101
-0.43244
-0.794216
-1.01666
-1.08884
-1.02244
-0.848497
-0.612152
-0.366411
-0.163965
-0.0490922
-0.0516421
-0.182178
-0.429083
-0.757624
-1.11459
-1.43891
-1.67755
-1.79595
-1.78234
-1.64655
-1.41684
-1.13491
-0.849978
-0.611051
-0.459224
-0.422006
-0.50873
-0.707846
-0.986072
-1.2928
-1.57013
-1.76788
-1.85335
-1.81546
-1.6635
-1.42414
-1.13678
-0.847906
-0.603787
-0.443238
-0.392227
-0.459528
-0.634144
-0.884472
-1.16246
-1.41312
-1.58871
-1.65812
-1.61071
-1.4552
-1.21691
-0.933254
-0.648486
-0.406718
-0.244992
-0.1881
-0.244328
-0.402822
-0.632576
-0.88616
-1.10859
-1.25068
-1.27778
-1.17317
-0.936896
-0.583177
-0.137122
0.36803
0.893222
1.39394
1.81938
2.1163
2.23898
2.16246
5.45656
4.81471
4.11654
3.47083
2.96903
2.6592
2.53601
2.55046
2.62309
2.66559
2.60071
2.37196
1.9534
1.35464
0.629127
-0.131367
-0.813915
-1.32611
-1.61304
-1.66231
-1.49553
-1.16326
-0.736561
-0.300031
0.0622925
0.280982
0.307743
0.123238
-0.258633
-0.783185
-1.36019
-1.88011
-2.25333
-2.42607
-2.38503
-2.14929
-1.76547
-1.29967
-0.830939
-0.437829
-0.185117
-0.117624
-0.25283
-0.57688
-1.03752
-1.54912
-2.00805
-2.32964
-2.4632
-2.39623
-2.14684
-1.75906
-1.29535
-0.830359
-0.438297
-0.180369
-0.0989415
-0.210539
-0.502025
-0.923862
-1.39482
-1.8165
-2.10844
-2.22235
-2.14618
-1.89696
-1.51646
-1.06403
-0.610797
-0.227608
0.0268904
0.111876
0.0111447
-0.263001
-0.66298
-1.11002
-1.50773
-1.77545
-1.86138
-1.74597
-1.43405
-0.950044
-0.330881
0.377426
1.125
1.85638
2.49885
2.96462
3.16926
3.06022
6.50907
5.56016
4.48226
3.50811
2.80853
2.46594
2.45661
2.68936
3.01773
3.28664
3.37332
3.18371
2.6722
1.83674
0.758187
-0.408807
-1.44071
-2.18239
-2.55168
-2.54689
-2.2069
-1.61402
-0.875122
-0.126793
0.495383
0.887433
0.971351
0.71286
0.117277
-0.733214
-1.688
-2.53257
-3.11778
-3.36404
-3.2681
-2.86527
-2.23215
-1.46866
-0.703004
-0.0624343
0.355705
0.478643
0.275004
-0.249229
-1.01557
-1.88129
-2.64372
-3.16218
-3.36179
-3.23971
-2.82944
-2.20333
-1.45576
-0.707793
-0.0796526
0.336662
0.472299
0.297492
-0.182202
-0.892518
-1.69814
-2.40671
-2.88455
-3.06027
-2.93084
-2.52776
-1.91958
-1.19598
-0.472241
0.136816
0.542873
0.679283
0.516335
0.0580198
-0.625613
-1.40491
-2.09408
-2.56197
-2.73492
-2.60171
-2.17904
-1.51153
-0.653004
0.330273
1.38011
2.44684
3.43276
4.18898
4.55124
4.40003
7.92364
6.49164
4.69779
3.1494
2.13483
1.79352
2.02889
2.69071
3.498
4.1701
4.54375
4.45895
3.85745
2.66886
1.01457
-0.880795
-2.48547
-3.5749
-4.02898
-3.91418
-3.28243
-2.27506
-1.02726
0.228105
1.25985
1.9376
2.12803
1.78789
0.860254
-0.533062
-2.17451
-3.55849
-4.47033
-4.79478
-4.59307
-3.91288
-2.88655
-1.64079
-0.394938
0.633259
1.32162
1.54518
1.26449
0.427061
-0.850517
-2.36221
-3.63072
-4.45386
-4.7236
-4.49818
-3.82283
-2.82251
-1.61675
-0.412674
0.584022
1.25787
1.49058
1.24456
0.469718
-0.723941
-2.14119
-3.32918
-4.09571
-4.33761
-4.10956
-3.45388
-2.48892
-1.32811
-0.168545
0.793561
1.44715
1.67777
1.44686
0.703498
-0.450486
-1.82959
-2.99906
-3.7732
-4.04931
-3.8743
-3.27657
-2.34809
-1.15477
0.187274
1.6109
3.15365
4.69746
5.98063
6.67261
6.48331
10.0959
7.9486
4.55757
2.01594
0.490992
0.291709
0.987775
2.48288
4.17308
5.48337
6.37435
6.47819
5.88806
4.17157
1.61806
-1.7714
-4.27221
-5.88234
-6.32546
-6.0259
-4.89886
-3.28232
-1.19029
0.90501
2.53409
3.68949
4.04871
3.70893
2.27381
0.0244002
-3.03179
-5.2643
-6.6687
-6.98321
-6.60707
-5.45891
-3.85692
-1.81306
0.226553
1.81832
2.95683
3.33785
3.05569
1.73716
-0.348334
-3.19332
-5.25906
-6.54244
-6.79844
-6.40455
-5.28419
-3.73751
-1.77533
0.181078
1.7126
2.8143
3.19825
2.95312
1.72474
-0.233388
-2.91439
-4.85854
-6.06234
-6.29168
-5.90407
-4.82538
-3.34026
-1.45846
0.419493
1.89458
2.96049
3.34087
3.1153
1.94028
0.0488232
-2.55617
-4.47328
-5.70162
-6.01331
-5.7556
-4.85039
-3.56603
-1.87068
-0.0732131
1.67017
3.85895
6.33747
8.62357
10.0631
9.92548
13.9648
11.2362
3.20971
-0.600623
-3.07238
-2.50205
-1.20441
1.99409
5.39527
7.40043
9.3384
9.49675
9.54056
6.87956
3.4253
-3.94168
-7.34153
-9.87027
-9.6914
-9.32918
-7.22018
-4.97429
-1.35802
2.25327
4.49042
6.58787
6.97596
7.20728
4.85992
1.74362
-5.07515
-8.1626
-10.4365
-10.1662
-9.73275
-7.65848
-5.46358
-1.97921
1.49294
3.65608
5.68281
6.08549
6.33925
4.15169
1.24751
-5.14653
-8.01399
-10.1105
-9.8091
-9.35706
-7.35944
-5.25086
-1.92557
1.38666
3.46011
5.40432
5.81177
6.07758
4.03058
1.29811
-4.74867
-7.45398
-9.4322
-9.13416
-8.69372
-6.78216
-4.76281
-1.58326
1.58766
3.5848
5.46099
5.87654
6.15095
4.20872
1.57563
-4.27329
-6.93935
-8.95002
-8.79723
-8.56931
-6.97018
-5.37577
-2.73364
-0.255813
1.08805
4.14702
8.25457
12.4857
15.7245
16.1956
21.4546
22.391
-3.99393
-5.10819
-11.0188
-6.34468
-6.13429
1.21321
8.62765
9.41424
14.8651
12.6802
17.088
10.7298
10.8668
-11.8247
-11.6653
-17.7572
-13.3214
-15.1478
-9.73863
-8.63959
-1.51859
5.58031
6.64789
11.9477
10.1289
14.4189
8.55331
8.79441
-12.4916
-12.2324
-17.868
-13.5841
-15.2212
-10.0318
-8.92709
-2.12775
4.64429
5.69025
10.7475
9.04756
13.1383
7.59817
7.86876
-12.178
-11.8791
-17.1314
-13.0368
-14.5352
-9.5945
-8.51625
-2.057
4.37609
5.39373
10.2073
8.62926
12.5325
7.3235
7.60221
-11.3946
-11.0965
-16.0799
-12.1817
-13.6018
-8.89414
-7.85605
-1.69563
4.44607
5.44919
10.0648
8.61543
12.3786
7.47201
7.73322
-10.5737
-10.3492
-15.3138
-11.6894
-13.3576
-9.08318
-8.69424
-3.36002
1.19451
-1.96384
2.92513
9.99379
17.7766
25.3714
29.6217
32.4768
72.9143
-47.562
-2.68492
-34.1986
-3.75766
-21.3413
0.33598
21.4042
4.71163
31.3871
6.3704
40.1384
5.22709
51.1814
-52.6128
-6.98709
-40.8038
-7.93382
-31.3857
-6.05049
-20.9765
-1.64733
17.5925
2.7109
27.5585
4.48532
36.2546
3.45306
46.8442
-50.9331
-7.81387
-39.5834
-8.47575
-30.54
-6.52293
-20.5909
-2.23695
16.0412
1.94826
25.5423
3.6711
33.8058
2.6772
43.7471
-48.5073
-7.75064
-37.6117
-8.21044
-28.9856
-6.26768
-19.5303
-2.15073
15.1637
1.86126
24.2141
3.55378
32.1089
2.71418
41.6631
-45.8255
-7.1334
-35.517
-7.57092
-27.3338
-5.72194
-18.3254
-1.78104
14.704
2.11154
23.4024
3.84822
31.0906
3.29367
40.6289
-43.5594
-6.28669
-34.0457
-6.96011
-26.7031
-5.60114
-19.1339
-2.86363
13.7514
-16.6039
-1.43551
10.7046
23.3383
39.8344
66.3741
28831.2
28794.5
28757.6
28720.7
28683.7
28646.8
28609.9
28573.1
28536.4
28499.8
28463.3
28426.9
28390.6
28354.3
28318.1
0.179065
0.140025
0.0897838
0.0340888
-0.0212122
-0.070966
-0.111226
-0.139459
-0.154508
-0.156398
-0.146077
-0.125152
-0.0956674
-0.0599325
-0.0204015
0.316043
0.245784
0.155695
0.0564007
-0.0414749
-0.128775
-0.19869
-0.247037
-0.2721
-0.274206
-0.255225
-0.218086
-0.166385
-0.104103
-0.0354151
0.481637
0.371371
0.230813
0.0772932
-0.0723132
-0.20397
-0.307721
-0.3779
-0.412647
-0.413102
-0.382533
-0.325582
-0.247684
-0.154678
-0.0525715
0.692122
0.527252
0.318893
0.0942721
-0.121101
-0.307071
-0.450325
-0.544194
-0.587488
-0.583022
-0.536223
-0.454024
-0.344091
-0.214353
-0.0727647
0.969622
0.726622
0.423235
0.102003
-0.199292
-0.452887
-0.642315
-0.761062
-0.810088
-0.795275
-0.725313
-0.6102
-0.460303
-0.285878
-0.0968993
1.34559
0.986378
0.545422
0.0897976
-0.325182
-0.662869
-0.904987
-1.04765
-1.09653
-1.06268
-0.959555
-0.801159
-0.601043
-0.371956
-0.125854
1.86637
1.32788
0.682279
0.0369466
-0.528364
-0.968419
-1.26711
-1.42802
-1.46569
-1.39935
-1.24907
-1.03384
-0.770755
-0.475049
-0.160416
2.60262
1.77651
0.818866
-0.0959259
-0.856802
-1.41533
-1.76703
-1.93164
-1.93887
-1.81995
-1.60355
-1.31436
-0.973092
-0.597068
-0.201176
3.66577
2.35666
0.912603
-0.382714
-1.38759
-2.06908
-2.45402
-2.59264
-2.53821
-2.33803
-2.03081
-1.64698
-1.21018
-0.738954
-0.248395
5.23702
3.07177
0.857598
-0.959947
-2.24175
-3.01937
-3.38733
-3.44669
-3.28328
-2.96315
-2.53467
-2.03257
-1.48169
-0.900175
-0.301843
7.61394
3.8358
0.405966
-2.07292
-3.60009
-4.37933
-4.62924
-4.5235
-4.1851
-3.69661
-3.11216
-2.46693
-1.78385
-1.07821
-0.360643
11.2473
4.25153
-0.996612
-4.13762
-5.70637
-6.2686
-6.2268
-5.83299
-5.23699
-4.52602
-3.75043
-2.93912
-2.10859
-1.26817
-0.423163
16.4784
2.91961
-4.50632
-7.77457
-8.81918
-8.7619
-8.17638
-7.34466
-6.40385
-5.42007
-4.42442
-3.43054
-2.44321
-1.46271
-0.487002
20.9302
-4.5452
-12.1737
-13.6352
-13.0339
-11.7835
-10.3721
-8.96541
-7.6137
-6.32598
-5.09664
-3.9154
-2.77102
-1.65246
-0.549139
0.562952
1.69674
2.85468
4.05461
5.31725
6.66799
8.13943
9.77515
11.6354
13.8047
16.3992
19.5546
23.2992
26.8115
24.3212
0.573382
1.72839
2.90868
4.13312
5.42393
6.80891
8.32497
10.0238
11.9825
14.3232
17.2555
21.1787
26.9746
37.0398
59.7096
0.578089
1.74247
2.93204
4.16556
5.4652
6.85881
8.38353
10.0921
12.0644
14.4304
17.4214
21.4935
27.6657
38.5661
62.1501
0.577101
1.73908
2.92487
4.15208
5.44123
6.81764
8.31442
9.97724
11.8728
14.1038
16.8359
20.3411
25.0237
31.1077
35.8743
0.570716
1.71915
2.88895
4.0956
5.35666
6.69289
8.12996
9.70071
11.4482
13.4293
15.7148
18.3728
21.3882
24.3842
26.0513
0.559473
1.68439
2.82744
4.00136
5.2199
6.49812
7.85266
9.30133
10.8613
12.5435
14.3359
16.1622
17.7807
18.5574
16.9158
0.544082
1.63706
2.74451
3.87616
5.0417
6.25037
7.50998
8.82457
10.1894
11.5806
12.9328
14.0967
14.7655
14.4125
12.6189
0.525353
1.57969
2.6448
3.72746
4.83357
5.96726
7.12912
8.31286
9.49922
10.6445
11.66
12.3741
12.4616
11.2682
7.08634
0.504108
1.51484
2.53292
3.56249
4.60633
5.66463
6.73307
7.79934
8.83748
9.79853
10.5961
11.0861
11.0472
10.1991
8.49178
0.48112
1.4449
2.41307
3.38765
4.36906
5.355
6.33855
7.30535
8.22926
9.06605
9.74558
10.1651
10.1947
9.72648
8.83549
0.457062
1.37194
2.2888
3.20808
4.12869
5.04706
5.95569
6.84119
7.68155
8.44277
9.07562
9.51486
9.68774
9.54741
9.16172
0.432489
1.29759
2.16286
3.02761
3.88992
4.74592
5.58893
6.40841
7.18881
7.90866
8.54011
9.04953
9.39829
9.53868
9.38743
0.40783
1.22315
2.03728
2.84885
3.65555
4.45385
5.23857
6.0028
6.73818
7.43598
8.08936
8.69579
9.25356
9.73248
9.98893
0.383407
1.14954
1.91351
2.67347
3.42705
4.17123
4.90247
5.61728
6.31368
6.99418
7.67127
8.37587
9.16362
10.0808
10.8591
0.35946
1.07744
1.79252
2.50255
3.20511
3.89763
4.5778
5.24458
5.90027
6.5548
7.23414
7.99825
8.98383
10.5257
13.5687
0.336167
1.00735
1.67505
2.33682
2.99014
3.63262
4.26247
4.8796
5.4877
6.09822
6.73819
7.46689
8.41778
9.9283
13.0401
0.313672
0.939688
1.56169
2.17695
2.78272
3.37639
3.95599
4.52092
5.07348
5.62123
6.18064
6.78129
7.46315
8.21896
8.58691
0.2921
0.874811
1.45303
2.02369
2.58369
3.12995
3.6597
4.17086
4.66263
5.13616
5.5945
6.03933
6.45719
6.77903
6.82847
0.271562
0.813053
1.34961
1.87784
2.3942
2.89498
3.37634
3.83426
4.26445
4.66166
5.01775
5.31612
5.51795
5.5283
5.10126
0.252157
0.75472
1.25198
1.74024
2.21553
2.67351
3.10926
3.51694
3.88917
4.21574
4.48109
4.65998
4.7117
4.58133
4.26098
0.233968
0.700069
1.1606
1.61163
2.04888
2.46748
2.86166
3.22423
3.54562
3.81234
4.00448
4.09214
4.03192
3.76629
3.21465
0.217053
0.649284
1.07582
1.49261
1.89518
2.2784
2.63603
2.96013
3.24003
3.46073
3.60042
3.62702
3.49479
3.14988
2.61157
0.20144
0.602455
0.997801
1.38344
1.75493
2.10709
2.43367
2.72671
2.97555
3.16538
3.27489
3.27219
3.10535
2.66777
1.62337
0.187123
0.559563
0.926522
1.28412
1.62808
1.95354
2.25462
2.52399
2.75205
2.92582
3.02728
3.03135
2.90393
2.60707
2.16457
0.174058
0.520476
0.861744
1.19425
1.5141
1.81691
2.09758
2.34995
2.56626
2.73646
2.84731
2.88181
2.82019
2.6475
2.37366
0.162174
0.484964
0.803049
1.11318
1.41195
1.69564
1.9602
2.20096
2.4125
2.5883
2.72037
2.79901
2.81357
2.75817
2.65816
0.151371
0.452719
0.749875
1.04001
1.32025
1.58768
1.83933
2.07225
2.28355
2.4705
2.63054
2.76071
2.85553
2.89983
2.84606
0.141536
0.423385
0.701575
0.973705
1.23746
1.49067
1.73148
1.95856
2.17151
2.37141
2.56143
2.74696
2.93257
3.10959
3.23043
0.132551
0.396593
0.657483
0.913219
1.16198
1.40227
1.63315
1.85468
2.06854
2.27916
2.49546
2.73315
3.01557
3.35836
3.64871
0.124301
0.371989
0.61697
0.857577
1.09238
1.32039
1.54132
1.75612
1.96781
2.18297
2.41463
2.68828
3.05665
3.64353
4.79954
0.116687
0.349264
0.579495
0.805963
1.02751
1.24343
1.45375
1.65973
1.86466
2.07531
2.30464
2.57763
2.94597
3.53349
4.707
0.109625
0.328169
0.544632
0.757765
0.966549
1.17036
1.3692
1.56407
1.75755
1.95468
2.16433
2.40076
2.6831
3.0165
3.25473
0.103054
0.308518
0.512082
0.712586
0.90904
1.10074
1.2874
1.46937
1.64789
1.82537
2.00543
2.19199
2.38477
2.5656
2.6798
0.0969289
0.290186
0.481658
0.670218
0.854834
1.03461
1.20885
1.37707
1.53897
1.69425
1.84201
1.97892
2.09474
2.16096
2.09758
0.0912213
0.273093
0.453257
0.63059
0.803986
0.972337
1.13449
1.28915
1.43463
1.56837
1.68613
1.78049
1.83917
1.84632
1.80615
0.0859104
0.257186
0.426821
0.593697
0.75664
0.914362
1.06534
1.20762
1.33843
1.45359
1.54649
1.60683
1.61938
1.56453
1.41688
0.0809777
0.242419
0.402302
0.559535
0.712921
0.861068
1.00223
1.13405
1.25312
1.35426
1.42947
1.46635
1.4464
1.3472
1.17902
0.0764023
0.228733
0.379624
0.528045
0.672841
0.812624
0.94561
1.06934
1.18024
1.27294
1.33908
1.36533
1.32846
1.17777
0.747949
0.0721559
0.216048
0.35866
0.499073
0.636241
0.768901
0.895416
1.01354
1.12002
1.21005
1.27638
1.30814
1.28957
1.20217
1.05721
0.0682012
0.20425
0.339225
0.472355
0.602773
0.729445
0.851052
0.965815
1.07122
1.16363
1.2377
1.28589
1.29849
1.26655
1.18889
0.0644919
0.1932
0.321071
0.44752
0.571907
0.693506
0.81144
0.924591
1.03146
1.12994
1.217
1.28834
1.33836
1.36267
1.3726
0.0609743
0.18273
0.303905
0.424116
0.542979
0.660114
0.775151
0.887731
0.997518
1.10417
1.20723
1.30561
1.39607
1.46877
1.49325
0.0575911
0.172662
0.28741
0.401649
0.51525
0.62818
0.740567
0.852813
0.965754
1.08091
1.2007
1.32837
1.46613
1.60836
1.72851
0.0542849
0.16282
0.271268
0.379625
0.487988
0.596622
0.706084
0.817412
0.932457
1.05442
1.18871
1.34411
1.5331
1.76328
1.97054
0.0510027
0.153039
0.255189
0.357598
0.460537
0.564491
0.670305
0.779432
0.894357
1.01937
1.16206
1.33654
1.57147
1.9341
2.61601
0.047699
0.14318
0.238931
0.335204
0.432383
0.531069
0.632227
0.737427
0.849253
0.972045
1.11333
1.28698
1.52117
1.88322
2.57251
0.0443377
0.133134
0.222309
0.312182
0.403183
0.49593
0.591342
0.690821
0.796536
0.911877
1.04214
1.19537
1.38209
1.60507
1.78479
0.0408929
0.122824
0.205203
0.288377
0.372772
0.458941
0.547634
0.639885
0.737137
0.841348
0.954998
1.08052
1.21782
1.35697
1.46879
0.0373476
0.112203
0.187545
0.263725
0.341129
0.420201
0.501455
0.585479
0.672904
0.764267
0.859616
0.957479
1.05227
1.12785
1.13847
0.0336911
0.101244
0.169307
0.238222
0.308328
0.379946
0.453353
0.528713
0.605939
0.684418
0.762489
0.836575
0.900071
0.943838
0.96952
0.0299166
0.0899298
0.150477
0.211894
0.274477
0.338449
0.403895
0.470652
0.538106
0.604852
0.668133
0.723026
0.761573
0.772389
0.737733
0.0260173
0.0782454
0.131044
0.184756
0.239663
0.29593
0.353529
0.412107
0.470765
0.527696
0.579603
0.62083
0.642333
0.632519
0.59618
0.0219837
0.0661651
0.110976
0.15679
0.203905
0.252485
0.302483
0.353508
0.404625
0.454028
0.498492
0.532333
0.544844
0.51107
0.347089
0.0178015
0.0536479
0.0902111
0.127922
0.16713
0.208058
0.250725
0.294846
0.339677
0.383793
0.424759
0.458649
0.479499
0.480045
0.466193
0.0134503
0.0406333
0.0686502
0.098013
0.129162
0.162423
0.197958
0.235691
0.275226
0.315747
0.35594
0.394024
0.428257
0.459018
0.494837
0.00890326
0.0270397
0.0461549
0.0668648
0.0897269
0.115211
0.143666
0.175286
0.210091
0.247931
0.288586
0.332074
0.379427
0.43448
0.507296
0.00412717
0.0127665
0.0225525
0.0342226
0.0484719
0.065936
0.0871754
0.112672
0.14285
0.17816
0.219267
0.267442
0.325251
0.397609
0.493418
-0.000916164
-0.00230286
-0.0023578
-0.000210216
0.00498522
0.0140401
0.0277299
0.046807
0.0720477
0.104365
0.14504
0.196122
0.260974
0.344453
0.449897
-0.00626889
-0.0182968
-0.0287973
-0.0367591
-0.041181
-0.0410737
-0.035456
-0.0233371
-0.00366831
0.0247683
0.0635885
0.115241
0.183765
0.276045
0.404541
-0.0119756
-0.0353513
-0.0569995
-0.0757658
-0.0904919
-0.100013
-0.103156
-0.0987232
-0.0854718
-0.062038
-0.0267726
0.0226442
0.0900611
0.18249
0.310368
-0.0180819
-0.0536052
-0.0872026
-0.117578
-0.143417
-0.163382
-0.176114
-0.180232
-0.174345
-0.157059
-0.126959
-0.0824503
-0.0210102
0.0643204
0.203618
-0.0246331
-0.0731962
-0.119643
-0.16254
-0.200419
-0.231774
-0.255054
-0.268689
-0.271133
-0.260978
-0.237151
-0.1993
-0.14867
-0.0913237
-0.0560411
-0.0316725
-0.0942567
-0.154549
-0.210985
-0.261952
-0.305771
-0.340691
-0.364915
-0.37667
-0.374389
-0.357079
-0.325024
-0.28099
-0.231643
-0.18357
-0.03924
-0.116909
-0.192131
-0.263228
-0.328449
-0.385948
-0.433756
-0.469799
-0.491952
-0.498236
-0.487247
-0.459063
-0.416999
-0.371075
-0.347208
-0.0473706
-0.14126
-0.232578
-0.31955
-0.40031
-0.472852
-0.534991
-0.584327
-0.618255
-0.634076
-0.629353
-0.602739
-0.555687
-0.495189
-0.433495
-0.0560925
-0.167397
-0.276043
-0.380187
-0.477875
-0.56698
-0.645116
-0.709556
-0.75713
-0.784182
-0.786661
-0.760607
-0.703711
-0.620132
-0.536005
-0.0654254
-0.195381
-0.322633
-0.445306
-0.561402
-0.668723
-0.764752
-0.846495
-0.910255
-0.951351
-0.963782
-0.939891
-0.870262
-0.745455
-0.572665
-0.0753796
-0.225243
-0.372403
-0.514991
-0.651022
-0.778307
-0.894309
-0.995921
-1.07912
-1.13843
-1.16613
-1.15094
-1.07513
-0.904097
-0.532824
-0.0859554
-0.256983
-0.425348
-0.589229
-0.746716
-0.895726
-1.03386
-1.15813
-1.26457
-1.34745
-1.39825
-1.40407
-1.34613
-1.20179
-0.975187
-0.0971447
-0.290571
-0.481406
-0.667907
-0.848296
-1.0207
-1.18303
-1.33274
-1.46637
-1.57876
-1.66161
-1.70149
-1.67713
-1.55662
-1.28429
-0.108933
-0.325959
-0.540473
-0.750829
-0.955421
-1.15267
-1.34096
-1.5185
-1.68294
-1.83056
-1.95482
-2.0435
-2.07491
-2.01686
-1.85769
-0.121306
-0.363092
-0.602426
-0.837754
-1.06765
-1.29085
-1.50636
-1.71337
-1.91117
-2.09861
-2.27272
-2.4253
-2.53481
-2.54733
-2.32353
-0.134251
-0.401928
-0.667162
-0.928454
-1.18451
-1.43439
-1.67766
-1.91463
-2.14659
-2.3759
-2.60557
-2.837
-3.06206
-3.24191
-3.28393
-0.14777
-0.442458
-0.734637
-1.02279
-1.30567
-1.58251
-1.85333
-2.11938
-2.38386
-2.65294
-2.9372
-3.25313
-3.62071
-4.03221
-4.23723
-0.161879
-0.484732
-0.804909
-1.12078
-1.43102
-1.73481
-2.03231
-2.32522
-2.61794
-2.91943
-3.24685
-3.63339
-4.14887
-4.96589
-6.62067
-0.176618
-0.528864
-0.878169
-1.22269
-1.56084
-1.89149
-2.21447
-2.53118
-2.84591
-3.16792
-3.51543
-3.9241
-4.46761
-5.3178
-6.94811
-0.192045
-0.575039
-0.95475
-1.32903
-1.69585
-2.05351
-2.40097
-2.73853
-3.06884
-3.39869
-3.74155
-4.12116
-4.57338
-5.12795
-5.65734
-0.208233
-0.623492
-1.0351
-1.44054
-1.83724
-2.22261
-2.59436
-2.95089
-3.2921
-3.62043
-3.94216
-4.26779
-4.60808
-4.95558
-5.23747
-0.225259
-0.674481
-1.11974
-1.55814
-1.98648
-2.40117
-2.79831
-3.1739
-3.52429
-3.84675
-4.14005
-4.40423
-4.63778
-4.82877
-4.93346
-0.243186
-0.728224
-1.20913
-1.68272
-2.1452
-2.59191
-3.01722
-3.41442
-3.77588
-4.09331
-4.35817
-4.56196
-4.69702
-4.76187
-4.78893
-0.26204
-0.784837
-1.3036
-1.81502
-2.31486
-2.79752
-3.25564
-3.67976
-4.05805
-4.37639
-4.61868
-4.76741
-4.80502
-4.72123
-4.5492
-0.281786
-0.844252
-1.40317
-1.95537
-2.49646
-3.02017
-3.51769
-3.97692
-4.38185
-4.71229
-4.94416
-5.05004
-4.99731
-4.74188
-4.2886
-0.3023
-0.906133
-1.50739
-2.10343
-2.69012
-3.26101
-3.80632
-4.31178
-4.75737
-5.11663
-5.35714
-5.44282
-5.33036
-4.89991
-3.44987
-0.323349
-0.969801
-1.61524
-2.25799
-2.89476
-3.51961
-4.12263
-4.68821
-5.19286
-5.60344
-5.87764
-5.97318
-5.88424
-5.766
-6.39565
-0.344566
-1.03418
-1.72495
-2.41671
-3.10768
-3.79336
-4.46495
-5.10694
-5.69368
-6.18496
-6.5222
-6.63167
-6.45845
-6.11272
-6.4291
-0.365453
-1.09774
-1.83397
-2.57598
-3.32427
-4.07689
-4.82783
-5.56405
-6.26077
-6.87345
-7.32493
-7.48647
-7.15246
-5.99964
-3.37912
-0.385379
-1.15858
-1.93897
-2.7309
-3.53784
-4.36161
-5.20092
-6.04858
-6.88624
-7.67388
-8.32902
-8.68541
-8.41509
-6.90581
-3.20254
-0.403612
-1.21441
-2.03596
-2.87538
-3.73972
-4.63554
-5.5682
-6.54006
-7.54644
-8.56633
-9.54057
-10.3195
-10.5381
-9.33557
-4.90222
-0.41936
-1.2628
-2.12053
-3.00258
-3.91973
-4.88388
-5.90826
-7.00757
-8.19727
-9.49048
-10.8877
-12.3429
-13.648
-14.0089
-10.3318
-0.431833
-1.30125
-2.18821
-3.10539
-4.06712
-5.09039
-6.19628
-7.41232
-8.7762
-10.3424
-12.1946
-14.4704
-17.4136
-21.4865
-27.5577
-11.2583
-25.7419
-24.3282
-20.7751
-17.4753
-14.7094
-12.3937
-10.4124
-8.67362
-7.1103
-5.67429
-4.33008
-3.05055
-1.81399
-0.601995
-111.023
-57.8748
-37.3425
-27.202
-21.1576
-17.0489
-13.9874
-11.5489
-9.5066
-7.72818
-6.13063
-4.6585
-3.27237
-1.94234
-0.644021
-123.442
-67.3579
-43.1403
-30.7845
-23.4957
-18.6612
-15.1484
-12.4102
-10.1564
-8.22046
-6.49986
-4.92719
-3.45524
-2.04865
-0.678913
-67.8034
-54.7118
-40.7006
-30.8484
-24.1293
-19.3556
-15.7715
-12.935
-10.5854
-8.5632
-6.76637
-5.12594
-3.59273
-2.12938
-0.705533
-47.8559
-42.7043
-35.3727
-28.7365
-23.4119
-19.2239
-15.8756
-13.1218
-10.787
-8.74947
-6.92427
-5.25024
-3.68169
-2.18268
-0.723274
-30.3806
-32.2108
-29.5619
-25.7136
-21.9053
-18.5091
-15.5667
-13.0176
-10.7821
-8.78831
-6.97718
-5.30129
-3.72235
-2.20848
-0.732084
-22.4056
-24.8279
-24.584
-22.663
-20.1126
-17.479
-14.9849
-12.6955
-10.6093
-8.70033
-6.93617
-5.28502
-3.71781
-2.20827
-0.732401
-12.4435
-19.2965
-20.7707
-20.0495
-18.3777
-16.352
-14.2608
-12.2323
-10.3135
-8.51178
-6.81666
-5.21047
-3.67322
-2.18467
-0.725031
-15.005
-17.5004
-18.482
-18.0961
-16.8886
-15.2706
-13.4932
-11.6931
-9.93644
-8.24919
-6.63539
-5.08805
-3.59481
-2.141
-0.711011
-15.6547
-16.7557
-17.143
-16.7133
-15.6844
-14.2999
-12.7413
-11.1235
-9.51118
-7.93557
-6.40798
-4.92806
-3.48903
-2.08077
-0.691461
-16.2633
-16.5065