/*--------------------------------*- C++ -*----------------------------------*\
| =========                 |                                                 |
| \\      /  F ield         | OpenFOAM: The Open Source CFD Toolbox           |
|  \\    /   O peration     | Version:  5.x                                   |
|   \\  /    A nd           | Web:      www.OpenFOAM.org                      |
|    \\/     M anipulation  |                                                 |
\*---------------------------------------------------------------------------*/
FoamFile
{
    version     2.0;
    format      ascii;
    class       volScalarField;
    location    "11.9";
    object      gradTx;
}
// * * * * * * * * * * * * * * * * * * * * * * * * * * * * * * * * * * * * * //

dimensions      [0 -1 0 1 0 0 0];

internalField   nonuniform List<scalar> 
2048
(
0.00630495
0.0187342
0.0306383
0.0417195
0.051749
0.0605773
0.0681341
0.0744172
0.0794763
0.0833941
0.0862706
0.0882101
0.0893144
0.0896805
0.0894008
0.0885644
0.0872581
0.0855656
0.0835646
0.0813235
0.0788982
0.0763294
0.0736419
0.0708458
0.067939
0.0649092
0.061737
0.0583968
0.0548577
0.0510838
0.0470348
0.042667
0.0379354
0.0327952
0.0272045
0.021126
0.0145272
0.00738196
-0.000329189
-0.00861796
-0.0174859
-0.0269206
-0.0368908
-0.0473391
-0.0581739
-0.0692603
-0.0804114
-0.09138
-0.101855
-0.111463
-0.119781
-0.126359
-0.130753
-0.132569
-0.131511
-0.127416
-0.120277
-0.110247
-0.0976153
-0.0827649
-0.0661295
-0.0481502
-0.0292469
-0.0098074
0.0187884
0.0558175
0.0912555
0.124204
0.153977
0.180134
0.202476
0.22101
0.235897
0.247397
0.255814
0.261463
0.264648
0.265654
0.264753
0.262208
0.258278
0.25321
0.247238
0.240566
0.233363
0.225748
0.217795
0.209531
0.200947
0.192007
0.18265
0.172801
0.162368
0.151245
0.139311
0.126436
0.112485
0.0973237
0.0808275
0.0628842
0.0433981
0.0222912
-0.000495381
-0.0249979
-0.051224
-0.0791417
-0.108664
-0.139627
-0.171769
-0.204699
-0.237869
-0.270552
-0.301827
-0.330581
-0.355545
-0.375357
-0.388671
-0.394288
-0.391295
-0.379192
-0.357961
-0.328073
-0.290412
-0.246151
-0.196608
-0.143109
-0.0869051
-0.0291383
0.03114
0.0924824
0.151105
0.205483
0.25447
0.297349
0.333823
0.363949
0.388039
0.406558
0.420036
0.429004
0.433961
0.435373
0.433679
0.429307
0.422678
0.414206
0.404281
0.393247
0.381383
0.368888
0.355878
0.342392
0.328409
0.313861
0.298647
0.282644
0.265699
0.247639
0.228263
0.207356
0.184689
0.16004
0.1332
0.103983
0.0722325
0.0378188
0.000643663
-0.0393578
-0.0822071
-0.127865
-0.176207
-0.226988
-0.279801
-0.334031
-0.388807
-0.442953
-0.49496
-0.542983
-0.584893
-0.61838
-0.641133
-0.651072
-0.646608
-0.62686
-0.591799
-0.542252
-0.479768
-0.406388
-0.324372
-0.235961
-0.143224
-0.0480092
0.0435996
0.129425
0.211272
0.286936
0.354792
0.413867
0.463817
0.504812
0.537379
0.562246
0.580196
0.591991
0.598321
0.599818
0.597071
0.590658
0.581163
0.569167
0.555223
0.539825
0.523367
0.506125
0.488251
0.469787
0.450686
0.430845
0.410119
0.388333
0.365283
0.340726
0.314386
0.285953
0.255107
0.221529
0.184925
0.145038
0.101648
0.0545774
0.00368784
-0.0511199
-0.109892
-0.172602
-0.23911
-0.309122
-0.382127
-0.457331
-0.533581
-0.609294
-0.682401
-0.750325
-0.810038
-0.858199
-0.891415
-0.90659
-0.901326
-0.874288
-0.82543
-0.756011
-0.668379
-0.565591
-0.450973
-0.327744
-0.198793
-0.0666108
0.0563829
0.167267
0.272718
0.369766
0.456279
0.53106
0.593789
0.644844
0.68506
0.715498
0.737246
0.751305
0.758551
0.759755
0.755634
0.746902
0.734299
0.718582
0.700484
0.680662
0.659636
0.637759
0.615209
0.592013
0.568085
0.543273
0.517385
0.4902
0.461464
0.430871
0.398064
0.36264
0.324173
0.282243
0.236466
0.186512
0.132104
0.073019
0.00907711
-0.0598597
-0.133877
-0.212979
-0.297045
-0.385771
-0.478588
-0.574576
-0.672362
-0.770009
-0.864921
-0.953793
-1.03264
-1.09698
-1.14216
-1.16386
-1.15868
-1.1247
-1.06185
-0.971941
-0.858327
-0.725314
-0.577482
-0.419134
-0.253975
-0.0850562
0.0696947
0.206597
0.336338
0.455067
0.560114
0.6501
0.72483
0.785019
0.831938
0.867074
0.891874
0.907592
0.915268
0.915777
0.909929
0.898552
0.882539
0.862839
0.84039
0.816036
0.790438
0.764026
0.736989
0.709316
0.68086
0.651406
0.62071
0.58851
0.554511
0.518354
0.479597
0.437734
0.39222
0.342526
0.28817
0.228748
0.163933
0.0934633
0.0171197
-0.065279
-0.153871
-0.248718
-0.349752
-0.456701
-0.568995
-0.685653
-0.805154
-0.925277
-1.04295
-1.15416
-1.2539
-1.33641
-1.39552
-1.42542
-1.42143
-1.38085
-1.30358
-1.19214
-1.05119
-0.886622
-0.70454
-0.510465
-0.308917
-0.103385
0.0837393
0.247995
0.402998
0.543875
0.667373
0.772001
0.857831
0.926083
0.978624
1.01749
1.04454
1.0613
1.06892
1.06834
1.0604
1.04602
1.02625
1.00224
0.975185
0.946146
0.91595
0.885101
0.853778
0.821902
0.789232
0.755468
0.72031
0.683472
0.644632
0.603385
0.559208
0.511473
0.459504
0.402637
0.340291
0.271989
0.197362
0.11612
0.0280133
-0.0671857
-0.169682
-0.279622
-0.397026
-0.521703
-0.653139
-0.79037
-0.931809
-1.07505
-1.21662
-1.35182
-1.4746
-1.57772
-1.65326
-1.69348
-1.69203
-1.64521
-1.55281
-1.41831
-1.24811
-1.05014
-0.832384
-0.601755
-0.363564
-0.121568
0.0987282
0.292056
0.473576
0.637203
0.779068
0.897663
0.993516
1.06858
1.12551
1.16704
1.19551
1.2127
1.21982
1.21779
1.20741
1.18965
1.16572
1.13702
1.10504
1.07113
1.03629
1.00111
0.965728
0.929949
0.893393
0.855651
0.816368
0.775248
0.731975
0.686115
0.637057
0.584036
0.526212
0.462771
0.393013
0.316397
0.232529
0.141105
0.0418607
-0.0654796
-0.181202
-0.305564
-0.438714
-0.580592
-0.730801
-0.888471
-1.05206
-1.21907
-1.38578
-1.54685
-1.69516
-1.82183
-1.9168
-1.96996
-1.97275
-1.92005
-1.8115
-1.65186
-1.44985
-1.21607
-0.960864
-0.69271
-0.417661
-0.139506
0.114887
0.339411
0.548982
0.736074
0.896169
1.02789
1.13246
1.21286
1.27278
1.31582
1.34488
1.36192
1.36817
1.36438
1.35125
1.32973
1.30119
1.26736
1.23008
1.19105
1.15152
1.11213
1.07296
1.03361
0.993524
0.952135
0.909038
0.863963
0.816643
0.766641
0.713254
0.655551
0.592488
0.523068
0.446462
0.362072
0.269498
0.168458
0.0586831
-0.0601409
-0.188397
-0.326484
-0.47472
-0.63322
-0.801767
-0.979666
-1.16552
-1.35693
-1.55003
-1.739
-1.91564
-2.06928
-2.18732
-2.25662
-2.26574
-2.20756
-2.08148
-1.89393
-1.6568
-1.38423
-1.08945
-0.782737
-0.470766
-0.157037
0.132462
0.390743
0.630181
0.841539
1.01963
1.16339
1.27511
1.35911
1.42044
1.46375
1.49256
1.50899
1.5141
1.50835
1.49219
1.46652
1.43288
1.39339
1.35036
1.30593
1.26164
1.21822
1.17557
1.13304
1.0898
1.04509
0.998455
0.949705
0.898692
0.845013
0.787865
0.726104
0.658436
0.583635
0.500723
0.409058
0.308276
0.198145
0.0784296
-0.0512212
-0.1913
-0.342384
-0.505
-0.679483
-0.865847
-1.06365
-1.27179
-1.48808
-1.70876
-1.92772
-2.13578
-2.32031
-2.46571
-2.55507
-2.57312
-2.50997
-2.36451
-2.14547
-1.86905
-1.55402
-1.21724
-0.870953
-0.522258
-0.173941
0.151726
0.446797
0.718214
0.954696
1.15038
1.30482
1.42177
1.50735
1.5683
1.61058
1.63836
1.65382
1.65766
1.64987
1.63049
1.60027
1.56098
1.51521
1.4659
1.41573
1.36663
1.31938
1.27364
1.22839
1.18241
1.13469
1.08474
1.03253
0.978139
0.921241
0.860919
0.795757
0.724139
0.644552
0.555847
0.457362
0.348815
0.23008
0.100987
-0.0388348
-0.190007
-0.353324
-0.529567
-0.719329
-0.922893
-1.14015
-1.37038
-1.61187
-1.86119
-2.11223
-2.35499
-2.57484
-2.75266
-2.86685
-2.8971
-2.8296
-2.66236
-2.40724
-2.08628
-1.72442
-1.34295
-0.956203
-0.571358
-0.189945
0.17298
0.508399
0.814211
1.0767
1.28935
1.45275
1.57264
1.65742
1.71601
1.7559
1.78195
1.79624
1.79887
1.78912
1.76641
1.73124
1.68566
1.63291
1.57667
1.52037
1.46641
1.4156
1.36726
1.31982
1.27155
1.22113
1.16802
1.11248
1.05496
0.995293
0.932415
0.864547
0.789663
0.705888
0.611867
0.506956
0.391026
0.264121
0.126186
-0.0231512
-0.184664
-0.359413
-0.548488
-0.752764
-0.972814
-1.2089
-1.46086
-1.7276
-2.00638
-2.29145
-2.57237
-2.83244
-3.04857
-3.19339
-3.23996
-3.16897
-2.97691
-2.67983
-2.30785
-1.89401
-1.46494
-1.03708
-0.617151
-0.204733
0.196565
0.576463
0.919407
1.20879
1.43748
1.60766
1.72775
1.80904
1.86304
1.89913
1.9229
1.93604
1.93774
1.92628
1.90023
1.8597
1.80711
1.74653
1.68262
1.61972
1.56084
1.50684
1.45651
1.40751
1.35747
1.30462
1.24841
1.18955
1.12908
1.0671
1.00233
0.932498
0.855072
0.767711
0.668806
0.557788
0.434784
0.300085
0.153809
-0.00438822
-0.17546
-0.360806
-0.561881
-0.779859
-1.01559
-1.26975
-1.5428
-1.83455
-2.14327
-2.46413
-2.78669
-3.09237
-3.35359
-3.53603
-3.60419
-3.53095
-3.31018
-2.96365
-2.53268
-2.06088
-1.58123
-1.11197
-0.658616
-0.217962
0.22286
0.652001
1.03515
1.35226
1.59569
1.76995
1.88706
1.96175
2.00871
2.03959
2.06068
2.07296
2.07426
2.06157
2.0323
1.98596
1.9255
1.85613
1.78364
1.71358
1.64977
1.59306
1.54147
1.49166
1.44042
1.38541
1.32602
1.2637
1.20038
1.13656
1.07061
0.999626
0.92043
0.830095
0.726681
0.609787
0.479936
0.33775
0.183595
0.0171953
-0.162622
-0.35769
-0.569907
-0.800747
-1.05129
-1.32259
-1.61588
-1.93203
-2.27073
-2.62877
-2.99641
-3.3535
-3.66755
-3.89599
-3.99248
-3.91881
-3.66444
-3.25893
-2.75922
-2.22269
-1.68949
-1.17909
-0.694675
-0.229274
0.252292
0.736128
1.16291
1.5085
1.76486
1.93993
2.05037
2.11495
2.15216
2.17643
2.19473
2.20674
2.20842
2.19524
2.16301
2.11035
2.04103
1.96174
1.87962
1.80172
1.73297
1.67419
1.62227
1.57249
1.52071
1.4638
1.40101
1.33486
1.2687
1.20353
1.13721
1.06594
0.98581
0.893133
0.785511
0.662863
0.526304
0.376862
0.215244
0.0413049
-0.146402
-0.350276
-0.572765
-0.815628
-1.08005
-1.36744
-1.67984
-2.0194
-2.38763
-2.78372
-3.1997
-3.61433
-3.98991
-4.27435
-4.40778
-4.33644
-4.04229
-3.56567
-2.98537
-2.37655
-1.78713
-1.23655
-0.72424
-0.238318
0.285343
0.830068
1.30428
1.67902
1.94585
2.11776
2.21738
2.26792
2.2924
2.30871
2.32439
2.3371
2.34022
2.32756
2.29283
2.23324
2.15386
2.0634
1.97041
1.88383
1.81017
1.75014
1.69902
1.65026
1.59871
1.54016
1.4735
1.40291
1.3338
1.26784
1.20207
1.13145
1.0513
0.956949
0.845321
0.716908
0.57369
0.417143
0.248423
0.0676159
-0.127068
-0.338783
-0.570681
-0.824758
-1.10213
-1.4044
-1.73458
-2.09618
-2.49282
-2.9272
-3.3944
-3.873
-4.31974
-4.67186
-4.85334
-4.7885
-4.44677
-3.88351
-3.20837
-2.51909
-1.87131
-1.28246
-0.746271
-0.24477
0.322562
0.935147
1.46098
1.86541
2.13945
2.30345
2.38771
2.41984
2.42826
2.43533
2.44903
2.46384
2.46968
2.45886
2.42234
2.35503
2.26415
2.16116
2.05584
1.95957
1.88104
1.82086
1.77189
1.72524
1.6748
1.61493
1.54368
1.46767
1.39536
1.32929
1.26513
1.19616
1.11699
1.02171
0.906145
0.771792
0.621887
0.458294
0.282764
0.095777
-0.104896
-0.323428
-0.563891
-0.828452
-1.11786
-1.43372
-1.78013
-2.16203
-2.58524
-3.0573
-3.57813
-4.12724
-4.65559
-5.08889
-5.33268
-5.28066
-4.88146
-4.21165
-3.42467
-2.64643
-1.93906
-1.31496
-0.759838
-0.248354
0.364588
1.05279
1.63483
2.06944
2.34634
2.49678
2.56089
2.56981
2.55846
2.5551
2.56799
2.58681
2.59677
2.58951
2.55229
2.47616
2.37201
2.2551
2.13575
2.02847
1.94519
1.88625
1.84113
1.79769
1.74944
1.68869
1.61172
1.52887
1.453
1.38768
1.32639
1.26005
1.183
1.08765
0.968025
0.82735
0.670682
0.500005
0.317869
0.125413
-0.0801617
-0.304407
-0.552633
-0.827072
-1.12767
-1.45572
-1.81668
-2.21682
-2.66397
-3.17206
-3.74824
-4.37447
-4.99556
-5.52515
-5.84956
-5.81996
-5.35064
-4.54861
-3.62979
-2.75418
-1.98739
-1.3324
-0.764182
-0.248858
0.412185
1.18447
1.82773
2.29307
2.56705
2.69727
2.73648
2.71688
2.68151
2.6667
2.68068
2.706
2.72142
2.71986
2.68358
2.59705
2.47746
2.34538
2.20999
2.09003
2.00214
1.94629
1.90703
1.86783
1.82307
1.76215
1.67786
1.58612
1.50622
1.44278
1.38589
1.32308
1.24943
1.1551
1.03101
0.883371
0.719875
0.541964
0.353305
0.156124
-0.0531328
-0.281882
-0.537127
-0.821021
-1.13208
-1.4708
-1.84454
-2.26072
-2.72823
-3.2695
-3.90185
-4.61181
-5.33721
-5.97943
-6.40784
-6.41518
-5.85948
-4.89194
-3.81812
-2.83755
-2.01338
-1.3334
-0.758769
-0.246156
0.466312
1.33174
2.04162
2.53856
2.80188
2.90403
2.91411
2.86012
2.79579
2.76866
2.78657
2.82161
2.84342
2.85025
2.81744
2.71813
2.58037
2.43225
2.27842
2.14359
2.05129
2.00096
1.97004
1.93583
1.89616
1.83627
1.74235
1.63892
1.55439
1.49438
1.44375
1.38515
1.31637
1.22451
1.09513
0.939565
0.769301
0.583864
0.388599
0.187489
-0.0240624
-0.25596
-0.517562
-0.810743
-1.13173
-1.47943
-1.86417
-2.29421
-2.77749
-3.34761
-4.03591
-4.83622
-5.67767
-6.4492
-7.01134
-7.07746
-6.41416
-5.23783
-3.9828
-2.8914
-2.01439
-1.31692
-0.743339
-0.240215
0.528233
1.49609
2.27835
2.80864
3.05081
3.11568
3.09367
2.99867
2.89943
2.85935
2.88523
2.93417
2.96235
2.98093
2.95551
2.83972
2.68035
2.5162
2.34099
2.18838
2.09195
2.0503
2.03079
2.00167
1.96911
1.91229
1.80545
1.68655
1.59673
1.54231
1.50029
1.44603
1.38388
1.29657
1.1604
0.995524
0.818859
0.625417
0.423233
0.21906
0.00681345
-0.226679
-0.494076
-0.79671
-1.12736
-1.48208
-1.87608
-2.31818
-2.81147
-3.40443
-4.14718
-5.04459
-6.01381
-6.93008
-7.66345
-7.82108
-7.02215
-5.5805
-4.11554
-2.91049
-1.98822
-1.28244
-0.71793
-0.231102
0.599699
1.67891
2.53957
3.10674
3.31337
3.33008
3.27546
3.13174
2.99037
2.93695
2.97639
3.04468
3.0774
3.11197
3.10004
2.96203
2.77662
2.598
2.39769
2.22344
2.12325
2.09441
2.09021
2.06512
2.04223
1.99192
1.86746
1.72808
1.63234
1.58643
1.55605
1.50534
1.45191
1.37222
1.22679
1.05067
0.868569
0.66636
0.456626
0.250366
0.0392772
-0.19399
-0.466745
-0.779417
-1.11985
-1.47919
-1.88083
-2.33403
-2.83017
-3.43805
-4.23219
-5.23392
-6.34257
-7.41523
-8.36664
-8.66445
-7.69242
-5.91141
-4.20654
-2.88963
-1.93325
-1.22993
-0.68289
-0.218982
0.683236
1.88136
2.82647
3.43739
3.58847
3.54413
3.46057
3.2587
3.06621
2.99942
3.05991
3.15485
3.1872
3.24317
3.25418
3.08498
2.86781
2.67897
2.44863
2.2476
2.14416
2.13348
2.14967
2.1255
2.11561
2.07743
1.92865
1.76228
1.66009
1.62665
1.61193
1.5624
1.52028
1.45288
1.29417
1.10415
0.918647
0.706462
0.488119
0.280914
0.0731257
-0.157736
-0.435562
-0.759371
-1.11027
-1.47107
-1.87885
-2.34375
-2.83393
-3.44665
-4.28724
-5.40145
-6.6615
-7.89449
-9.12172
-9.63149
-8.43567
-6.21821
-4.2445
-2.82411
-1.84869
-1.15996
-0.63887
-0.204111
0.782584
2.10422
3.13947
3.80675
3.87412
3.75335
3.65127
3.37902
3.12419
3.04444
3.1358
3.26745
3.28945
3.37383
3.42243
3.2081
2.95175
2.7612
2.49394
2.25943
2.15343
2.16773
2.2112
2.1816
2.18906
2.172
1.98921
1.78757
1.67867
1.66294
1.66939
1.6161
1.58858
1.54057
1.36221
1.15478
0.96962
0.745522
0.516944
0.310191
0.108162
-0.117638
-0.400425
-0.737067
-1.09997
-1.45788
-1.87036
-2.35013
-2.82336
-3.42853
-4.30824
-5.5448
-6.96962
-8.35345
-9.92674
-10.7534
-9.26453
-6.48342
-4.21682
-2.71
-1.73467
-1.07366
-0.586794
-0.186822
0.903336
2.34762
3.47769
4.22339
4.16718
3.95144
3.85161
3.49224
3.16113
3.0694
3.20411
3.38671
3.38064
3.50255
3.61112
3.33028
3.02507
2.84795
2.53382
2.25715
2.14957
2.1974
2.27776
2.23133
2.26189
2.27996
2.04911
1.80196
1.68659
1.6953
1.73065
1.66472
1.65605
1.63821
1.43035
1.20084
1.02248
0.783346
0.5422
0.337688
0.14418
-0.0732673
-0.36113
-0.712962
-1.09065
-1.4395
-1.85512
-2.35692
-2.7993
-3.38218
-4.29059
-5.66197
-7.2686
-8.77232
-10.7755
-12.0712
-10.1938
-6.68263
-4.11002
-2.54468
-1.59241
-0.972729
-0.527806
-0.167505
1.05385
2.61075
3.83827
4.69934
4.46285
4.12966
4.06829
3.59777
3.17331
3.07137
3.2648
3.51899
3.45547
3.62694
3.82921
3.44948
3.08279
2.94415
2.56832
2.23861
2.13085
2.22263
2.35367
2.27144
2.33274
2.40726
2.10797
1.80298
1.68218
1.72366
1.79902
1.70567
1.72146
1.74994
1.4976
1.23994
1.07891
0.81971
0.562807
0.362916
0.180937
-0.0240289
-0.317369
-0.68741
-1.08453
-1.41547
-1.83221
-2.36915
-2.7627
-3.30637
-4.22896
-5.75127
-7.56445
-9.12457
-11.6555
-13.6381
-11.2403
-6.78238
-3.91051
-2.32732
-1.42422
-0.859313
-0.463217
-0.146587
1.24647
2.89149
4.21549
5.25152
4.75414
4.27606
4.31167
3.69462
3.15644
3.04715
3.31746
3.67359
3.50625
3.74317
4.08921
3.56231
3.11784
3.05711
2.59724
2.20127
2.09531
2.24328
2.44512
2.2971
2.39933
2.56205
2.16476
1.78767
1.66361
1.74779
1.87931
1.73518
1.78287
1.88161
1.56237
1.26878
1.14155
0.854281
0.577471
0.385456
0.218118
0.030869
-0.268741
-0.660579
-1.08452
-1.3849
-1.79968
-2.39353
-2.71444
-3.20038
-4.11699
-5.81094
-7.86973
-9.37559
-12.5455
-15.5237
-12.4233
-6.73754
-3.60578
-2.05934
-1.23348
-0.735931
-0.394427
-0.124509
1.49923
3.18591
4.59949
5.90352
5.03113
4.37453
4.59717
3.78085
3.10564
2.99329
3.36088
3.86374
3.52213
3.84549
4.40842
3.66355
3.12033
3.19741
2.61973
2.1421
2.04079
2.25867
2.56087
2.30142
2.45811
2.75533
2.21742
1.75258
1.62903
1.76704
1.97838
1.74789
1.83746
2.04131
1.62223
1.28292
1.21439
0.886498
0.584638
0.405011
0.255282
0.0924486
-0.214783
-0.632325
-1.09451
-1.34642
-1.7541
-2.43892
-2.65494
-3.06421
-3.94707
-5.83851
-8.20637
-9.48109
-13.4122
-17.8183
-13.7635
-6.48817
-3.18621
-1.74482
-1.02454
-0.605329
-0.322856
-0.101708
1.83791
3.48764
4.9748
6.68791
5.28005
4.40368
4.947
3.85288
3.01544
2.90631
3.39241
4.10801
3.48815
3.92562
4.81036
3.74545
3.07684
3.37998
2.63384
2.0577
1.96506
2.26715
2.71309
2.2748
2.50392
3.00189
2.26237
1.69379
1.57664
1.78003
2.10579
1.73639
1.8812
2.24006
1.67357
1.27642
1.30323
0.915387
0.582456
0.421498
0.291786
0.162007
-0.155032
-0.602004
-1.11959
-1.2981
-1.69002
-2.51698
-2.58377
-2.89897
-3.71002
-5.82965
-8.6091
-9.38558
-14.2057
-20.6381
-15.2832
-5.95594
-2.64744
-1.39074
-0.802483
-0.470328
-0.249882
-0.0785922
2.29876
3.78716
5.31842
7.649
5.48215
4.33558
5.39223
3.9044
2.87995
2.78288
3.40704
4.43189
3.38418
3.97201
5.32653
3.79698
2.96957
3.6255
2.63582
1.94429
1.86596
2.26555
2.91845
2.20423
2.52955
3.32131
2.29377
1.60705
1.50487
1.78419
2.27465
1.69064
1.90856
2.49267
1.71121
1.24155
1.41622
0.939309
0.568745
0.435146
0.326694
0.241179
-0.0891129
-0.568233
-1.1665
-1.23746
-1.59933
-2.64303
-2.49891
-2.70744
-3.39486
-5.77657
-9.12964
-9.02087
-14.8556
-24.1315
-17.0051
-5.04008
-1.99351
-1.00696
-0.572819
-0.33368
-0.176776
-0.0555338
2.93167
4.07094
5.59759
8.84609
5.61234
4.13425
5.97529
3.92502
2.69304
2.62027
3.39626
4.86974
3.18364
3.96898
5.99842
3.80283
2.77527
3.96202
2.61928
1.79793
1.74165
2.24838
3.19938
2.07251
2.52521
3.73919
2.30268
1.48794
1.41269
1.77514
2.50257
1.59734
1.91206
2.81863
1.7279
1.16837
1.56457
0.955625
0.54099
0.446637
0.358651
0.332012
-0.0168821
-0.528569
-1.24395
-1.16148
-1.47046
-2.837
-2.39596
-2.49468
-2.98873
-5.66576
-9.84143
-8.30467
-15.2644
-28.4861
-18.9507
-3.61291
-1.24082
-0.60581
-0.341145
-0.197923
-0.104663
-0.0328548
3.80396
4.3204
5.76721
10.3573
5.63758
3.75407
6.75284
3.89847
2.44878
2.41679
3.34653
5.46707
2.85217
3.89574
6.87978
3.7424
2.46429
4.42681
2.57397
1.61469
1.59096
2.20686
3.58554
1.85728
2.478
4.28858
2.27599
1.33221
1.29981
1.74589
2.81287
1.43918
1.88195
3.24321
1.71381
1.04436
1.76327
0.960264
0.496352
0.457259
0.385733
0.437077
0.0613839
-0.479119
-1.3631
-1.06668
-1.28744
-3.12468
-2.26702
-2.26888
-2.47696
-5.47508
-10.845
-7.13945
-15.3012
-33.9368
-21.1393
-1.51516
-0.422852
-0.201266
-0.112736
-0.0652796
-0.03449
-0.010823
)
;

boundaryField
{
    left
    {
        type            calculated;
        value           uniform 0;
    }
    right
    {
        type            calculated;
        value           uniform 0;
    }
    interface
    {
        type            calculated;
        value           nonuniform List<scalar> 
64
(
3.80396
4.3204
5.76721
10.3573
5.63758
3.75407
6.75284
3.89847
2.44878
2.41679
3.34653
5.46707
2.85217
3.89574
6.87978
3.7424
2.46429
4.42681
2.57397
1.61469
1.59096
2.20686
3.58554
1.85728
2.478
4.28858
2.27599
1.33221
1.29981
1.74589
2.81287
1.43918
1.88195
3.24321
1.71381
1.04436
1.76327
0.960264
0.496352
0.457259
0.385733
0.437077
0.0613839
-0.479119
-1.3631
-1.06668
-1.28744
-3.12468
-2.26702
-2.26888
-2.47696
-5.47508
-10.845
-7.13945
-15.3012
-33.9368
-21.1393
-1.51516
-0.422852
-0.201266
-0.112736
-0.0652796
-0.03449
-0.010823
)
;
    }
    bottom
    {
        type            calculated;
        value           nonuniform List<scalar> 
64
(
0.00630495
0.0187342
0.0306383
0.0417195
0.051749
0.0605773
0.0681341
0.0744172
0.0794763
0.0833941
0.0862706
0.0882101
0.0893144
0.0896805
0.0894008
0.0885644
0.0872581
0.0855656
0.0835646
0.0813235
0.0788982
0.0763294
0.0736419
0.0708458
0.067939
0.0649092
0.061737
0.0583968
0.0548577
0.0510838
0.0470348
0.042667
0.0379354
0.0327952
0.0272045
0.021126
0.0145272
0.00738196
-0.000329189
-0.00861796
-0.0174859
-0.0269206
-0.0368908
-0.0473391
-0.0581739
-0.0692603
-0.0804114
-0.09138
-0.101855
-0.111463
-0.119781
-0.126359
-0.130753
-0.132569
-0.131511
-0.127416
-0.120277
-0.110247
-0.0976153
-0.0827649
-0.0661295
-0.0481502
-0.0292469
-0.0098074
)
;
    }
    defaultFaces
    {
        type            empty;
    }
}


// ************************************************************************* //
