/*--------------------------------*- C++ -*----------------------------------*\
| =========                 |                                                 |
| \\      /  F ield         | OpenFOAM: The Open Source CFD Toolbox           |
|  \\    /   O peration     | Version:  5.x                                   |
|   \\  /    A nd           | Web:      www.OpenFOAM.org                      |
|    \\/     M anipulation  |                                                 |
\*---------------------------------------------------------------------------*/
FoamFile
{
    version     2.0;
    format      ascii;
    class       volScalarField;
    location    "12.3999";
    object      gradTx;
}
// * * * * * * * * * * * * * * * * * * * * * * * * * * * * * * * * * * * * * //

dimensions      [0 -1 0 1 0 0 0];

internalField   nonuniform List<scalar> 
6300
(
-31.9163
-31.9871
-32.128
-32.3376
-32.6136
-32.9529
-33.3512
-33.8031
-34.3019
-34.8394
-35.4063
-35.9922
-36.586
-37.1765
-37.7531
-31.8455
-31.917
-32.0593
-32.2712
-32.5504
-32.8939
-33.2976
-33.7563
-34.2631
-34.81
-35.3873
-35.9843
-36.5894
-37.1905
-37.7764
-31.7033
-31.7761
-31.9212
-32.1374
-32.4228
-32.7746
-33.1892
-33.6613
-34.1843
-34.7501
-35.3486
-35.9684
-36.5966
-37.2198
-37.825
-31.4882
-31.5629
-31.7119
-31.9343
-32.2287
-32.5928
-33.0232
-33.5153
-34.0628
-34.6574
-35.2887
-35.944
-36.6087
-37.2671
-37.9031
-31.1984
-31.2754
-31.4292
-31.6594
-31.965
-32.3445
-32.7955
-33.3139
-33.8942
-34.5281
-35.2048
-35.9102
-36.6273
-37.3366
-38.0177
-30.8316
-30.9111
-31.0702
-31.3089
-31.6273
-32.0248
-32.5002
-33.0508
-33.6719
-34.356
-35.0922
-35.8648
-36.6537
-37.4343
-38.1792
-30.3853
-30.4672
-30.6315
-30.8789
-31.2105
-31.6274
-32.1298
-32.7171
-33.3865
-34.132
-34.9431
-35.8031
-36.6884
-37.5676
-38.403
-29.8572
-29.941
-30.1096
-30.3646
-30.7086
-31.1442
-31.6745
-32.3013
-33.025
-33.8424
-34.7449
-35.7162
-36.7293
-37.7449
-38.7104
-29.2451
-29.33
-29.5012
-29.7615
-30.1149
-30.5666
-31.1225
-31.7887
-32.5698
-33.4676
-34.4781
-35.5874
-36.7677
-37.9721
-39.1295
-28.5482
-28.6328
-28.8038
-29.0652
-29.4229
-29.8847
-30.4604
-31.161
-31.9979
-32.9803
-34.1123
-35.3875
-36.7821
-38.2464
-39.6923
-27.7668
-27.849
-28.016
-28.2727
-28.6267
-29.0889
-29.6733
-30.3972
-31.2804
-32.3434
-33.6035
-35.0681
-36.7266
-38.5392
-40.4197
-26.903
-26.9806
-27.1386
-27.3828
-27.7224
-28.171
-28.7468
-29.474
-30.3831
-31.5094
-32.8899
-34.5549
-36.5167
-38.7639
-41.2689
-25.9617
-26.0318
-26.1749
-26.3973
-26.7092
-27.1257
-27.6688
-28.3691
-29.2684
-30.4211
-31.8916
-33.7442
-36.0204
-38.7291
-41.9687
-24.9502
-25.0099
-25.132
-25.3225
-25.5913
-25.9539
-26.4335
-27.0651
-27.9004
-29.0147
-30.5108
-32.5086
-35.0879
-38.1569
-41.5726
-23.8791
-23.9256
-24.0207
-24.1693
-24.3797
-24.665
-25.0463
-25.5574
-26.2534
-27.2261
-28.6269
-30.6878
-33.6552
-37.2138
-37.696
-38.2623
-38.7023
-39.1181
-39.5079
-39.8707
-40.2064
-40.5154
-40.7983
-41.0552
-41.2861
-41.4903
-41.6668
-41.8147
-41.9331
-42.022
-42.0823
-42.1158
-42.1255
-42.1152
-42.0892
-42.0517
-42.0065
-41.9565
-41.9036
-41.8482
-41.7897
-41.7267
-41.6572
-41.5793
-41.4916
-41.3933
-41.2849
-41.1678
-41.0442
-40.9171
-40.7892
-40.6631
-40.5408
-40.423
-40.3095
-40.1992
-40.0901
-39.9799
-39.8663
-39.7476
-39.6228
-39.4921
-39.3565
-39.218
-39.079
-38.942
-38.8094
-38.6828
-38.5627
-38.4489
-38.3401
-38.2344
-38.1294
-38.0229
-37.9133
-37.7994
-37.6815
-37.5604
-37.438
-37.3165
-37.1985
-37.086
-36.9807
-36.8832
-36.7933
-36.7099
-36.6315
-36.5563
-36.4826
-36.4093
-36.3364
-36.2649
-36.1969
-36.1358
-36.0851
-36.0491
-36.0313
-36.0348
-36.0613
-36.1108
-36.1818
-36.2709
-36.373
-36.4821
-36.5913
-38.2926
-38.7371
-39.1557
-39.5468
-39.9097
-40.2448
-40.5531
-40.8356
-41.0928
-41.3246
-41.5301
-41.7081
-41.857
-41.9756
-42.0633
-42.1208
-42.15
-42.1543
-42.1378
-42.1057
-42.0627
-42.0134
-41.9609
-41.9071
-41.8526
-41.7963
-41.736
-41.6693
-41.5935
-41.5067
-41.4079
-41.2975
-41.1771
-41.0495
-40.9181
-40.7865
-40.6578
-40.5342
-40.4167
-40.305
-40.1975
-40.0917
-39.9847
-39.8737
-39.7563
-39.6314
-39.4991
-39.3608
-39.2187
-39.076
-38.9358
-38.8009
-38.6733
-38.5537
-38.4417
-38.3358
-38.2333
-38.1315
-38.0275
-37.9192
-37.8054
-37.686
-37.5623
-37.4366
-37.3116
-37.1905
-37.0758
-36.9694
-36.8722
-36.7838
-36.7028
-36.627
-36.5541
-36.4819
-36.4087
-36.3343
-36.2597
-36.1872
-36.1206
-36.0642
-36.0227
-36.0007
-36.0018
-36.028
-36.0799
-36.1558
-36.252
-36.3631
-36.482
-36.6012
-38.3555
-38.809
-39.2331
-39.6262
-39.9886
-40.3218
-40.6281
-40.9094
-41.1669
-41.4007
-41.6096
-41.7913
-41.9431
-42.0626
-42.1482
-42.2001
-42.2203
-42.2128
-42.1832
-42.1378
-42.083
-42.0247
-41.9669
-41.9119
-41.8597
-41.8084
-41.7547
-41.6944
-41.6236
-41.5391
-41.4392
-41.3243
-41.1967
-41.0601
-40.9195
-40.7797
-40.6451
-40.5188
-40.4021
-40.2944
-40.1933
-40.0951
-39.9954
-39.8901
-39.7758
-39.6507
-39.5149
-39.3703
-39.2203
-39.0693
-38.9219
-38.7819
-38.6521
-38.5337
-38.4259
-38.3263
-38.2313
-38.1367
-38.0384
-37.9332
-37.8193
-37.6967
-37.5672
-37.434
-37.3012
-37.1732
-37.0535
-36.945
-36.8486
-36.7636
-36.688
-36.6184
-36.5511
-36.4825
-36.41
-36.3326
-36.2514
-36.1692
-36.0906
-36.0216
-35.9684
-35.937
-35.9324
-35.9579
-36.0144
-36.1005
-36.2117
-36.3417
-36.4817
-36.6222
-38.4561
-38.9235
-39.3551
-39.7498
-40.1095
-40.4377
-40.739
-41.0174
-41.2752
-41.5128
-41.7283
-41.9175
-42.0758
-42.1982
-42.2816
-42.3249
-42.3304
-42.3032
-42.2512
-42.1832
-42.1086
-42.0353
-41.969
-41.9125
-41.8653
-41.824
-41.7827
-41.7348
-41.6735
-41.5935
-41.4921
-41.3696
-41.2292
-41.0767
-40.9196
-40.7653
-40.6205
-40.4896
-40.3746
-40.2744
-40.185
-40.1006
-40.0143
-39.9194
-39.8108
-39.6854
-39.5434
-39.3876
-39.2234
-39.0576
-38.8972
-38.7481
-38.6147
-38.4985
-38.3982
-38.3102
-38.2287
-38.1472
-38.0592
-37.9596
-37.8457
-37.7174
-37.5775
-37.4309
-37.2841
-37.1436
-37.0153
-36.9031
-36.8084
-36.7301
-36.6646
-36.6066
-36.5499
-36.4886
-36.4182
-36.3366
-36.2445
-36.1458
-36.047
-35.9562
-35.8825
-35.8346
-35.8198
-35.8431
-35.9065
-36.0087
-36.1446
-36.3057
-36.4807
-36.6566
-38.6032
-39.0898
-39.53
-39.9239
-40.2756
-40.5925
-40.8831
-41.1549
-41.4126
-41.6569
-41.8845
-42.0885
-42.26
-42.3902
-42.4725
-42.5042
-42.4874
-42.4296
-42.342
-42.2383
-42.1322
-42.0357
-41.957
-41.8998
-41.8626
-41.8394
-41.8205
-41.7945
-41.7502
-41.6789
-41.5756
-41.4405
-41.2789
-41.1001
-40.9156
-40.7373
-40.5757
-40.4376
-40.3259
-40.2386
-40.1694
-40.1087
-40.0454
-39.9687
-39.8699
-39.7442
-39.5916
-39.417
-39.2289
-39.0382
-38.856
-38.6919
-38.5525
-38.4402
-38.3529
-38.2847
-38.2263
-38.1671
-38.0966
-38.0068
-37.8929
-37.7549
-37.5972
-37.4281
-37.2577
-37.0967
-36.954
-36.8359
-36.7446
-36.678
-36.6304
-36.5929
-36.5554
-36.5079
-36.4426
-36.3555
-36.2471
-36.1228
-35.9918
-35.8663
-35.7596
-35.6846
-35.6523
-35.6704
-35.7428
-35.8685
-36.0413
-36.2497
-36.4783
-36.7087
-38.8107
-39.3227
-39.7717
-40.1586
-40.4919
-40.7851
-41.0542
-41.3126
-41.5691
-41.8252
-42.0748
-42.3062
-42.5036
-42.6513
-42.7365
-42.7532
-42.7037
-42.5988
-42.4561
-42.2968
-42.1421
-42.0104
-41.9141
-41.8582
-41.8398
-41.8485
-41.8684
-41.8804
-41.866
-41.8102
-41.7047
-41.5497
-41.3536
-41.1316
-40.9025
-40.6854
-40.4968
-40.3477
-40.2422
-40.1768
-40.1415
-40.1206
-40.096
-40.0497
-39.9676
-39.8416
-39.6717
-39.4658
-39.2382
-39.0065
-38.7887
-38.6002
-38.4514
-38.3458
-38.2803
-38.2449
-38.225
-38.203
-38.1621
-38.0885
-37.9747
-37.8205
-37.6335
-37.4271
-37.218
-37.0232
-36.8574
-36.7302
-36.645
-36.5987
-36.5816
-36.5794
-36.5752
-36.5527
-36.4984
-36.4051
-36.2728
-36.1092
-35.9286
-35.7493
-35.5911
-35.4732
-35.412
-35.4196
-35.5025
-35.6606
-35.8865
-36.1648
-36.4735
-36.7854
-39.0999
-39.6466
-40.1028
-40.4707
-40.7656
-41.0128
-41.2404
-41.4732
-41.7264
-42.0025
-42.2915
-42.5728
-42.819
-43.0022
-43.0991
-43.0975
-42.9997
-42.8226
-42.5942
-42.3485
-42.119
-41.9341
-41.8129
-41.7627
-41.778
-41.8417
-41.9275
-42.0044
-42.0413
-42.013
-41.9052
-41.7179
-41.4656
-41.1733
-40.872
-40.5926
-40.3611
-40.195
-40.1005
-40.0719
-40.0927
-40.1379
-40.1776
-40.1825
-40.1285
-40.0022
-39.8035
-39.5459
-39.2533
-38.9547
-38.6793
-38.4515
-38.2878
-38.1938
-38.1642
-38.183
-38.2265
-38.2663
-38.2745
-38.2283
-38.1146
-37.9335
-37.6978
-37.4299
-37.1575
-36.9081
-36.7051
-36.5638
-36.4897
-36.4773
-36.5113
-36.5685
-36.6216
-36.6431
-36.6105
-36.5108
-36.3433
-36.1203
-35.8637
-35.6018
-35.3645
-35.1801
-35.0727
-35.0603
-35.1538
-35.3551
-35.656
-36.0363
-36.4639
-36.8978
-39.5041
-40.1006
-40.5611
-40.8878
-41.1083
-41.2684
-41.4193
-41.6046
-41.8505
-42.1614
-42.5195
-42.8896
-43.2253
-43.4773
-43.6035
-43.5804
-43.4098
-43.12
-42.7574
-42.3768
-42.0316
-41.766
-41.6095
-41.5728
-41.6466
-41.8028
-41.9995
-42.1859
-42.3106
-42.3303
-42.2201
-41.98
-41.635
-41.2281
-40.8101
-40.4308
-40.1313
-39.9391
-39.8637
-39.896
-40.009
-40.1629
-40.3094
-40.4
-40.3937
-40.267
-40.02
-39.6765
-39.277
-38.8696
-38.5012
-38.2106
-38.0236
-37.9492
-37.9783
-38.0857
-38.2332
-38.3752
-38.4654
-38.4651
-38.3516
-38.1252
-37.8083
-37.4393
-37.0638
-36.7264
-36.4639
-36.3007
-36.2454
-36.2892
-36.4076
-36.5637
-36.7134
-36.8114
-36.8192
-36.714
-36.494
-36.1795
-35.8065
-35.4189
-35.0617
-34.7761
-34.5965
-34.5487
-34.6497
-34.9061
-35.3112
-35.8398
-36.4453
-37.0637
-40.0739
-40.7504
-41.2122
-41.4577
-41.5378
-41.5374
-41.5488
-41.6486
-41.8812
-42.2521
-42.7301
-43.2561
-43.7523
-44.1333
-44.3232
-44.2754
-43.9918
-43.5222
-42.9465
-42.3543
-41.8295
-41.4408
-41.2335
-41.224
-41.3963
-41.7059
-42.0862
-42.4563
-42.7309
-42.8348
-42.722
-42.3929
-41.8936
-41.2988
-40.6926
-40.1539
-39.7472
-39.5149
-39.4721
-39.6035
-39.8666
-40.1983
-40.5219
-40.7569
-40.8323
-40.705
-40.3755
-39.8876
-39.3121
-38.7284
-38.211
-37.8206
-37.5974
-37.5553
-37.6799
-37.9306
-38.2478
-38.5586
-38.7867
-38.8646
-38.7514
-38.4473
-37.9938
-37.458
-36.9154
-36.4367
-36.0796
-35.8823
-35.8583
-35.9936
-36.2494
-36.5682
-36.8798
-37.1095
-37.1909
-37.0823
-36.7808
-36.3231
-35.7703
-35.1921
-34.6557
-34.2195
-33.9303
-33.823
-33.9219
-34.243
-34.7886
-35.5324
-36.4083
-37.3125
-40.8862
-41.7093
-42.1748
-42.2659
-42.0834
-41.7893
-41.551
-41.5011
-41.713
-42.1885
-42.8716
-43.6657
-44.4449
-45.0648
-45.3849
-45.3101
-44.8417
-44.0773
-43.1594
-42.2346
-41.4317
-40.8543
-40.5727
-40.6133
-40.9483
-41.5072
-42.1876
-42.8644
-43.3971
-43.6512
-43.5355
-43.0511
-42.2897
-41.3858
-40.4778
-39.6872
-39.1117
-38.8177
-38.8297
-39.1214
-39.6255
-40.2453
-40.8621
-41.3436
-41.5627
-41.4342
-40.9591
-40.225
-39.3589
-38.4916
-37.7379
-37.1899
-36.9101
-36.9217
-37.1995
-37.68
-38.2714
-38.8613
-39.3242
-39.5395
-39.4259
-38.9845
-38.2979
-37.4866
-36.6749
-35.9718
-35.4651
-35.2144
-35.2421
-35.5243
-36.0007
-36.5832
-37.164
-37.6211
-37.8363
-37.7281
-37.2927
-36.6037
-35.7706
-34.9053
-34.1055
-33.4511
-33.0023
-32.8005
-32.8739
-33.2566
-33.9806
-35.0348
-36.3304
-37.6938
-42.0511
-43.1834
-43.6762
-43.4676
-42.7896
-41.9611
-41.2822
-40.9765
-41.1654
-41.8258
-42.8534
-44.0966
-45.3671
-46.428
-47.0153
-46.9115
-46.1177
-44.8533
-43.3823
-41.9392
-40.7091
-39.8418
-39.448
-39.5784
-40.1781
-41.1335
-42.2943
-43.4797
-44.4647
-44.9998
-44.8802
-44.1079
-42.8909
-41.4788
-40.0938
-38.9106
-38.0711
-37.6798
-37.7847
-38.3333
-39.218
-40.2963
-41.3972
-42.3081
-42.7939
-42.6622
-41.9159
-40.7523
-39.4075
-38.0914
-36.9686
-36.173
-35.8033
-35.9047
-36.4275
-37.2698
-38.2969
-39.3469
-40.2183
-40.6878
-40.5726
-39.8748
-38.7813
-37.516
-36.278
-35.2241
-34.4819
-34.1457
-34.2591
-34.7757
-35.5989
-36.6008
-37.6262
-38.4809
-38.9475
-38.8452
-38.1696
-37.0919
-35.8173
-34.524
-33.3461
-32.3867
-31.7186
-31.3818
-31.3806
-31.7786
-32.6972
-34.1897
-36.1549
-38.2952
-43.6964
-45.5798
-46.188
-45.3443
-43.7117
-41.9177
-40.476
-39.7397
-39.939
-40.9341
-42.5248
-44.4882
-46.591
-48.4733
-49.6409
-49.5065
-48.0714
-45.927
-43.5647
-41.3375
-39.4639
-38.1475
-37.5683
-37.868
-38.8958
-40.4639
-42.3654
-44.3836
-46.1803
-47.2912
-47.1648
-45.8053
-43.7728
-41.5329
-39.4194
-37.6392
-36.3849
-35.8274
-36.1006
-37.0615
-38.5316
-40.3149
-42.2059
-43.8849
-44.9142
-44.7752
-43.4737
-41.5403
-39.415
-37.4126
-35.7281
-34.5428
-34.0182
-34.2807
-35.1953
-36.5933
-38.2895
-40.0898
-41.6911
-42.6782
-42.558
-41.335
-39.512
-37.506
-35.616
-34.0276
-32.9141
-32.4295
-32.6956
-33.5854
-34.9399
-36.5844
-38.3344
-39.8996
-40.8778
-40.7878
-39.6256
-37.8637
-35.8908
-33.9763
-32.2721
-30.9028
-29.9577
-29.4797
-29.3124
-29.5512
-30.5871
-32.664
-35.7271
-39.2811
-45.8135
-49.8181
-50.7961
-48.3558
-44.862
-41.3664
-38.6545
-37.1561
-37.5664
-39.1851
-41.6595
-44.6789
-48.1324
-51.5479
-54.1414
-53.9744
-51.0467
-47.3144
-43.5528
-40.2264
-37.4164
-35.3915
-34.4233
-35.1088
-36.8357
-39.3141
-42.2684
-45.6067
-48.8833
-51.3642
-51.2251
-48.4716
-44.9535
-41.4051
-38.2648
-35.6103
-33.6956
-32.7788
-33.4261
-35.0562
-37.3943
-40.1782
-43.3201
-46.3971
-48.7169
-48.5623
-45.9414
-42.6046
-39.2455
-36.2761
-33.7685
-31.9615
-31.0994
-31.7178
-33.2669
-35.4875
-38.1323
-41.1191
-44.0484
-46.2632
-46.1314
-43.6594
-40.506
-37.329
-34.5197
-32.1474
-30.4405
-29.6324
-30.2341
-31.7258
-33.8635
-36.416
-39.3088
-42.1634
-44.3465
-44.2744
-41.9452
-38.9394
-35.8803
-33.126
-30.7158
-28.8082
-27.5244
-27.13
-26.6596
-26.1759
-26.9781
-29.7182
-34.5927
-40.9831
-47.3406
-58.4272
-60.3587
-52.8975
-46.0049
-39.6812
-35.0842
-31.8237
-33.4537
-36.2038
-40.0095
-44.2445
-49.7286
-55.806
-62.6172
-62.4176
-55.1805
-48.7441
-42.9142
-38.3716
-34.2384
-31.1139
-28.8968
-30.8501
-33.6933
-37.4788
-41.6186
-46.9185
-52.7323
-59.2098
-59.0502
-52.2388
-46.178
-40.6895
-36.4109
-32.5162
-29.5691
-27.4779
-29.3364
-32.0317
-35.6147
-39.5263
-44.5275
-49.9996
-56.0827
-55.9011
-49.4398
-43.7011
-38.5148
-34.4747
-30.8
-28.0196
-26.0488
-27.8145
-30.3718
-33.7707
-37.4828
-42.2313
-47.4345
-53.2272
-53.0749
-46.9649
-41.5341
-36.6225
-32.7942
-29.3091
-26.6726
-24.805
-26.4912
-28.9359
-32.1897
-35.7575
-40.3383
-45.3942
-51.0625
-51.0112
-45.239
-40.0918
-35.4308
-31.78
-28.4358
-25.8151
-23.8102
-24.8901
-24.0257
-20.9487
-20.5787
-23.6988
-31.2752
-44.1161
-41.0135
-80.1862
-83.5617
-56.7374
-46.3453
-35.5079
-29.5887
-19.449
-27.7282
-31.7023
-37.7411
-42.0117
-50.4703
-59.0075
-81.1885
-80.9948
-58.1613
-49.3005
-40.4219
-35.9274
-29.608
-25.5295
-17.3649
-25.31
-29.1939
-35.1335
-39.2983
-47.4904
-55.6252
-76.6132
-76.4537
-54.9253
-46.5782
-38.2317
-34.0039
-28.0578
-24.2098
-16.4898
-24.0414
-27.7288
-33.3621
-37.3053
-45.057
-52.7221
-72.4696
-72.2826
-51.8976
-44.0023
-36.1335
-32.1471
-26.5435
-22.9121
-15.6178
-22.771
-26.265
-31.6027
-35.3407
-42.6885
-49.972
-68.7518
-68.5973
-49.2924
-41.8145
-34.3561
-30.5743
-25.2489
-21.7975
-14.8602
-21.6559
-24.9808
-30.0638
-33.6403
-40.6836
-47.743
-66.0149
-65.9862
-47.6328
-40.5441
-33.5266
-29.9925
-25.1141
-21.9354
-15.6539
-25.4497
-24.5781
-11.8235
-9.15346
-11.2624
-20.377
-50.2249
-36.7027
-36.8055
-36.8797
-36.9199
-36.9242
-36.8945
-36.8356
-36.7543
-36.6587
-36.5575
-36.4588
-36.3703
-36.2981
-36.2472
-36.2209
-36.7226
-36.8342
-36.9138
-36.9557
-36.9582
-36.9238
-36.858
-36.7685
-36.6644
-36.5549
-36.4487
-36.3539
-36.2768
-36.2226
-36.1946
-36.7648
-36.8948
-36.9856
-37.0308
-37.0292
-36.9844
-36.904
-36.7974
-36.6755
-36.5489
-36.4274
-36.3197
-36.2327
-36.1717
-36.1404
-36.8344
-36.9944
-37.1031
-37.1527
-37.1432
-37.0808
-36.976
-36.8417
-36.6913
-36.5377
-36.3923
-36.2647
-36.1625
-36.0913
-36.0548
-36.9403
-37.1455
-37.2795
-37.3338
-37.3102
-37.2196
-37.0776
-36.902
-36.7104
-36.5184
-36.3395
-36.1844
-36.0613
-35.9762
-35.9327
-37.097
-37.3675
-37.5359
-37.5925
-37.5444
-37.4098
-37.2128
-36.9785
-36.7297
-36.486
-36.2628
-36.072
-35.9223
-35.8194
-35.7671
-37.3277
-37.6917
-37.904
-37.9561
-37.8649
-37.6623
-37.3854
-37.0693
-36.744
-36.433
-36.1537
-35.9187
-35.7363
-35.612
-35.5491
-37.6705
-38.1676
-38.4324
-38.4629
-38.2967
-37.9892
-37.5971
-37.1694
-36.7441
-36.3483
-36.0005
-35.7127
-35.4922
-35.3433
-35.2683
-38.1892
-38.8758
-39.1949
-39.1666
-38.87
-38.4006
-37.8444
-37.2672
-36.7145
-36.2155
-35.7873
-35.4393
-35.1764
-35.0006
-34.9126
-38.996
-39.9515
-40.3049
-40.1385
-39.6159
-38.8989
-38.1127
-37.3404
-36.6314
-36.0119
-35.4938
-35.081
-34.7736
-34.5701
-34.4688
-40.2997
-41.6294
-41.9346
-41.4668
-40.556
-39.4665
-38.3672
-37.3504
-36.4588
-35.7068
-35.0949
-34.6173
-34.267
-34.0374
-33.9238
-42.5217
-44.3319
-44.3373
-43.2381
-41.675
-40.0438
-38.5391
-37.2352
-36.1465
-35.2618
-34.5616
-34.0264
-33.6396
-33.3886
-33.2651
-46.6015
-48.8393
-47.8444
-45.4732
-42.862
-40.4947
-38.5101
-36.9048
-35.6302
-34.6322
-33.8634
-33.2872
-32.8764
-32.6123
-32.483
-54.9195
-56.5792
-52.7281
-47.9481
-43.8053
-40.563
-38.1018
-36.2435
-34.8376
-33.7732
-32.9727
-32.3825
-31.9665
-31.701
-31.5717
-74.5068
-69.8299
-58.5408
-49.7858
-43.848
-39.85
-37.0907
-35.13
-33.7034
-32.6504
-31.8715
-31.3036
-30.9062
-30.6537
-30.5309
-22.8546
-22.887
-22.953
-23.0556
-23.2003
-23.3955
-23.6558
-24.0058
-24.49
-25.1937
-26.293
-28.1806
-31.776
-39.1016
-52.2993
-21.9009
-21.9194
-21.9568
-22.0141
-22.0929
-22.1962
-22.3293
-22.502
-22.7345
-23.071
-23.6217
-24.7042
-27.4321
-36.6411
-78.2255
-20.9343
-20.9387
-20.9469
-20.9576
-20.9686
-20.9763
-20.9753
-20.9568
-20.9068
-20.7997
-20.5798
-20.0731
-18.5125
-11.6887
25.3616
-19.9646
-19.9553
-19.9352
-19.9009
-19.8465
-19.7625
-19.6334
-19.4336
-19.1187
-18.6073
-17.7379
-16.169
-13.1803
-7.7188
-3.88942
-19.0014
-18.9795
-18.9334
-18.8581
-18.745
-18.5799
-18.3405
-17.9902
-17.4672
-16.6637
-15.3838
-13.2571
-9.55397
-2.60777
13.4662
-18.0533
-18.0205
-17.9519
-17.8416
-17.6794
-17.449
-17.1248
-16.6667
-16.0103
-15.051
-13.6181
-11.4434
-8.18053
-3.83259
-1.97223
-17.1281
-17.0862
-16.9993
-16.8613
-16.6613
-16.3832
-16.0021
-15.4808
-14.7637
-13.767
-12.3673
-10.3862
-7.56114
-3.32924
4.93208
-16.232
-16.1831
-16.0824
-15.9238
-15.6975
-15.3889
-14.9766
-14.4311
-13.7113
-12.763
-11.52
-9.9154
-7.91885
-5.62396
-3.47701
-15.3699
-15.316
-15.2056
-15.0334
-14.791
-14.4665
-14.0438
-13.5023
-12.8175
-11.9636
-10.9237
-9.71682
-8.4838
-7.81592
-10.3951
-14.5453
-14.4881
-14.3717
-14.1917
-13.9414
-13.6123
-13.1934
-12.6731
-12.0411
-11.2935
-10.4433
-9.5364
-8.65631
-7.75294
-5.04019
-13.7603
-13.7015
-13.582
-13.3987
-13.1467
-12.8203
-12.4135
-11.9216
-11.3449
-10.6945
-10.0023
-9.33735
-8.845
-8.94647
-11.8656
-13.0163
-12.9568
-12.8366
-12.6533
-12.4037
-12.0843
-11.6926
-11.2288
-10.6999
-10.1247
-9.54238
-9.01842
-8.62132
-8.1833
-5.54806
-12.3136
-12.2544
-12.1351
-11.9541
-11.7092
-11.3986
-11.0217
-10.5814
-10.087
-9.55988
-9.0419
-8.61141
-8.42606
-8.94597
-12.5705
-11.6519
-11.5937
-11.4765
-11.2991
-11.0603
-10.7588
-10.3949
-9.9715
-9.4969
-8.98867
-8.48066
-8.03417
-7.74103
-7.55262
-5.42109
-11.0307
-10.9739
-10.8596
-10.687
-10.4549
-10.1624
-9.80937
-9.39719
-8.93014
-8.41731
-7.87672
-7.35042
-6.98327
-7.50866
-13.4803
-10.4491
-10.3939
-10.2832
-10.1161
-9.89143
-9.60809
-9.26493
-8.86097
-8.39519
-7.86523
-7.26285
-6.55616
-5.6057
-3.68258
3.64279
-9.90572
-9.85262
-9.74602
-9.58512
-9.36875
-9.09533
-8.76271
-8.36769
-7.9048
-7.36346
-6.72142
-5.9312
-4.9036
-3.60806
-3.47615
-9.39924
-9.34846
-9.24654
-9.0927
-8.8857
-8.62369
-8.30383
-7.92154
-7.46891
-6.93163
-6.28291
-5.47108
-4.38757
-2.72545
1.01375
-8.92802
-8.87984
-8.78314
-8.6372
-8.44086
-8.19222
-7.88832
-7.52424
-7.09181
-6.57719
-5.95767
-5.19963
-4.27337
-3.28522
-3.41674
-8.49028
-8.44492
-8.35392
-8.21673
-8.03234
-7.79915
-7.51459
-7.17443
-6.7718
-6.29561
-5.72864
-5.04503
-4.20215
-3.06744
-0.770068
-8.08405
-8.0417
-7.95681
-7.82903
-7.65771
-7.44177
-7.17948
-6.86802
-6.50287
-6.07709
-5.58062
-5.00103
-4.33361
-3.65703
-3.69628
-7.70725
-7.66801
-7.58949
-7.47158
-7.31407
-7.11659
-6.87854
-6.59889
-6.27605
-5.90767
-5.49034
-5.01803
-4.47144
-3.74951
-2.2305
-7.3577
-7.32163
-7.24955
-7.14164
-6.99819
-6.8196
-6.60649
-6.35976
-6.08087
-5.77226
-5.43826
-5.08662
-4.73105
-4.39548
-4.12887
-7.03322
-7.00024
-6.93449
-6.8364
-6.70672
-6.5466
-6.35779
-6.14298
-5.90634
-5.65449
-5.39843
-5.15794
-4.97678
-4.99354
-5.84197
-6.73166
-6.70163
-6.6419
-6.55311
-6.43641
-6.29353
-6.12717
-5.94137
-5.74237
-5.53967
-5.34781
-5.18809
-5.08509
-5.01402
-4.46636
-6.45095
-6.42367
-6.36948
-6.28923
-6.18428
-6.05679
-5.91004
-5.74895
-5.58097
-5.41733
-5.27487
-5.17885
-5.17123
-5.36545
-6.38809
-6.18921
-6.1644
-6.11519
-6.04249
-5.94781
-5.83344
-5.70288
-5.56133
-5.41658
-5.2803
-5.16969
-5.10824
-5.11722
-5.14155
-4.514
-5.94471
-5.92207
-5.87722
-5.81105
-5.72501
-5.62135
-5.50336
-5.37593
-5.24631
-5.12546
-5.03037
-4.98872
-5.05257
-5.37033
-6.70985
-5.71594
-5.69519
-5.65407
-5.5934
-5.51447
-5.41921
-5.31042
-5.19207
-5.06996
-4.95274
-4.85397
-4.79595
-4.81161
-4.88953
-4.34991
-5.50158
-5.48246
-5.44452
-5.38844
-5.31527
-5.22649
-5.12412
-5.01084
-4.89024
-4.76721
-4.64929
-4.55201
-4.52742
-4.83754
-7.101
-5.30053
-5.28279
-5.24758
-5.19537
-5.12693
-5.04322
-4.9454
-4.83471
-4.7122
-4.57814
-4.43028
-4.25763
-4.01079
-3.42906
-0.91528
-5.1118
-5.09528
-5.06244
-5.01359
-4.9492
-4.86975
-4.77563
-4.66679
-4.5422
-4.39867
-4.22849
-4.01477
-3.72674
-3.36225
-3.49229
-4.93454
-4.91913
-4.88842
-4.84261
-4.78193
-4.70649
-4.6161
-4.50983
-4.38537
-4.23772
-4.05696
-3.82353
-3.49579
-2.95198
-1.57988
-4.768
-4.75361
-4.7249
-4.68198
-4.62492
-4.55363
-4.4676
-4.36552
-4.24464
-4.09978
-3.92201
-3.69778
-3.41492
-3.11689
-3.29412
-4.61147
-4.59805
-4.57125
-4.53116
-4.4778
-4.41101
-4.33025
-4.23427
-4.12057
-3.98472
-3.81934
-3.61276
-3.34459
-2.95173
-2.04109
-4.46427
-4.45178
-4.42685
-4.38958
-4.34002
-4.27811
-4.2035
-4.11533
-4.01189
-3.89016
-3.7453
-3.57053
-3.36086
-3.14612
-3.24578
-4.32575
-4.31415
-4.29104
-4.25654
-4.21083
-4.15403
-4.08616
-4.007
-3.91592
-3.81169
-3.69204
-3.55253
-3.38066
-3.12215
-2.47312
-4.19529
-4.18454
-4.16314
-4.13131
-4.08935
-4.03766
-3.97668
-3.90696
-3.82911
-3.74392
-3.65259
-3.55703
-3.46063
-3.36935
-3.29607
-4.07231
-4.06232
-4.04249
-4.01311
-3.97464
-3.92773
-3.87329
-3.81258
-3.74739
-3.68045
-3.61607
-3.56214
-3.53705
-3.60402
-4.06803
-3.95628
-3.94696
-3.92849
-3.90124
-3.8658
-3.82305
-3.77427
-3.72131
-3.66691
-3.61519
-3.57232
-3.54722
-3.54955
-3.56296
-3.32655
-3.84673
-3.83795
-3.82059
-3.79506
-3.76204
-3.72257
-3.67815
-3.63104
-3.58459
-3.5438
-3.51623
-3.51326
-3.55436
-3.69535
-4.25635
-3.74329
-3.73491
-3.71837
-3.69409
-3.66278
-3.62552
-3.58392
-3.54033
-3.49833
-3.46325
-3.44306
-3.44872
-3.48983
-3.53605
-3.23747
-3.64567
-3.63756
-3.62153
-3.59801
-3.56766
-3.53151
-3.49106
-3.44854
-3.40727
-3.37237
-3.35194
-3.35958
-3.42174
-3.61617
-4.34929
-3.5537
-3.54571
-3.52992
-3.50667
-3.47658
-3.44049
-3.39966
-3.35589
-3.31181
-3.27145
-3.24135
-3.23257
-3.26183
-3.32218
-3.04981
-3.46728
-3.4593
-3.44348
-3.42011
-3.38966
-3.35277
-3.31031
-3.26346
-3.21376
-3.16342
-3.11596
-3.07916
-3.08033
-3.25922
-4.4814
-3.38641
-3.37833
-3.36228
-3.33848
-3.30722
-3.26892
-3.22403
-3.17301
-3.11618
-3.0534
-2.98318
-2.89938
-2.77542
-2.47173
-1.13266
-3.31116
-3.30291
-3.28649
-3.26202
-3.22969
-3.18966
-3.14202
-3.08661
-3.02273
-2.94855
-2.85983
-2.74752
-2.59533
-2.40323
-2.48288
-3.24165
-3.23318
-3.21629
-3.19104
-3.15751
-3.11569
-3.06541
-3.00609
-2.93645
-2.8538
-2.75288
-2.62334
-2.44298
-2.14601
-1.39946
-3.17803
-3.16931
-3.15189
-3.12582
-3.09109
-3.04761
-2.99507
-2.93275
-2.85921
-2.77176
-2.66582
-2.53446
-2.3716
-2.20096
-2.28639
-3.12047
-3.11148
-3.09352
-3.06662
-3.03076
-2.98583
-2.93154
-2.86722
-2.79163
-2.70256
-2.5964
-2.46747
-2.30564
-2.07808
-1.57582
-3.06915
-3.05988
-3.04137
-3.01364
-2.97672
-2.93056
-2.87497
-2.80953
-2.73341
-2.64523
-2.54282
-2.42334
-2.28532
-2.14595
-2.17313
-3.02429
-3.01472
-2.99562
-2.96706
-2.92912
-2.88185
-2.82526
-2.75926
-2.68358
-2.59778
-2.5011
-2.39208
-2.26595
-2.09814
-1.7399
-2.98607
-2.97618
-2.95645
-2.927
-2.88799
-2.83961
-2.78209
-2.71571
-2.6408
-2.5579
-2.46795
-2.37272
-2.27554
-2.18255
-2.10715
-2.95473
-2.94447
-2.92404
-2.89359
-2.85338
-2.80373
-2.74509
-2.67808
-2.60357
-2.52292
-2.43847
-2.35472
-2.28223
-2.25472
-2.42196
-2.93052
-2.91984
-2.89859
-2.86697
-2.82532
-2.77409
-2.71392
-2.64567
-2.57061
-2.49059
-2.40851
-2.3289
-2.2577
-2.19163
-2.02419
-2.91373
-2.90256
-2.88035
-2.84733
-2.80392
-2.75067
-2.68835
-2.61801
-2.5411
-2.45969
-2.37683
-2.29725
-2.2296
-2.19894
-2.33871
-2.90471
-2.89296
-2.8696
-2.83492
-2.78936
-2.73355
-2.66836
-2.59491
-2.51472
-2.42982
-2.34289
-2.25733
-2.17581
-2.08787
-1.8764
-2.90385
-2.89143
-2.86673
-2.83007
-2.78192
-2.72297
-2.6541
-2.57649
-2.49163
-2.40135
-2.308
-2.21461
-2.1265
-2.06258
-2.141
-2.91163
-2.89842
-2.87217
-2.83319
-2.78199
-2.71926
-2.64592
-2.56313
-2.47229
-2.37503
-2.27314
-2.16823
-2.06038
-1.93843
-1.70642
-2.92858
-2.91448
-2.88645
-2.84481
-2.79007
-2.72294
-2.64432
-2.55536
-2.45741
-2.35194
-2.24037
-2.1239
-2.00406
-1.89071
-1.86423
-2.95533
-2.94023
-2.91019
-2.86554
-2.80677
-2.73459
-2.6499
-2.55384
-2.44776
-2.33308
-2.21102
-2.08191
-1.94325
-1.78263
-1.54038
-2.99256
-2.97635
-2.94409
-2.89607
-2.83279
-2.75492
-2.66337
-2.55929
-2.44409
-2.31935
-2.18657
-2.04654
-1.89771
-1.73123
-1.51147
-3.04105
-3.02363
-2.98893
-2.93722
-2.86895
-2.78477
-2.68555
-2.57247
-2.44706
-2.31121
-2.16716
-2.0173
-1.86441
-1.71682
-1.63427
-3.10165
-3.08292
-3.04558
-2.98986
-2.91616
-2.82505
-2.71736
-2.59422
-2.45727
-2.30877
-2.15178
-1.99017
-1.82744
-1.65722
-1.39533
-3.17526
-3.15514
-3.11499
-3.055
-2.97547
-2.87687
-2.75989
-2.62557
-2.47552
-2.31223
-2.1396
-1.96384
-1.79567
-1.66129
-1.68278
-3.26285
-3.24128
-3.19819
-3.13371
-3.04803
-2.94145
-2.81446
-2.66785
-2.50297
-2.32217
-2.12959
-1.93224
-1.74043
-1.55709
-1.27681
-3.36542
-3.34235
-3.29625
-3.22715
-3.1351
-3.02021
-2.88266
-2.72282
-2.54147
-2.34031
-2.12291
-1.8968
-1.67931
-1.52019
-1.61575
-3.48401
-3.45944
-3.41029
-3.33652
-3.23804
-3.11471
-2.96635
-2.79272
-2.59373
-2.36974
-2.12228
-1.85536
-1.57767
-1.30642
-1.08143
-3.61966
-3.5936
-3.54143
-3.46305
-3.35823
-3.22661
-3.06758
-2.88024
-2.66336
-2.41546
-2.13516
-1.82141
-1.47156
-1.0605
-0.390829
-3.77341
-3.74589
-3.69078
-3.60794
-3.49705
-3.35755
-3.18848
-2.98828
-2.75452
-2.4837
-2.17127
-1.81254
-1.40795
-0.994181
-0.863177
-3.94628
-3.91734
-3.8594
-3.77231
-3.65573
-3.50902
-3.33101
-3.11963
-2.87142
-2.58084
-2.23953
-1.83553
-1.35072
-0.731483
0.383528
-4.13925
-4.10894
-4.04827
-3.95716
-3.83534
-3.68224
-3.49672
-3.27656
-3.01774
-2.71322
-2.35131
-1.91464
-1.38686
-0.813062
-0.726387
-4.35328
-4.32161
-4.25829
-4.16334
-4.03667
-3.87798
-3.68647
-3.46034
-3.1958
-2.88546
-2.51503
-2.05701
-1.45496
-0.556352
1.35489
-4.5893
-4.55627
-4.49029
-4.39154
-4.26023
-4.09651
-3.90029
-3.67078
-3.40568
-3.09944
-2.73956
-2.2994
-1.729
-1.00285
-0.811556
-4.84826
-4.8138
-4.74505
-4.64237
-4.50631
-4.33763
-4.13722
-3.90593
-3.64415
-3.35065
-3.01986
-2.63224
-2.11122
-1.07792
2.72988
-5.13116
-5.09515
-5.02337
-4.91637
-4.77504
-4.60077
-4.39559
-4.16228
-3.90463
-3.62778
-3.33962
-3.05772
-2.84918
-3.07972
-6.07449
-5.43907
-5.40134
-5.32617
-5.21421
-5.06665
-4.8854
-4.67349
-4.43552
-4.17844
-3.91276
-3.65502
-3.43226
-3.28223
-3.1619
-1.9684
-5.77318
-5.73352
-5.6545
-5.53679
-5.38165
-5.19132
-4.96948
-4.72205
-4.45824
-4.19224
-3.94615
-3.75629
-3.69466
-3.98932
-5.90626
-6.13483
-6.09306
-6.00972
-5.88535
-5.7211
-5.51911
-5.28325
-5.01996
-4.73955
-4.45788
-4.19822
-3.99129
-3.85966
-3.69017
-2.30251
-6.52549
-6.48145
-6.39342
-6.26162
-6.08674
-5.87044
-5.61607
-5.32975
-5.02173
-4.70825
-4.41368
-4.17398
-4.05097
-4.23695
-5.88619
-6.94673
-6.90041
-6.80753
-6.66781
-6.48116
-6.24821
-5.9711
-5.6546
-5.30771
-4.9455
-4.59102
-4.27565
-4.02771
-3.76756
-2.46406
-7.40015
-7.35168
-7.25417
-7.10659
-6.90773
-6.65665
-6.35346
-6.00057
-5.60433
-5.17738
-4.74121
-4.33049
-4.01291
-4.02273
-5.6199
-7.88723
-7.83702
-7.73558
-7.58099
-7.37057
-7.10127
-6.77036
-6.37663
-5.92228
-5.41566
-4.87373
-4.32066
-3.77076
-3.17557
-2.40166
-8.40919
-8.35793
-8.25391
-8.09416
-7.8743
-7.58868
-7.23089
-6.79478
-6.27655
-5.67846
-5.01398
-4.30864
-3.56005
-2.45252
1.35404
-8.96675
-8.91547
-8.81093
-8.64908
-8.42369
-8.1262
-7.7458
-7.26996
-6.68627
-5.98736
-5.18261
-4.32664
-3.59861
-3.60378
-6.9564
-9.55991
-9.51
-9.40776
-9.24814
-9.02315
-8.72131
-8.327
-7.82003
-7.17602
-6.36976
-5.3868
-4.25581
-3.12801
-2.43042
-2.88543
-10.1877
-10.1409
-10.0444
-9.89259
-9.67599
-9.38062
-8.98644
-8.46528
-7.77843
-6.87487
-5.6938
-4.18275
-2.35866
-0.456624
0.869562
-10.8481
-10.8062
-10.7196
-10.582
-10.3835
-10.1086
-9.73407
-9.22558
-8.53134
-7.5727
-6.22995
-4.32709
-1.64344
1.91707
5.54554
-11.5376
-11.5026
-11.43
-11.3138
-11.1441
-10.9056
-10.5747
-10.1149
-9.46787
-8.53727
-7.15506
-5.01365
-1.53716
4.24357
12.7413
-12.2513
-12.2252
-12.1707
-12.0827
-11.9526
-11.7669
-11.505
-11.1341
-10.6013
-9.81545
-8.60738
-6.62736
-3.03104
4.68329
25.8383
-146.512
-88.0376
-61.546
-48.8881
-42.109
-38.0611
-35.4318
-33.6196
-32.3211
-31.3699
-30.6688
-30.1584
-29.8014
-29.5747
-29.4644
-182.25
-82.3795
-54.6713
-43.9894
-38.6316
-35.4496
-33.3562
-31.8899
-30.8234
-30.0321
-29.4429
-29.0107
-28.7067
-28.5128
-28.4184
46.9686
-26.6089
-35.9728
-35.3935
-33.6431
-32.082
-30.8451
-29.8827
-29.1344
-28.5539
-28.1081
-27.774
-27.5355
-27.3819
-27.3067
-7.02773
-15.4311
-24.1792
-27.6108
-28.5233
-28.4893
-28.1435
-27.7267
-27.329
-26.9822
-26.6958
-26.4708
-26.3053
-26.1966
-26.1428
25.9462
-4.014
-16.0777
-21.5774
-24.0608
-25.1131
-25.491
-25.5576
-25.4882
-25.3685
-25.2409
-25.1265
-25.0355
-24.9731
-24.9415
-1.40865
-5.02499
-12.5345
-17.6388
-20.592
-22.2052
-23.0549
-23.4829
-23.6822
-23.7602
-23.7768
-23.7657
-23.746
-23.7283
-23.7182
11.4889
-3.33242
-10.6615
-15.194
-18.0537
-19.8276
-20.9115
-21.5672
-21.9606
-22.1946
-22.3319
-22.411
-22.4552
-22.4782
-22.488
-3.06193
-6.84283
-10.7305
-13.911
-16.2694
-17.9291
-19.0655
-19.8334
-20.3497
-20.696
-20.9275
-21.0806
-21.1789
-21.2373
-21.2646
-14.9872
-10.2791
-11.2906
-13.199
-14.9704