/*--------------------------------*- C++ -*----------------------------------*\
| =========                 |                                                 |
| \\      /  F ield         | OpenFOAM: The Open Source CFD Toolbox           |
|  \\    /   O peration     | Version:  5.x                                   |
|   \\  /    A nd           | Web:      www.OpenFOAM.org                      |
|    \\/     M anipulation  |                                                 |
\*---------------------------------------------------------------------------*/
FoamFile
{
    version     2.0;
    format      ascii;
    class       volScalarField;
    location    "12.3999";
    object      T;
}
// * * * * * * * * * * * * * * * * * * * * * * * * * * * * * * * * * * * * * //

dimensions      [0 0 0 1 0 0 0];

internalField   nonuniform List<scalar> 
6300
(
322.841
322.521
322.201
321.879
321.554
321.226
320.895
320.559
320.219
319.873
319.522
319.165
318.802
318.433
318.059
322.841
322.522
322.203
321.881
321.557
321.23
320.899
320.564
320.224
319.879
319.528
319.171
318.808
318.439
318.064
322.842
322.524
322.206
321.886
321.563
321.237
320.908
320.574
320.235
319.89
319.54
319.183
318.82
318.451
318.076
322.843
322.528
322.211
321.893
321.573
321.249
320.921
320.588
320.251
319.907
319.557
319.201
318.839
318.469
318.093
322.844
322.532
322.219
321.903
321.585
321.264
320.939
320.608
320.272
319.93
319.582
319.226
318.863
318.494
318.117
322.846
322.537
322.228
321.916
321.602
321.283
320.961
320.633
320.3
319.96
319.613
319.258
318.896
318.525
318.147
322.848
322.544
322.239
321.931
321.621
321.307
320.989
320.665
320.334
319.997
319.652
319.298
318.936
318.564
318.184
322.851
322.552
322.252
321.95
321.645
321.336
321.022
320.702
320.376
320.042
319.699
319.347
318.985
318.612
318.23
322.854
322.561
322.267
321.971
321.672
321.369
321.061
320.746
320.425
320.095
319.756
319.405
319.044
318.67
318.284
322.857
322.572
322.285
321.996
321.703
321.407
321.106
320.798
320.482
320.158
319.823
319.476
319.115
318.74
318.35
322.861
322.583
322.304
322.023
321.739
321.451
321.157
320.857
320.549
320.231
319.902
319.559
319.201
318.825
318.43
322.866
322.596
322.326
322.054
321.778
321.499
321.215
320.924
320.625
320.317
319.995
319.659
319.304
318.928
318.529
322.87
322.61
322.35
322.087
321.822
321.553
321.279
320.999
320.712
320.414
320.103
319.776
319.428
319.056
318.654
322.875
322.626
322.375
322.123
321.869
321.611
321.35
321.083
320.808
320.525
320.228
319.914
319.578
319.213
318.815
322.881
322.642
322.402
322.161
321.919
321.674
321.425
321.173
320.914
320.648
320.37
320.075
319.756
319.402
319.012
317.71
317.389
317.065
316.737
316.407
316.073
315.736
315.398
315.056
314.713
314.368
314.022
313.674
313.325
312.975
312.625
312.274
311.923
311.572
311.221
310.87
310.52
310.17
309.821
309.472
309.123
308.775
308.428
308.081
307.735
307.389
307.045
306.701
306.359
306.017
305.677
305.337
304.999
304.662
304.325
303.99
303.655
303.322
302.989
302.657
302.326
301.997
301.668
301.341
301.015
300.69
300.366
300.043
299.721
299.4
299.08
298.761
298.443
298.126
297.809
297.494
297.179
296.866
296.553
296.242
295.931
295.622
295.313
295.005
294.698
294.392
294.087
293.782
293.477
293.174
292.87
292.568
292.266
291.965
291.664
291.363
291.063
290.763
290.462
290.162
289.861
289.559
289.256
288.952
288.648
317.715
317.394
317.07
316.742
316.411
316.077
315.74
315.401
315.059
314.716
314.371
314.024
313.676
313.326
312.976
312.625
312.274
311.923
311.571
311.22
310.87
310.519
310.169
309.82
309.471
309.122
308.774
308.427
308.08
307.734
307.388
307.043
306.7
306.357
306.016
305.675
305.336
304.998
304.66
304.324
303.988
303.654
303.32
302.988
302.656
302.325
301.995
301.667
301.339
301.013
300.688
300.364
300.041
299.719
299.399
299.079
298.76
298.442
298.124
297.808
297.492
297.178
296.864
296.552
296.24
295.93
295.62
295.312
295.004
294.697
294.391
294.086
293.781
293.476
293.173
292.87
292.567
292.265
291.964
291.663
291.363
291.063
290.763
290.463
290.162
289.861
289.56
289.257
288.954
288.649
317.726
317.405
317.08
316.751
316.419
316.084
315.747
315.407
315.065
314.721
314.375
314.028
313.679
313.329
312.978
312.626
312.274
311.922
311.571
311.219
310.869
310.518
310.168
309.819
309.47
309.121
308.773
308.425
308.078
307.731
307.386
307.041
306.697
306.354
306.012
305.672
305.333
304.995
304.657
304.321
303.986
303.651
303.318
302.985
302.653
302.322
301.992
301.663
301.336
301.01
300.685
300.361
300.038
299.717
299.396
299.076
298.757
298.439
298.122
297.805
297.489
297.175
296.861
296.549
296.237
295.927
295.618
295.309
295.002
294.695
294.389
294.084
293.779
293.475
293.171
292.868
292.565
292.264
291.963
291.662
291.362
291.063
290.763
290.464
290.164
289.864
289.562
289.26
288.957
288.652
317.743
317.42
317.094
316.764
316.432
316.096
315.758
315.417
315.074
314.729
314.382
314.034
313.684
313.332
312.98
312.628
312.275
311.922
311.57
311.218
310.867
310.516
310.166
309.817
309.468
309.119
308.771
308.423
308.075
307.728
307.382
307.036
306.692
306.349
306.008
305.667
305.328
304.99
304.653
304.317
303.982
303.648
303.314
302.981
302.648
302.317
301.987
301.658
301.331
301.004
300.68
300.356
300.034
299.713
299.392
299.073
298.754
298.435
298.118
297.801
297.485
297.17
296.857
296.544
296.233
295.923
295.614
295.306
294.999
294.692
294.386
294.081
293.776
293.472
293.168
292.865
292.563
292.261
291.96
291.66
291.361
291.062
290.764
290.465
290.166
289.867
289.566
289.264
288.961
288.656
317.765
317.441
317.114
316.783
316.448
316.111
315.772
315.43
315.086
314.74
314.392
314.042
313.69
313.337
312.984
312.629
312.275
311.921
311.568
311.216
310.864
310.513
310.163
309.814
309.465
309.116
308.768
308.419
308.071
307.724
307.377
307.031
306.686
306.343
306.001
305.661
305.322
304.984
304.648
304.312
303.977
303.643
303.309
302.975
302.643
302.311
301.98
301.651
301.323
300.997
300.673
300.35
300.028
299.707
299.387
299.068
298.749
298.431
298.113
297.796
297.48
297.164
296.85
296.538
296.227
295.917
295.608
295.301
294.994
294.688
294.383
294.078
293.773
293.469
293.165
292.861
292.559
292.257
291.957
291.657
291.359
291.061
290.764
290.467
290.17
289.871
289.572
289.271
288.968
288.663
317.794
317.468
317.138
316.805
316.469
316.13
315.789
315.446
315.101
314.753
314.404
314.052
313.698
313.344
312.988
312.631
312.275
311.92
311.565
311.212
310.86
310.51
310.16
309.811
309.462
309.114
308.765
308.416
308.067
307.718
307.37
307.023
306.678
306.334
305.992
305.652
305.314
304.977
304.641
304.306
303.972
303.637
303.303
302.969
302.636
302.303
301.972
301.642
301.314
300.988
300.664
300.341
300.02
299.701
299.381
299.063
298.744
298.425
298.107
297.789
297.472
297.156
296.842
296.529
296.218
295.909
295.601
295.295
294.989
294.684
294.379
294.074
293.769
293.465
293.16
292.856
292.553
292.252
291.952
291.653
291.356
291.06
290.765
290.47
290.174
289.878
289.58
289.28
288.977
288.672
317.829
317.5
317.168
316.832
316.493
316.152
315.81
315.465
315.119
314.77
314.419
314.065
313.709
313.351
312.992
312.633
312.274
311.916
311.56
311.206
310.854
310.504
310.156
309.807
309.459
309.111
308.762
308.412
308.062
307.712
307.362
307.013
306.667
306.322
305.98
305.641
305.304
304.968
304.634
304.3
303.966
303.632
303.297
302.962
302.627
302.293
301.961
301.63
301.302
300.976
300.652
300.331
300.011
299.693
299.375
299.057
298.738
298.42
298.101
297.782
297.464
297.147
296.831
296.518
296.208
295.899
295.592
295.287
294.983
294.679
294.375
294.071
293.766
293.46
293.155
292.85
292.546
292.244
291.944
291.647
291.351
291.057
290.765
290.473
290.18
289.887
289.591
289.292
288.99
288.685
317.871
317.539
317.202
316.863
316.521
316.178
315.833
315.487
315.14
314.79
314.437
314.081
313.722
313.361
312.997
312.634
312.271
311.91
311.552
311.198
310.846
310.497
310.15
309.804
309.457
309.11
308.76
308.41
308.057
307.704
307.352
307.001
306.652
306.307
305.965
305.627
305.291
304.958
304.626
304.293
303.961
303.627
303.291
302.955
302.618
302.282
301.947
301.615
301.286
300.96
300.638
300.318
300.001
299.685
299.368
299.052
298.734
298.414
298.094
297.773
297.453
297.134
296.818
296.504
296.194
295.886
295.581
295.278
294.976
294.674
294.372
294.068
293.762
293.456
293.149
292.842
292.537
292.234
291.934
291.637
291.343
291.053
290.764
290.476
290.188
289.899
289.606
289.31
289.009
288.703
317.921
317.583
317.241
316.897
316.55
316.204
315.858
315.512
315.164
314.814
314.46
314.102
313.739
313.372
313.003
312.634
312.265
311.9
311.54
311.185
310.834
310.488
310.143
309.8
309.456
309.11
308.761
308.409
308.054
307.697
307.34
306.985
306.633
306.286
305.945
305.608
305.276
304.946
304.617
304.288
303.957
303.624
303.287
302.948
302.608
302.268
301.929
301.595
301.265
300.939
300.619
300.303
299.989
299.676
299.363
299.048
298.731
298.411
298.088
297.764
297.44
297.118
296.8
296.485
296.175
295.87
295.568
295.268
294.97
294.671
294.37
294.067
293.761
293.452
293.142
292.832
292.524
292.219
291.919
291.623
291.332
291.045
290.762
290.48
290.198
289.914
289.627
289.335
289.035
288.728
317.98
317.635
317.285
316.932
316.58
316.231
315.884
315.538
315.192
314.843
314.489
314.129
313.761
313.388
313.01
312.631
312.255
311.884
311.52
311.165
310.816
310.474
310.136
309.798
309.459
309.115
308.767
308.412
308.052
307.689
307.325
306.963
306.607
306.259
305.918
305.584
305.256
304.932
304.609
304.285
303.957
303.625
303.286
302.944
302.597
302.251
301.907
301.568
301.236
300.912
300.595
300.283
299.975
299.668
299.36
299.048
298.732
298.41
298.084
297.755
297.425
297.098
296.775
296.459
296.151
295.848
295.551
295.257
294.964
294.67
294.372
294.07
293.762
293.45
293.135
292.82
292.506
292.198
291.896
291.602
291.315
291.034
290.757
290.484
290.21
289.936
289.656
289.369
289.072
288.764
318.051
317.695
317.331
316.967
316.607
316.254
315.907
315.566
315.224
314.88
314.527
314.165
313.792
313.409
313.019
312.626
312.237
311.857
311.489
311.134
310.79
310.455
310.126
309.798
309.467
309.128
308.781
308.423
308.056
307.682
307.306
306.934
306.571
306.22
305.88
305.551
305.231
304.917
304.603
304.287
303.964
303.633
303.293
302.943
302.588
302.23
301.877
301.532
301.198
300.875
300.563
300.259
299.96
299.662
299.361
299.055
298.74
298.417
298.084
297.746
297.406
297.07
296.742
296.424
296.116
295.819
295.529
295.244
294.96
294.673
294.381
294.08
293.771
293.453
293.129
292.804
292.482
292.168
291.864
291.571
291.288
291.015
290.749
290.486
290.225
289.963
289.696
289.418
289.126
288.816
318.139
317.765
317.379
316.995
316.623
316.267
315.924
315.592
315.262
314.927
314.58
314.218
313.838
313.441
313.031
312.614
312.205
311.813
311.44
311.087
310.751
310.429
310.115
309.803
309.484
309.155
308.81
308.448
308.07
307.679
307.282
306.893
306.518
306.163
305.826
305.506
305.199
304.9
304.602
304.298
303.984
303.656
303.312
302.952
302.581
302.204
301.834
301.479
301.142
300.822
300.519
300.227
299.943
299.66
299.372
299.073
298.762
298.435
298.093
297.74
297.382
297.031
296.693
296.372
296.068
295.779
295.501
295.23
294.961
294.685
294.401
294.103
293.791
293.464
293.126
292.783
292.446
292.122
291.815
291.524
291.249
290.986
290.734
290.487
290.243
289.999
289.75
289.489
289.206
288.893
318.253
317.854
317.423
317.007
316.617
316.26
315.927
315.615
315.308
314.989
314.655
314.295
313.91
313.493
313.051
312.59
312.152
311.74
311.363
311.014
310.693
310.39
310.103
309.816
309.518
309.202
308.862
308.498
308.102
307.683
307.246
306.83
306.438
306.08
305.748
305.443
305.155
304.881
304.608
304.324
304.024
303.701
303.354
302.979
302.581
302.167
301.772
301.401
301.062
300.747
300.457
300.184
299.924
299.666
299.396
299.111
298.804
298.476
298.119
297.742
297.348
296.973
296.62
296.298
295.998
295.722
295.462
295.215
294.968
294.711
294.44
294.147
293.833
293.492
293.13
292.752
292.392
292.053
291.743
291.455
291.191
290.943
290.711
290.485
290.259
290.04
289.822
289.591
289.327
289.014
318.417
317.99
317.443
316.984
316.562
316.217
315.9
315.632
315.37
315.075
314.767
314.408
314.029
313.579
313.099
312.535
312.059
311.616
311.246
310.9
310.607
310.33
310.088
309.848
309.574
309.287
308.95
308.593
308.168
307.714
307.181
306.73
306.31
305.96
305.632
305.353
305.09
304.861
304.632
304.372
304.098
303.778
303.439
303.036
302.606
302.101
301.674
301.277
300.946
300.635
300.371
300.122
299.904
299.688
299.441
299.182
298.878
298.557
298.174
297.766
297.287
296.882
296.504
296.19
295.894
295.643
295.405
295.198
294.992
294.757
294.51
294.22
293.914
293.548
293.157
292.697
292.307
291.943
291.639
291.353
291.109
290.879
290.679
290.482
290.264
290.081
289.915
289.738
289.52
289.217
318.678
318.298
317.342
316.905
316.396
316.133
315.805
315.64
315.48
315.178
314.952
314.548
314.252
313.707
313.268
312.354
311.919
311.385
311.097
310.711
310.498
310.218
310.073
309.928
309.651
309.442
309.065
308.787
308.274
307.86
306.997
306.585
306.081
305.809
305.444
305.242
304.977
304.839
304.702
304.438
304.24
303.882
303.618
303.131
302.739
301.923
301.534
301.058
300.801
300.456
300.265
300.014
299.883
299.753
299.504
299.316
298.977
298.727
298.266
297.894
297.12
296.751
296.298
296.054
295.726
295.544
295.305
295.181
295.057
294.82
294.641
294.319
294.08
293.641
293.284
292.54
292.185
291.747
291.509
291.188
291.009
290.769
290.643
290.508
290.219
290.099
290.022
289.946
289.835
289.607
288.312
287.944
287.576
287.207
286.838
286.468
286.1
285.732
285.365
284.998
284.633
284.269
283.906
283.543
283.181
288.313
287.945
287.577
287.207
286.837
286.468
286.099
285.731
285.364
284.997
284.632
284.268
283.905
283.543
283.181
288.316
287.947
287.578
287.208
286.837
286.467
286.097
285.729
285.361
284.995
284.63
284.267
283.904
283.542
283.181
288.319
287.95
287.58
287.208
286.837
286.465
286.095
285.726
285.358
284.992
284.627
284.264
283.902
283.541
283.18
288.325
287.955
287.582
287.209
286.836
286.463
286.091
285.721
285.353
284.987
284.623
284.26
283.899
283.539
283.18
288.333
287.961
287.586
287.21
286.834
286.459
286.086
285.715
285.346
284.98
284.617
284.255
283.895
283.537
283.179
288.345
287.969
287.591
287.211
286.832
286.454
286.078
285.706
285.337
284.971
284.608
284.248
283.89
283.533
283.178
288.36
287.98
287.597
287.212
286.828
286.446
286.068
285.694
285.324
284.959
284.597
284.239
283.883
283.529
283.176
288.382
287.996
287.604
287.212
286.821
286.434
286.053
285.677
285.308
284.943
284.583
284.227
283.874
283.524
283.174
288.412
288.016
287.613
287.21
286.81
286.417
286.032
285.655
285.285
284.923
284.565
284.213
283.864
283.517
283.172
288.455
288.043
287.622
287.204
286.793
286.393
286.004
285.625
285.257
284.896
284.543
284.194
283.85
283.509
283.169
288.517
288.077
287.63
287.19
286.765
286.357
285.964
285.586
285.22
284.863
284.514
284.172
283.834
283.499
283.166
288.607
288.119
287.63
287.162
286.721
286.305
285.911
285.535
285.173
284.822
284.48
284.145
283.815
283.487
283.162
288.742
288.162
287.61
287.107
286.651
286.231
285.84
285.469
285.115
284.773
284.439
284.113
283.792
283.474
283.158
288.937
288.177
287.54
287.007
286.544
286.13
285.747
285.388
285.045
284.714
284.392
284.076
283.766
283.458
283.153
322.886
322.657
322.428
322.198
321.967
321.734
321.499
321.261
321.019
320.771
320.515
320.245
319.951
319.61
319.169
322.891
322.671
322.452
322.232
322.012
321.79
321.568
321.344
321.118
320.889
320.656
320.417
320.162
319.868
319.43
322.895
322.686
322.477
322.267
322.057
321.848
321.638
321.428
321.219
321.01
320.803
320.598
320.401
320.228
320.168
322.9
322.701
322.501
322.302
322.103
321.905
321.708
321.512
321.319
321.13
320.947
320.775
320.624
320.512
320.469
322.905
322.715
322.525
322.336
322.148
321.961
321.777
321.595
321.417
321.245
321.084
320.938
320.818
320.747
320.766
322.91
322.729
322.549
322.37
322.192
322.017
321.843
321.674
321.51
321.354
321.209
321.082
320.98
320.918
320.904
322.914
322.743
322.573
322.403
322.235
322.07
321.908
321.75
321.598
321.455
321.323
321.207
321.115
321.056
321.048
322.919
322.757
322.595
322.435
322.277
322.121
321.969
321.821
321.68
321.547
321.425
321.317
321.227
321.158
321.114
322.923
322.77
322.617
322.465
322.316
322.17
322.027
321.889
321.757
321.632
321.517
321.414
321.323
321.244
321.167
322.927
322.782
322.637
322.494
322.354
322.216
322.081
321.952
321.828
321.711
321.602
321.502
321.411
321.329
321.256
322.931
322.794
322.657
322.522
322.389
322.259
322.133
322.011
321.894
321.784
321.68
321.584
321.494
321.407
321.315
322.935
322.805
322.676
322.548
322.423
322.3
322.181
322.066
321.956
321.852
321.754
321.661
321.574
321.489
321.41
322.938
322.815
322.693
322.573
322.454
322.338
322.226
322.118
322.015
321.916
321.823
321.735
321.651
321.567
321.472
322.942
322.825
322.71
322.596
322.484
322.375
322.269
322.167
322.069
321.977
321.889
321.807
321.729
321.652
321.578
322.945
322.835
322.725
322.617
322.512
322.408
322.308
322.212
322.12
322.034
321.952
321.876
321.805
321.736
321.655
322.948
322.843
322.74
322.638
322.537
322.44
322.345
322.255
322.168
322.087
322.011
321.941
321.88
321.829
321.806
322.95
322.851
322.753
322.657
322.562
322.469
322.38
322.294
322.212
322.136
322.065
322.001
321.946
321.903
321.874
322.953
322.859
322.766
322.674
322.584
322.496
322.412
322.33
322.253
322.181
322.115
322.055
322.005
321.968
321.951
322.955
322.866
322.778
322.69
322.605
322.522
322.441
322.364
322.291
322.222
322.159
322.103
322.055
322.017
321.989
322.957
322.873
322.789
322.706
322.624
322.545
322.468
322.395
322.325
322.259
322.199
322.145
322.098
322.061
322.037
322.96
322.879
322.799
322.72
322.642
322.567
322.493
322.423
322.356
322.293
322.234
322.181
322.134
322.095
322.061
322.961
322.884
322.808
322.733
322.659
322.586
322.516
322.449
322.384
322.323
322.266
322.213
322.166
322.124
322.091
322.963
322.89
322.817
322.745
322.674
322.605
322.538
322.473
322.41
322.351
322.295
322.242
322.193
322.148
322.105
322.965
322.895
322.825
322.756
322.688
322.622
322.557
322.495
322.434
322.376
322.321
322.268
322.218
322.169
322.118
322.966
322.899
322.832
322.766
322.701
322.637
322.575
322.515
322.457
322.4
322.346
322.293
322.242
322.191
322.142
322.968
322.903
322.839
322.776
322.713
322.652
322.592
322.534
322.477
322.422
322.369
322.317
322.265
322.213
322.158
322.969
322.907
322.846
322.785
322.725
322.666
322.608
322.552
322.497
322.444
322.391
322.34
322.289
322.238
322.186
322.97
322.911
322.852
322.793
322.736
322.679
322.623
322.569
322.516
322.464
322.413
322.363
322.313
322.262
322.206
322.971
322.914
322.857
322.801
322.746
322.691
322.637
322.585
322.533
322.483
322.434
322.386
322.338
322.29
322.241
322.972
322.918
322.863
322.809
322.755
322.702
322.651
322.6
322.55
322.502
322.455
322.409
322.364
322.318
322.267
322.973
322.921
322.868
322.816
322.764
322.713
322.663
322.614
322.566
322.52
322.475
322.431
322.39
322.351
322.321
322.974
322.923
322.873
322.822
322.772
322.723
322.675
322.628
322.582
322.537
322.494
322.452
322.413
322.378
322.346
322.975
322.926
322.877
322.828
322.78
322.733
322.686
322.64
322.596
322.553
322.511
322.471
322.435
322.402
322.375
322.976
322.928
322.881
322.834
322.787
322.742
322.696
322.652
322.609
322.567
322.527
322.489
322.453
322.421
322.391
322.977
322.931
322.885
322.839
322.794
322.75
322.706
322.663
322.621
322.581
322.542
322.504
322.469
322.438
322.41
322.978
322.933
322.889
322.845
322.801
322.758
322.715
322.674
322.633
322.593
322.555
322.519
322.484
322.451
322.421
322.978
322.935
322.892
322.849
322.807
322.765
322.724
322.683
322.644
322.605
322.567
322.531
322.496
322.464
322.434
322.979
322.937
322.895
322.854
322.813
322.772
322.732
322.693
322.654
322.616
322.579
322.543
322.508
322.474
322.44
322.98
322.939
322.898
322.858
322.818
322.779
322.74
322.701
322.663
322.626
322.59
322.554
322.518
322.483
322.446
322.98
322.941
322.901
322.862
322.823
322.785
322.747
322.709
322.672
322.636
322.6
322.565
322.529
322.494
322.458
322.981
322.942
322.904
322.866
322.828
322.791
322.754
322.717
322.681
322.645
322.61
322.575
322.54
322.504
322.466
322.981
322.944
322.907
322.869
322.833
322.796
322.76
322.725
322.689
322.655
322.62
322.586
322.551
322.516
322.48
322.982
322.945
322.909
322.873
322.837
322.802
322.766
322.732
322.697
322.664
322.63
322.597
322.563
322.528
322.49
322.982
322.947
322.911
322.876
322.841
322.807
322.772
322.739
322.705
322.672
322.64
322.608
322.575
322.542
322.509
322.983
322.948
322.913
322.879
322.845
322.811
322.778
322.745
322.713
322.681
322.649
322.619
322.588
322.557
322.523
322.983
322.949
322.915
322.882
322.849
322.816
322.783
322.751
322.72
322.689
322.659
322.629
322.601
322.574
322.551
322.983
322.95
322.917
322.885
322.852
322.82
322.788
322.757
322.727
322.697
322.668
322.64
322.613
322.588
322.565
322.984
322.951
322.919
322.887
322.855
322.824
322.793
322.763
322.733
322.704
322.676
322.649
322.623
322.6
322.58
322.984
322.952
322.921
322.889
322.858
322.827
322.797
322.768
322.739
322.71
322.683
322.657
322.632
322.61
322.588
322.984
322.953
322.922
322.891
322.861
322.831
322.801
322.772
322.744
322.716
322.69
322.664
322.64
322.618
322.599
322.985
322.954
322.923
322.893
322.863
322.834
322.805
322.776
322.748
322.721
322.695
322.671
322.647
322.625
322.604
322.985
322.955
322.925
322.895
322.865
322.836
322.808
322.78
322.752
322.726
322.7
322.676
322.653
322.631
322.611
322.985
322.955
322.926
322.896
322.867
322.838
322.81
322.783
322.756
322.73
322.705
322.681
322.657
322.635
322.614
322.985
322.956
322.926
322.897
322.868
322.84
322.812
322.785
322.759
322.733
322.708
322.684
322.661
322.639
322.616
322.985
322.956
322.927
322.898
322.87
322.842
322.814
322.787
322.761
322.736
322.711
322.688
322.665
322.643
322.621
322.985
322.956
322.927
322.899
322.87
322.843
322.815
322.789
322.763
322.738
322.714
322.69
322.668
322.646
322.624
322.985
322.956
322.928
322.899
322.871
322.843
322.816
322.79
322.764
322.74
322.716
322.693
322.671
322.649
322.629
322.985
322.956
322.928
322.899
322.871
322.843
322.817
322.79
322.765
322.741
322.717
322.694
322.673
322.652
322.631
322.985
322.956
322.927
322.899
322.871
322.843
322.816
322.79
322.765
322.741
322.718
322.695
322.674
322.654
322.636
322.985
322.956
322.927
322.898
322.87
322.843
322.816
322.79
322.765
322.741
322.718
322.696
322.675
322.656
322.637
322.985
322.956
322.926
322.897
322.869
322.841
322.814
322.788
322.763
322.739
322.717
322.695
322.675
322.656
322.639
322.985
322.955
322.925
322.896
322.868
322.84
322.812
322.786
322.761
322.737
322.715
322.694
322.674
322.656
322.639
322.985
322.954
322.924
322.895
322.866
322.837
322.81
322.784
322.758
322.735
322.712
322.691
322.672
322.654
322.638
322.984
322.953
322.923
322.893
322.863
322.834
322.807
322.78
322.755
322.731
322.708
322.688
322.669
322.651
322.636
322.984
322.952
322.921
322.89
322.86
322.831
322.802
322.775
322.75
322.726
322.704
322.683
322.664
322.647
322.631
322.984
322.951
322.919
322.887
322.856
322.826
322.797
322.77
322.744
322.72
322.698
322.677
322.659
322.642
322.628
322.983
322.95
322.916
322.884
322.852
322.821
322.791
322.763
322.737
322.712
322.69
322.67
322.652
322.636
322.622
322.983
322.948
322.913
322.88
322.847
322.815
322.784
322.755
322.728
322.704
322.681
322.661
322.644
322.63
322.618
322.982
322.946
322.91
322.875
322.841
322.808
322.776
322.746
322.719
322.693
322.67
322.65
322.634
322.621
322.613
322.981
322.943
322.906
322.87
322.834
322.8
322.767
322.736
322.707
322.681
322.657
322.637
322.621
322.609
322.601
322.98
322.941
322.902
322.864
322.826
322.791
322.756
322.724
322.694
322.666
322.642
322.622
322.606
322.595
322.591
322.979
322.938
322.897
322.857
322.818
322.78
322.744
322.71
322.679
322.65
322.625
322.603
322.586
322.575
322.57
322.978
322.935
322.892
322.85
322.808
322.769
322.731
322.695
322.662
322.631
322.604
322.581
322.563
322.552
322.552
322.977
322.931
322.886
322.841
322.798
322.756
322.716
322.678
322.643
322.61
322.581
322.555
322.535
322.521
322.515
322.976
322.927
322.879
322.832
322.787
322.742
322.7
322.66
322.622
322.587
322.555
322.526
322.502
322.484
322.481
322.974
322.923
322.872
322.823
322.774
322.727
322.682
322.639
322.599
322.561
322.526
322.494
322.465
322.437
322.404
322.973
322.918
322.865
322.812
322.76
322.711
322.663
322.617
322.574
322.534
322.496
322.46
322.427
322.395
322.364
322.971
322.913
322.856
322.8
322.746
322.693
322.642
322.593
322.547
322.504
322.464
322.425
322.388
322.351
322.309
322.969
322.908
322.847
322.788
322.73
322.673
322.619
322.568
322.519
322.473
322.43
322.389
322.35
322.312
322.276
322.967
322.902
322.838
322.774
322.712
322.653
322.595
322.54
322.488
322.44
322.394
322.352
322.311
322.271
322.226
322.965
322.896
322.827
322.76
322.694
322.63
322.569
322.511
322.456
322.405
322.357
322.313
322.271
322.232
322.196
322.963
322.889
322.816
322.744
322.674
322.606
322.541
322.479
322.421
322.367
322.317
322.272
322.23
322.192
322.15
322.961
322.882
322.804
322.727
322.652
322.58
322.51
322.444
322.383
322.326
322.274
322.228
322.188
322.153
322.124
322.958
322.874
322.791
322.709
322.629
322.551
322.477
322.407
322.341
322.281
322.228
322.181
322.141
322.11
322.092
322.955
322.866
322.777
322.689
322.604
322.521
322.441
322.366
322.296
322.232
322.176
322.129
322.09
322.057
322.018
322.952
322.857
322.762
322.669
322.577
322.488
322.403
322.322
322.246
322.178
322.119
322.07
322.034
322.008
321.985
322.949
322.847
322.746
322.646
322.548
322.453
322.361
322.273
322.191
322.118
322.054
322.004
321.97
321.956
321.961
322.946
322.837
322.73
322.623
322.518
322.415
322.316
322.221
322.131
322.05
321.98
321.925
321.893
321.892
321.932
322.942
322.827
322.712
322.598
322.486
322.375
322.268
322.164
322.066
321.975
321.895
321.832
321.795
321.801
321.879
322.939
322.816
322.694
322.573
322.453
322.334
322.217
322.104
321.995
321.892
321.798
321.72
321.666
321.659
321.759
289.141
288.08
287.381
286.849
286.403
286.007
285.642
285.298
284.969
284.652
284.342
284.038
283.739
283.442
283.147
288.767
287.739
287.12
286.646
286.24
285.873
285.531
285.206
284.893
284.589
284.292
284.001
283.712
283.426
283.142
287.29
287.114
286.758
286.395
286.05
285.722
285.408
285.105
284.811
284.523
284.24
283.96
283.684
283.41
283.136
286.709
286.616
286.4
286.132
285.848
285.562
285.278
284.999
284.724
284.452
284.184
283.918
283.655
283.392
283.131
286.159
286.202
286.079
285.88
285.647
285.399
285.145
284.889
284.634
284.38
284.127
283.875
283.624
283.374
283.125
285.911
285.904
285.81
285.653
285.457
285.241
285.013
284.78
284.544
284.306
284.068
283.831
283.593
283.356
283.119
285.653
285.665
285.586
285.452
285.282
285.09
284.885
284.672
284.454
284.233
284.01
283.786
283.562
283.337
283.112
285.537
285.489
285.4
285.275
285.122
284.949
284.763
284.568
284.367
284.161
283.953
283.743
283.531
283.319
283.106
285.445
285.343
285.239
285.117
284.975
284.818
284.648
284.468
284.282
284.091
283.896
283.699
283.501
283.301
283.1
285.287
285.197
285.092
284.973
284.84
284.695
284.538
284.373
284.201
284.023
283.842
283.658
283.471
283.283
283.094
285.184
285.063
284.953
284.838
284.714
284.579
284.435
284.282
284.123
283.959
283.79
283.617
283.442
283.266
283.089
285.015
284.922
284.818
284.71
284.594
284.47
284.337
284.197
284.05
283.897
283.739
283.578
283.415
283.25
283.083
284.906
284.787
284.687
284.587
284.481
284.367
284.245
284.116
283.98
283.838
283.692
283.542
283.389
283.234
283.078
284.721
284.641
284.556
284.468
284.373
284.27
284.158
284.039
283.914
283.783
283.646
283.507
283.364
283.219
283.073
284.587
284.497
284.427
284.353
284.27
284.178
284.077
283.968
283.852
283.73
283.604
283.474
283.34
283.205
283.068
284.327
284.339
284.302
284.245
284.174
284.092
284.001
283.901
283.794
283.682
283.564
283.443
283.318
283.192
283.064
284.211
284.214
284.19
284.146
284.086
284.013
283.93
283.839
283.74
283.636
283.527
283.414
283.298
283.179
283.06
284.084
284.107
284.094
284.058
284.006
283.941
283.866
283.782
283.691
283.594
283.492
283.387
283.278
283.168
283.056
284.021
284.026
284.013
283.981
283.935
283.876
283.807
283.73
283.645
283.555
283.461
283.362
283.261
283.157
283.053
283.946
283.957
283.945
283.915
283.872
283.818
283.754
283.682
283.604
283.52
283.431
283.339
283.244
283.147
283.049
283.908
283.904
283.888
283.859
283.818
283.767
283.707
283.64
283.566
283.488
283.405
283.318
283.229
283.138
283.046
283.865
283.86
283.841
283.811
283.77
283.721
283.665
283.602
283.532
283.459
283.381
283.299
283.216
283.13
283.043
283.844
283.827
283.802
283.769
283.729
283.681
283.627
283.567
283.502
283.432
283.359
283.282
283.203
283.123
283.041
283.827
283.798
283.768
283.733
283.692
283.646
283.594
283.536
283.475
283.408
283.339
283.267
283.192
283.116
283.039
283.798
283.769
283.737
283.701
283.66
283.614
283.564
283.509
283.45
283.387
283.321
283.252
283.182
283.11
283.037
283.779
283.744
283.709
283.672
283.631
283.586
283.537
283.484
283.428
283.368
283.305
283.24
283.173
283.104
283.035
283.749
283.717
283.682
283.645
283.605
283.561
283.514
283.463
283.408
283.351
283.291
283.228
283.164
283.099
283.033
283.73
283.693
283.657
283.621
283.581
283.538
283.492
283.443
283.391
283.335
283.278
283.218
283.157
283.095
283.032
283.699
283.667
283.634
283.598
283.559
283.518
283.473
283.425
283.375
283.322
283.266
283.209
283.151
283.091
283.03
283.677
283.644
283.612
283.577
283.54
283.499
283.456
283.41
283.361
283.31
283.256
283.201
283.145
283.087
283.029
283.638
283.619
283.591
283.559
283.522
283.483
283.441
283.396
283.349
283.299
283.247
283.194
283.14
283.084
283.028
283.621
283.6
283.573
283.542
283.507
283.469
283.428
283.384
283.338
283.29
283.24
283.188
283.135
283.081
283.027
283.605
283.585
283.559
283.529
283.494
283.457
283.417
283.374
283.329
283.282
283.233
283.183
283.131
283.079
283.026
283.597
283.575
283.548
283.518
283.484
283.447
283.407
283.365
283.321
283.275
283.227
283.178
283.128
283.077
283.026
283.59
283.567
283.54
283.509
283.475
283.439
283.399
283.358
283.315
283.269
283.222
283.174
283.125
283.075
283.025
283.587
283.562
283.533
283.502
283.469
283.432
283.393
283.352
283.309
283.265
283.219
283.171
283.123
283.074
283.025
283.585
283.558
283.529