/*--------------------------------*- C++ -*----------------------------------*\
| =========                 |                                                 |
| \\      /  F ield         | OpenFOAM: The Open Source CFD Toolbox           |
|  \\    /   O peration     | Version:  5.x                                   |
|   \\  /    A nd           | Web:      www.OpenFOAM.org                      |
|    \\/     M anipulation  |                                                 |
\*---------------------------------------------------------------------------*/
FoamFile
{
    version     2.0;
    format      ascii;
    class       volScalarField;
    location    "12.6";
    object      gradTy;
}
// * * * * * * * * * * * * * * * * * * * * * * * * * * * * * * * * * * * * * //

dimensions      [0 -1 0 1 0 0 0];

internalField   nonuniform List<scalar> 
6300
(
32284.1
32252.2
32220.2
32188
32155.5
32122.8
32089.7
32056.2
32022.1
31987.6
31952.5
31916.8
31880.5
31843.6
31806.1
0.0533951
0.159689
0.264456
0.366566
0.464729
0.557453
0.643025
0.719531
0.784917
0.837118
0.874242
0.894822
0.898102
0.884313
0.854868
0.0895469
0.26785
0.443721
0.61534
0.780604
0.937044
1.08179
1.21157
1.32284
1.41193
1.47542
1.51055
1.51575
1.4912
1.43924
0.126488
0.378442
0.627236
0.870465
1.10529
1.32832
1.5355
1.72212
1.88292
2.01233
2.10495
2.15619
2.16314
2.12549
2.04639
0.164452
0.492192
0.816311
1.13398
1.44178
1.73544
2.00977
2.25848
2.47436
2.6495
2.77583
2.84611
2.8551
2.8012
2.68794
0.203581
0.609559
1.01183
1.40738
1.79238
2.1619
2.50962
2.82766
3.10654
3.33544
3.50275
3.59728
3.60994
3.53622
3.37895
0.24389
0.730633
1.21406
1.6913
2.15845
2.61013
3.03913
3.43597
3.78869
4.08293
4.30243
4.43027
4.45114
4.35476
4.14063
0.285235
0.855014
1.42249
1.98532
2.53996
3.08104
3.6008
4.08837
4.52929
4.90514
5.19372
5.3702
5.40955
5.29101
5.00516
0.327271
0.9817
1.63554
2.28752
2.93501
3.57327
4.19462
4.7874
5.33495
5.81457
6.19707
6.4472
6.52579
6.39449
6.02439
0.36942
1.10898
1.85043
2.5942
3.33927
4.0824
4.81698
5.53165
6.20849
6.8211
7.33275
7.69565
7.85183
7.7366
7.28487
0.410851
1.23435
2.06301
2.89957
3.74547
4.60005
5.45923
6.31369
7.14625
7.92851
8.61712
9.15067
9.44897
9.41471
8.93047
0.450488
1.35454
2.2677
3.19559
4.14299
5.11308
6.10618
7.11761
8.13427
9.12953
10.0564
10.8406
11.3778
11.541
11.1791
0.487048
1.46562
2.45764
3.47209
4.5178
5.60309
6.73479
7.91628
9.14367
10.3989
11.6381
12.7766
13.6786
14.1869
14.2429
0.519129
1.56325
2.62516
3.71731
4.85302
6.04668
7.3136
8.66903
10.1252
11.684
13.3202
14.9476
16.3677
17.2701
17.7348
0.545344
1.6431
2.76243
3.91896
5.13029
6.41701
7.80389
9.32102
11.0042
12.8918
15.0107
17.3237
19.565
20.7558
18.1124
31771.3
31739.2
31706.7
31673.9
31640.8
31607.4
31573.8
31539.9
31505.8
31471.4
31436.9
31402.2
31367.4
31332.5
31297.5
31262.4
31227.3
31192.2
31157.1
31122
31086.9
31051.9
31016.9
30982
30947.1
30912.2
30877.4
30842.7
30808
30773.4
30738.8
30704.4
30670
30635.7
30601.6
30567.5
30533.6
30499.8
30466.1
30432.4
30398.9
30365.4
30332.1
30298.8
30265.6
30232.5
30199.6
30166.7
30134
30101.4
30068.9
30036.5
30004.2
29972
29939.9
29907.9
29876
29844.2
29812.5
29780.8
29749.3
29717.8
29686.5
29655.2
29624.1
29593
29562.1
29531.2
29500.5
29469.8
29439.2
29408.6
29378.1
29347.7
29317.3
29287
29256.8
29226.6
29196.4
29166.4
29136.3
29106.3
29076.3
29046.3
29016.2
28986.1
28955.9
28925.7
28895.3
28864.9
0.815913
0.773698
0.726957
0.677903
0.628386
0.579641
0.532165
0.485729
0.439562
0.392634
0.344009
0.293165
0.240234
0.186097
0.132325
0.0809528
0.0341508
-0.00615863
-0.0386474
-0.0628299
-0.0791658
-0.0890021
-0.0943688
-0.0976631
-0.101277
-0.107225
-0.116835
-0.130549
-0.14787
-0.167478
-0.187473
-0.205739
-0.220328
-0.229818
-0.233565
-0.231811
-0.225639
-0.216783
-0.207338
-0.199403
-0.194734
-0.194454
-0.198858
-0.207375
-0.21866
-0.230845
-0.241861
-0.249816
-0.253323
-0.25174
-0.245269
-0.234911
-0.222287
-0.20936
-0.198098
-0.190146
-0.186544
-0.187555
-0.192614
-0.200429
-0.209204
-0.21696
-0.221881
-0.222629
-0.21857
-0.209868
-0.197438
-0.182774
-0.167678
-0.153935
-0.142993
-0.13569
-0.132075
-0.13136
-0.132009
-0.131955
-0.128914
-0.120744
-0.105787
-0.0831416
-0.0528354
-0.0158819
0.0257806
0.0694507
0.111912
0.149746
0.179693
0.199015
0.205839
0.199395
1.37072
1.29674
1.21532
1.13062
1.04612
0.96409
0.885314
0.809139
0.733815
0.657081
0.576858
0.491902
0.402274
0.30955
0.216695
0.12763
0.0465742
-0.0227166
-0.0776351
-0.117209
-0.142296
-0.155465
-0.160601
-0.162293
-0.165115
-0.17292
-0.188234
-0.211874
-0.242843
-0.278533
-0.31522
-0.348753
-0.375325
-0.392167
-0.398028
-0.393385
-0.380342
-0.362258
-0.34318
-0.327165
-0.317605
-0.316664
-0.324915
-0.341238
-0.363019
-0.386605
-0.40797
-0.42343
-0.430297
-0.427338
-0.414962
-0.395123
-0.370968
-0.346296
-0.324915
-0.310007
-0.303589
-0.306169
-0.316653
-0.332526
-0.350295
-0.366105
-0.376429
-0.378684
-0.37166
-0.355703
-0.332615
-0.305316
-0.27732
-0.252118
-0.232555
-0.220307
-0.215537
-0.216788
-0.221154
-0.224691
-0.223025
-0.212043
-0.188544
-0.150752
-0.0986249
-0.0339462
0.0397952
0.117702
0.193913
0.262161
0.316425
0.351613
0.364206
0.35275
1.94232
1.83047
1.70837
1.58303
1.46028
1.34383
1.2347
1.13131
1.03008
0.926538
0.816514
0.697355
0.568766
0.433187
0.295602
0.162772
0.042053
-0.0599726
-0.13872
-0.19245
-0.222586
-0.233497
-0.231794
-0.225291
-0.221778
-0.227801
-0.247642
-0.282645
-0.331014
-0.388153
-0.447507
-0.501788
-0.544334
-0.570325
-0.577614
-0.567054
-0.542301
-0.509163
-0.474611
-0.44563
-0.428061
-0.425637
-0.439345
-0.467243
-0.504774
-0.545564
-0.582582
-0.609415
-0.621418
-0.616496
-0.595402
-0.56155
-0.520393
-0.47849
-0.442411
-0.417643
-0.407676
-0.413401
-0.432929
-0.461893
-0.494205
-0.523149
-0.542598
-0.548099
-0.537614
-0.511807
-0.473857
-0.42886
-0.38294
-0.342182
-0.311584
-0.294157
-0.290326
-0.297731
-0.311493
-0.324918
-0.330551
-0.321367
-0.291885
-0.239005
-0.162489
-0.0650612
0.0478113
0.168396
0.287379
0.394712
0.480628
0.536748
0.557202
0.539523
2.53874
2.37891
2.20608
2.03169
1.86536
1.713
1.57581
1.45034
1.32968
1.20531
1.06931
0.91638
0.745314
0.559707
0.367655
0.180472
0.0106103
-0.130751
-0.235832
-0.301665
-0.330562
-0.329692
-0.309899
-0.283986
-0.264707
-0.262783
-0.285218
-0.334167
-0.406557
-0.494582
-0.587099
-0.671722
-0.737184
-0.775415
-0.782902
-0.76116
-0.716337
-0.658102
-0.598022
-0.547662
-0.51671
-0.511378
-0.533342
-0.579378
-0.641835
-0.709957
-0.771858
-0.816754
-0.836913
-0.828941
-0.794213
-0.738495
-0.670891
-0.602299
-0.543618
-0.503964
-0.489168
-0.500757
-0.535617
-0.586439
-0.642965
-0.693865
-0.728851
-0.740532
-0.725632
-0.685398
-0.625243
-0.553736
-0.481124
-0.417614
-0.371646
-0.34843
-0.348934
-0.36952
-0.402315
-0.436366
-0.459414
-0.459922
-0.428916
-0.361293
-0.256466
-0.118416
0.0447216
0.221399
0.397619
0.558107
0.687735
0.773243
0.805111
0.779215
3.16997
2.94605
2.70599
2.46871
2.25028
2.0603
1.9
1.76243
1.63459
1.50081
1.34648
1.16151
0.942793
0.695499
0.432691
0.173227
-0.0618774
-0.253772
-0.389464
-0.46407
-0.481403
-0.453135
-0.396818
-0.333126
-0.282644
-0.262689
-0.284614
-0.351936
-0.459586
-0.594543
-0.73806
-0.869247
-0.969247
-1.02478
-1.03028
-0.988504
-0.909686
-0.8097
-0.707435
-0.621749
-0.568465
-0.557815
-0.592677
-0.667865
-0.770738
-0.883308
-0.985624
-1.05971
-1.09292
-1.07992
-1.02325
-0.932557
-0.822813
-0.711837
-0.617424
-0.554491
-0.532664
-0.554601
-0.61532
-0.70277
-0.799826
-0.887496
-0.948662
-0.971244
-0.95013
-0.887674
-0.792977
-0.6802
-0.566203
-0.467785
-0.398947
-0.368543
-0.378625
-0.423728
-0.491326
-0.56366
-0.620734
-0.643854
-0.618676
-0.537154
-0.398282
-0.207898
0.0221355
0.27506
0.530513
0.765939
0.958378
1.08698
1.1362
1.09896
3.85003
3.53639
3.20184
2.87856
2.59421
2.36485
2.19143
2.06047
1.94805
1.82587
1.66776
1.4552
1.18142
0.853623
0.492903
0.1309
-0.196591
-0.457729
-0.631062
-0.708946
-0.697912
-0.61697
-0.494358
-0.363243
-0.256624
-0.202288
-0.218638
-0.311634
-0.473294
-0.682179
-0.906776
-1.11168
-1.26535
-1.34617
-1.34575
-1.26919
-1.13352
-0.964583
-0.792973
-0.649179
-0.558827
-0.538717
-0.593944
-0.716486
-0.885679
-1.07142
-1.24004
-1.36155
-1.41546
-1.39377
-1.30128
-1.15405
-0.976508
-0.797523
-0.6459
-0.545825
-0.51314
-0.5526
-0.65653
-0.80527
-0.970201
-1.11929
-1.22403
-1.26488
-1.23416
-1.13638
-0.986744
-0.808422
-0.628845
-0.475362
-0.3709
-0.330354
-0.357887
-0.445541
-0.573517
-0.712926
-0.830947
-0.897337
-0.889571
-0.795597
-0.614277
-0.354474
-0.0334134
0.325083
0.692244
1.03568
1.32095
1.51502
1.59179
1.53845
4.60129
4.15681
3.68141
3.23229
2.8589
2.58881
2.42168
2.33179
2.27553
2.20265
2.06745
1.83704
1.4978
1.05915
0.554957
0.0388703
-0.426858
-0.788128
-1.01011
-1.08187
-1.01509
-0.840808
-0.604143
-0.358087
-0.155316
-0.0401005
-0.0422905
-0.172457
-0.418996
-0.747192
-1.10385
-1.42791
-1.66634
-1.78457
-1.77085
-1.63499
-1.40525
-1.12332
-0.838454
-0.599655
-0.44804
-0.411133
-0.498278
-0.697929
-0.976787
-1.28421
-1.56228
-1.76073
-1.84687
-1.80957
-1.65812
-1.41922
-1.13227
-0.843811
-0.600144
-0.440118
-0.389728
-0.457761
-0.633212
-0.884453
-1.16338
-1.41496
-1.59141
-1.66156
-1.61476
-1.45974
-1.22182
-0.938451
-0.653913
-0.412345
-0.250815
-0.194129
-0.250575
-0.409288
-0.639246
-0.892988
-1.11551
-1.2576
-1.2846
-1.17982
-0.943286
-0.58926
-0.142869
0.362627
0.888149
1.38916
1.81485
2.11196
2.23477
2.15832
5.46385
4.82175
4.12311
3.47691
2.97478
2.66446
2.5407
2.55466
2.6269
2.66916
2.6042
2.37558
1.95733
1.35904
0.634132
-0.125684
-0.807548
-1.31911
-1.60548
-1.65427
-1.48709
-1.15448
-0.727453
-0.290601
0.0720711
0.29115
0.318342
0.134295
-0.247113
-0.771227
-1.34785
-1.86745
-2.24042
-2.41298
-2.37182
-2.13599
-1.75212
-1.2863
-0.817598
-0.424588
-0.172076
-0.104914
-0.240607
-0.565313
-1.02676
-1.53928
-1.99915
-2.32166
-2.45602
-2.38974
-2.1409
-1.75357
-1.29023
-0.825593
-0.433943
-0.176537
-0.0957865
-0.208239
-0.500758
-0.923763
-1.39595
-1.81883
-2.11185
-2.22665
-2.15119
-1.90249
-1.52235
-1.07016
-0.617102
-0.234073
0.0202447
0.105006
0.00400397
-0.270444
-0.670722
-1.11801
-1.51588
-1.7836
-1.86941
-1.75375
-1.44149
-0.957054
-0.337433
0.371335
1.11935
1.85111
2.4939
2.9599
3.16468
3.05568
6.51713
5.56825
4.48947
3.51403
2.81428
2.47136
2.46142
2.69356
3.02144
3.29004
3.37663
3.18717
2.67608
1.84127
0.763559
-0.402494
-1.43349
-2.17435
-2.54298
-2.53768
-2.19729
-1.6041
-0.864919
-0.116298
0.506232
0.898719
0.983157
0.725247
0.130266
-0.719657
-1.67395
-2.51814
-3.10309
-3.34917
-3.25311
-2.85019
-2.21699
-1.45344
-0.687744
-0.0472051
0.37079
0.493415
0.28924
-0.235791
-1.00319
-1.87015
-2.63385
-3.1535
-3.35411
-3.23281
-2.8231
-2.19736
-1.45004
-0.702281
-0.0744301
0.341428
0.476368
0.300577
-0.180401
-0.892249
-1.69952
-2.40969
-2.88891
-3.06573
-2.93709
-2.53451
-1.92661
-1.20313
-0.479445
0.129546
0.535467
0.67164
0.508346
0.0495979
-0.6345
-1.41421
-2.10364
-2.57157
-2.74434
-2.61078
-2.18761
-1.51952
-0.660369
0.323529
1.37395
2.44119
3.42752
4.18402
4.54642
4.39519
7.93103
6.50201
4.70789
3.15486
2.13963
1.79844
2.03343
2.6946
3.5013
4.17301
4.54653
4.46192
3.86095
2.67327
1.02019
-0.873797
-2.47722
-3.56562
-4.01895
-3.90363
-3.27154
-2.26394
-1.01598
0.239578
1.27165
1.94988
2.14095
1.80158
0.874759
-0.517795
-2.15861
-3.54214
-4.45372
-4.77805
-4.57626
-3.896
-2.86957
-1.62367
-0.377664
0.650639
1.33899
1.56234
1.28112
0.442738
-0.836248
-2.34971
-3.62
-4.44474
-4.71574
-4.49121
-3.81637
-2.81625
-1.61047
-0.406304
0.590351
1.26392
1.49598
1.24886
0.472407
-0.723323
-2.14293
-3.3331
-4.10145
-4.34466
-4.11745
-3.46219
-2.49732
-1.33639
-0.176629
0.785586
1.43913
1.66951
1.43815
0.694144
-0.460591
-1.84043
-3.01034
-3.78457
-4.0604
-3.88485
-3.2864
-2.35711
-1.16294
0.17993
1.60434
3.14777
4.69211
5.97564
6.66777
6.47836
10.0897
7.95903
4.58103
2.02555
0.495017
0.295356
0.991361
2.48594
4.17549
5.48534
6.37612
6.48019
5.89068
4.17545
1.6237
-1.76353
-4.26257
-5.87141
-6.31376
-6.01372
-4.88651
-3.26992
-1.178
0.917274
2.54661
3.70252
4.0626
3.72384
2.28991
0.0415571
-3.01375
-5.24577
-6.65
-6.96452
-6.58844
-5.44028
-3.83818
-1.79406
0.245906
1.83801
2.97678
3.35783
3.07531
1.75574
-0.331664
-3.17944
-5.24774
-6.53338
-6.79091
-6.39805
-5.27805
-3.73129
-1.76856
0.188481
1.72038
2.82217
3.2056
2.95939
1.72897
-0.232018
-2.91671
-4.86394
-6.07017
-6.30099
-5.91423
-4.83571
-3.35035
-1.46795
0.410649
1.88611
2.95216
3.33227
3.10615
1.93015
0.0374638
-2.56893
-4.48682
-5.71525
-6.02645
-5.76789
-4.86162
-3.57612
-1.87964
-0.0810814
1.66334
3.85303
6.33228
8.61888
10.0586
9.92075
13.8668
11.1865
3.25989
-0.566862
-3.0589
-2.49562
-1.20028
1.99656
5.39646
7.40109
9.33855
9.49721
9.54143
6.88221
3.43029
-3.93224
-7.32982
-9.85693
-9.67764
-9.31494
-7.20617
-4.9604
-1.34482
2.26591
4.50331
6.60118
6.99056
7.22314
4.87782
1.76292
-5.05441
-8.14141
-10.4155
-10.1455
-9.71241
-7.63825
-5.44329
-1.95845
1.51438
3.6782
5.7057
6.10884
6.36287
4.17441
1.26785
-5.13159
-8.00254
-10.1025
-9.80266
-9.35199
-7.35427
-5.24531
-1.91847
1.39547
3.46979
5.41483
5.82193
6.08718
4.03756
1.30142
-4.75245
-7.46182
-9.44348
-9.14663
-8.70712
-6.79509
-4.77512
-1.59402
1.57844
3.57621
5.45293
5.86801
6.142
4.19817
1.56327
-4.2889
-6.9561
-8.96675
-8.81297
-8.58361
-6.98292
-5.38693
-2.74335
-0.264126
1.08116
4.14131
8.24985
12.4817
15.7209
16.1917
20.9172
21.8123
-4.1067
-5.10516
-11.0108
-6.33973
-6.12975
1.21488
8.62662
9.41358
14.8624
12.679
17.0851
10.7304
10.8682
-11.8105
-11.6505
-17.7397
-13.3056
-15.1305
-9.7231
-8.62341
-1.50467
5.59216
6.66091
11.9601
10.1443
14.4346
8.57392
8.81578
-12.4667
-12.2077
-17.8444
-13.5612
-15.1996
-10.0102
-8.90584
-2.10555
4.66783
5.71467
10.7737
9.07457
13.1676
7.62713
7.89711
-12.1648
-11.8676
-17.1272
-13.0316
-14.5337
-9.59069
-8.51308
-2.04981
4.38749
5.40537
10.2221
8.6425
12.5484
7.33474
7.6124
-11.4043
-11.1076
-16.0979
-12.1977
-13.6204
-8.9099
-7.87192
-1.70764
4.43777
5.44062
10.0585
8.60693
12.3715
7.46133
7.72194
-10.5952
-10.3708
-15.335
-11.7083
-13.374
-9.09745
-8.70629
-3.3704
1.18571
-1.97045
2.91994
9.98985
17.7739
25.3698
29.6204
30.6379
71.0321
-47.3758
-2.59322
-34.1989
-3.76128
-21.3333
0.336517
21.3965
4.71297
31.3768
6.37191
40.1243
5.22969
51.1616
-52.5764
-6.97253
-40.7759
-7.9207
-31.3607
-6.03687
-20.9539
-1.63297
17.5988
2.72672
27.5645
4.50534
36.2635
3.48234
46.8638
-50.8989
-7.78422
-39.5578
-8.44988
-30.5188
-6.49961
-20.5705
-2.2139
16.0675
1.97356
25.5735
3.69957
33.8446
2.71279
43.8042
-48.5149
-7.73101
-37.6233
-8.20015
-28.9961
-6.261
-19.5362
-2.14374
15.1835
1.87056
24.2403
3.56391
32.1417
2.72447
41.7072
-45.8673
-7.14023
-35.5544
-7.58378
-27.3657
-5.73623
-18.3506
-1.79409
14.7024
2.09945
23.4039
3.83466
31.0926
3.27859
40.6326
-43.6014
-6.31381
-34.0743
-6.98267
-26.7213
-5.61699
-19.146
-2.87457
13.7412
-16.6091
-1.43995
10.7015
23.3371
39.836
66.3808
28831.3
28794.5
28757.6
28720.7
28683.8
28646.8
28609.9
28573.1
28536.4
28499.8
28463.3
28426.9
28390.6
28354.3
28318.1
0.17821
0.139196
0.0889819
0.0333162
-0.021951
-0.0716649
-0.111878
-0.140056
-0.155043
-0.156863
-0.146466
-0.12546
-0.095891
-0.0600679
-0.0204468
0.31462
0.244403
0.154357
0.0551084
-0.0427127
-0.129948
-0.199784
-0.24804
-0.272999
-0.274989
-0.255881
-0.218605
-0.166761
-0.10433
-0.0354913
0.47965
0.369438
0.228933
0.0754732
-0.0740608
-0.205629
-0.309272
-0.379322
-0.413923
-0.414212
-0.383463
-0.326318
-0.248217
-0.155
-0.0526796
0.689578
0.524767
0.316466
0.0919121
-0.123375
-0.309235
-0.452352
-0.546055
-0.589157
-0.584475
-0.53744
-0.454988
-0.344789
-0.214775
-0.0729061
0.966533
0.723585
0.42025
0.099085
-0.202116
-0.455583
-0.644845
-0.763388
-0.812175
-0.797092
-0.726834
-0.611404
-0.461174
-0.286405
-0.0970759
1.34197
0.98279
0.541865
0.0862942
-0.328591
-0.666135
-0.908058
-1.05048
-1.09906
-1.06488
-0.961401
-0.80262
-0.6021
-0.372595
-0.126068
1.86224
1.32374
0.678127
0.0328183
-0.532408
-0.972308
-1.27078
-1.43139
-1.46872
-1.40198
-1.25127
-1.03557
-0.77201
-0.475807
-0.160669
2.59803
1.77181
0.814081
-0.10074
-0.86155
-1.41991
-1.77134
-1.93561
-1.94243
-1.82304
-1.60612
-1.3164
-0.974559
-0.597954
-0.201472
3.66077
2.35141
0.907121
-0.388307
-1.39314
-2.07445
-2.45907
-2.59728
-2.54235
-2.34161
-2.03379
-1.64933
-1.21187
-0.739977
-0.248736
5.23171
3.06592
0.851304
-0.966467
-2.24826
-3.02566
-3.39323
-3.45208
-3.28808
-2.96728
-2.5381
-2.03526
-1.48363
-0.901343
-0.302233
7.60844
3.82926
0.398645
-2.08061
-3.60776
-4.38669
-4.63611
-4.52973
-4.1906
-3.70133
-3.11606
-2.46998
-1.78605
-1.07953
-0.361084
11.2418
4.24404
-1.00537
-4.14685
-5.71549
-6.27725
-6.23477
-5.84014
-5.24327
-4.53137
-3.75483
-2.94256
-2.11105
-1.26965
-0.423656
16.4732
2.91042
-4.51733
-7.78592
-8.83011
-8.77205
-8.18556
-7.35281
-6.41094
-5.42607
-4.42933
-3.43436
-2.44594
-1.46435
-0.487549
20.925
-4.55826
-12.1884
-13.6494
-13.047
-11.7953
-10.3826
-8.97459
-7.62161
-6.33265
-5.10207
-3.91961
-2.77402
-1.65426
-0.549739
0.563473
1.6983
2.85725
4.05815
5.32171
6.67329
8.14546
9.78178
11.6424
13.812
16.4076
19.5686
23.3314
26.8488
23.9704
0.573956
1.7301
2.91151
4.13701
5.4288
6.81468
8.33149
10.0309
11.9899
14.3304
17.2623
21.1889
27.0155
37.2239
60.2503
0.578722
1.74436
2.93515
4.16983
5.47056
6.86514
8.39069
10.0999
12.0725
14.4383
17.4277
21.4954
27.6695
38.6639
62.8407
0.577798
1.74116
2.9283
4.1568
5.44715
6.82465
8.32235
9.9859
11.882
14.1131
16.8445
20.3446
25.0084
31.0653
36.0021
0.571483
1.72144
2.89273
4.10082
5.36323
6.7007
8.13884
9.71046
11.4587
13.4403
15.7264
18.3844
21.3931
24.3627
26.0584
0.560315
1.68691
2.83161
4.00713
5.22719
6.50684
7.86265
9.31242
10.8733
12.5561
14.3492
16.1766
17.7949
18.5617
16.9278
0.545003
1.63982
2.74909
3.88252
5.04978
6.26009
7.52124
8.83723
10.2033
11.5955
12.9485
14.1132
14.7828
14.4259
12.6331
0.526353
1.58269
2.64979
3.73442
4.84248
5.97806
7.14175
8.32725
9.51525
10.662
11.6788
12.394
12.4823
11.2868
7.0995
0.505187
1.51808
2.53832
3.57006
4.61606
5.67653
6.74713
7.81555
8.85583
9.81897
10.6185
11.1103
11.073
10.2253
8.51843
0.482274
1.44837
2.41887
3.3958
4.37961
5.36798
6.35402
7.3234
8.24998
9.08954
9.77191
10.1943
10.2266
9.76039
8.86989
0.458284
1.37561
2.29495
3.21677
4.13999
5.06105
5.97251
6.861
7.70457
8.46927
9.1059
9.54919
9.72633
9.59015
9.20896
0.43377
1.30145
2.16933
3.03677
3.90187
4.76081
5.60694
6.4298
7.21394
7.93797
8.57415
9.08894
9.44367
9.59008
9.44305
0.409159
1.22715
2.04401
2.85839
3.66804
4.46946
5.25756
6.02551
6.76506
7.46767
8.12671
8.73987
9.30568
9.79379
10.0599
0.384771
1.15365
1.92042
2.68329
3.43993
4.18737
4.92217
5.64094
6.34185
7.02765
7.71114
8.42371
9.22164
10.1517
10.9427
0.360844
1.08161
1.79954
2.51253
3.21821
3.91407
4.59791
5.26877
5.92916
6.58923
7.27539
8.04826
9.04588
10.6061
13.6822
0.337556
1.01154
1.6821
2.34684
3.0033
3.64913
4.28266
4.90389
5.51667
6.13271
6.77942
7.51675
8.47942
10.0079
13.1525
0.315052
0.943849
1.5687
2.1869
2.79576
3.39275
3.97595
4.54487
5.10193
5.6549
6.22052
6.82875
7.52006
8.28737
8.66542
0.293457
0.878899
1.45991
2.03345
2.59647
3.14594
3.67915
4.19408
4.69004
5.1683
5.63203
6.08305
6.50792
6.83718
6.89325
0.272882
0.81703
1.35629
1.88731
2.40657
2.91042
3.39504
3.85647
4.29045
4.69179
5.05236
5.35552
5.56218
5.57669
5.15101
0.253429
0.758551
1.25841
1.74933
2.22739
2.68825
3.12703
3.53791
3.91351
4.2436
4.51256
4.69499
4.74989
4.62188
4.30314
0.235183
0.703725
1.16673
1.62029
2.06014
2.48142
2.87839
3.24384
3.56818
3.83786
4.03284
4.12302
4.0646
3.79952
3.24629
0.218203
0.652742
1.08161
1.50077
1.90577
2.29147
2.65164
2.97832
3.2608
3.48398
3.6259
3.65424
3.52282
3.17727
2.63704
0.202519
0.605697
1.00323
1.39108
1.76481
2.11925
2.44814
2.74349
2.99458
3.18653
3.29784
3.29639
3.12974
2.69021
1.63824
0.188125
0.562575
0.931558
1.2912
1.63723
1.96476
2.26794
2.53938
2.76945
2.94506
3.04809
3.05325
2.92614
2.62847
2.18423
0.174982
0.523249
0.866377
1.20076
1.52249
1.82719
2.10976
2.364
2.58212
2.75399
2.86631
2.90194
2.841
2.66849
2.39463
0.163016
0.487492
0.807269
1.1191
1.41958
1.70499
1.97126
2.21371
2.4269
2.60427
2.73779
2.8177
2.83333
2.77889
2.68
0.152129
0.454996
0.753674
1.04534
1.32712
1.59609
1.84928
2.08374
2.29655
2.485
2.64648
2.77808
2.87433
2.92014
2.86802
0.14221
0.425407
0.704948
0.978436
1.24355
1.49813
1.74032
1.96878
2.18313
2.38444
2.57593
2.76301
2.95036
3.12938
3.25234
0.133138
0.398356
0.660426
0.917346
1.1673
1.40878
1.64088
1.86364
2.07875
2.29069
2.50842
2.74775
3.03217
3.37755
3.67096
0.124802
0.373492
0.619478
0.861095
1.09692
1.32595
1.54792
1.76379
1.97658
2.19293
2.42592
2.70116
3.07166
3.6618
4.82365
0.1171
0.350504
0.581564
0.808865
1.03125
1.24802
1.45921
1.66608
1.87194
2.0836
2.31407
2.58843
2.95861
3.54901
4.72845
0.10995
0.329144
0.546259
0.760046
0.96949
1.17397
1.37349
1.56906
1.76328
1.96121
2.17173
2.40915
2.69263
3.02717
3.26535
0.10329
0.309227
0.513265
0.714243
0.911174
1.10335
1.29051
1.47298
1.65203
1.83007
2.01072
2.19788
2.39118
2.57223
2.68594
0.0970768
0.290629
0.482396
0.671249
0.856158
1.03623
1.21077
1.37929
1.5415
1.69711
1.84518
1.98234
2.09824
2.16405
2.09904
0.0912808
0.273271
0.45355
0.630995
0.804498
0.972952
1.13521
1.28997
1.43554
1.56938
1.68721
1.78158
1.8401
1.84671
1.80543
0.0858819
0.257099
0.426672
0.593478
0.756343
0.913977
1.06486
1.20703
1.33773
1.45277
1.54554
1.6057
1.61799
1.56264
1.41381
0.0808624
0.242071
0.401715
0.558698
0.711821
0.859689
1.00056
1.13206
1.2508
1.35162
1.4265
1.46307
1.44287
1.34347
1.17507
0.0762015
0.228128
0.378605
0.526599
0.670948
0.810262
0.942752
1.06596
1.17633
1.26847
1.33408
1.35987
1.32274
1.17222
0.744033
0.0718717
0.215191
0.357221
0.497032
0.633573
0.765573
0.891394
1.00878
1.1145
1.20375
1.26931
1.30038
1.28134
1.19381
1.04902
0.0678362
0.203151
0.337377
0.469735
0.59935
0.725177
0.845891
0.959707
1.06411
1.15547
1.22849
1.27569
1.2875
1.25517
1.17798
0.0640491
0.191866
0.31883
0.444344
0.567759
0.688333
0.805178
0.917166
1.02279
1.11994
1.20561
1.27556
1.32431
1.34767
1.35697
0.0604576
0.181173
0.301291
0.420412
0.53814
0.654079
0.76784
0.879048
0.987344
1.09237
1.19366
1.29016
1.37876
1.44995
1.4742
0.0570046
0.170896
0.284444
0.397448
0.509763
0.621337
0.732277
0.842954
0.954171
1.0674
1.18503
1.31025
1.44531
1.58482
1.70288
0.0536334
0.160859
0.267975
0.374963
0.481902
0.589038
0.696897
0.806485
0.919603
1.03938
1.17113
1.3235
1.50878
1.73459
1.93852
0.0502909
0.150897
0.251594
0.352513
0.453906
0.556235
0.660318
0.767567
0.88041
1.00305
1.14292
1.31389
1.54411
1.89956
2.56804
0.046932
0.140872
0.23506
0.329735
0.425261
0.522217
0.621542
0.724766
0.834417
0.954743
1.09312
1.26315
1.49247
1.84714
2.52305
0.0435203
0.130675
0.218189
0.306367
0.395622
0.486554
0.580059
0.677505
0.781013
0.893902
1.02135
1.17123
1.3538
1.57164
1.74625
0.0400297
0.120228
0.200857
0.28225
0.364821
0.449107
0.53584
0.626034
0.721098
0.82295
0.934007
1.05662
1.19063
1.32616
1.43443
0.0364427
0.109483
0.182995
0.257317
0.332828
0.409961
0.48922
0.571183
0.656471
0.74561
0.838641
0.934092
1.02641
1.09961
1.10847
0.0327483
0.0984106
0.16457
0.23156
0.299711
0.36934
0.440723
0.514025
0.589171
0.665568
0.741597
0.813741
0.875484
0.917743
0.941907
0.0289391
0.0869931
0.145569
0.204997
0.265568
0.327504
0.390894
0.455589
0.521005
0.585785
0.647254
0.700616
0.738086
0.748447
0.71401
0.0250078
0.0752133
0.125978
0.177641
0.230478
0.284658
0.340161
0.396655
0.453282
0.508303
0.558542
0.598531
0.619516
0.610262
0.575337
0.020945
0.0630452
0.105764
0.14947
0.194458
0.240894
0.288741
0.337631
0.386675
0.434146
0.476952
0.509645
0.521949
0.489908
0.332948
0.0167362
0.050448
0.0848648
0.120411
0.157432
0.196152
0.236597
0.278502
0.321164
0.363229
0.402387
0.43492
0.45518
0.456306
0.44399
0.0123613
0.0373615
0.063182
0.0903268
0.119229
0.150213
0.183441
0.218849
0.256068
0.294334
0.332427
0.36872
0.401702
0.432041
0.468596
0.00779371
0.0237056
0.0405803
0.0590232
0.0795818
0.102717
0.128773
0.157941
0.190247
0.225563
0.263717
0.304822
0.350064
0.403461
0.474883
0.00300094
0.00938157
0.0168902
0.0262511
0.0381459
0.0531953
0.0719443
0.0948567
0.122339
0.154822
0.192963
0.238052
0.292765
0.362366
0.456823
-0.00205471
-0.00572544
-0.00808562
-0.00827974
-0.00547971
0.00110557
0.012226
0.0286005
0.0509598
0.0801551
0.117384
0.164604
0.225131
0.304015
0.405326
-0.00741487
-0.0217422
-0.034565
-0.044889
-0.0517328
-0.0541322
-0.0511393
-0.04181
-0.0251643
-8.84696e-05
0.0348716
0.081917
0.144753
0.230093
0.352322
-0.0131238
-0.0388034
-0.0627791
-0.0839141
-0.101071
-0.113113
-0.118903
-0.117299
-0.10714
-0.0871935
-0.056031
-0.0117321
0.0487517
0.130557
0.238721
-0.019227
-0.0570476
-0.0929653
-0.125701
-0.15396
-0.176435
-0.1918
-0.198728
-0.195911
-0.182085
-0.156053
-0.116617
-0.0620524
0.0127233
0.132313
-0.0257698
-0.076613
-0.125361
-0.170595
-0.210866
-0.244692
-0.270553
-0.286923
-0.292325
-0.285449
-0.26538
-0.232006
-0.186888
-0.136226
-0.106754
-0.032796
-0.0976332
-0.160196
-0.218934
-0.272248
-0.318478
-0.355896
-0.382734
-0.397263
-0.397972
-0.383945
-0.355545
-0.315569
-0.270456
-0.226065
-0.0403463
-0.120233
-0.197686
-0.271038
-0.338549
-0.398382
-0.448584
-0.487091
-0.511795
-0.520727
-0.512488
-0.487122
-0.447813
-0.404182
-0.380967
-0.0484564
-0.144521
-0.238024
-0.327198
-0.410181
-0.484973
-0.549391
-0.601031
-0.637277
-0.655405
-0.652922
-0.628378
-0.583054
-0.523726
-0.462773
-0.0571554
-0.170588
-0.281368
-0.387656
-0.4875
-0.578768
-0.65907
-0.725661
-0.77534
-0.804393
-0.808673
-0.784062
-0.728019
-0.644396
-0.558896
-0.0664638
-0.198498
-0.327831
-0.452589
-0.570773
-0.680176
-0.77827
-0.862033
-0.927724
-0.970583
-0.984485
-0.961573
-0.892134
-0.766367
-0.591655
-0.0763926
-0.228283
-0.37747
-0.522086
-0.660142
-0.789438
-0.907421
-1.01095
-1.09596
-1.15688
-1.18586
-1.17139
-1.09536
-0.922325
-0.544597
-0.0869426
-0.259945
-0.430284
-0.596138
-0.755593
-0.906555
-1.04661
-1.17274
-1.28092
-1.36536
-1.4174
-1.42396
-1.36596
-1.22043
-0.991612
-0.0981059
-0.293455
-0.486212
-0.674634
-0.85694
-1.03125
-1.19545
-1.34699
-1.48237
-1.59634
-1.68053
-1.72135
-1.69734
-1.57636
-1.30268
-0.109868
-0.328765
-0.54515
-0.757378
-0.96384
-1.16295
-1.3531
-1.53247
-1.69867
-1.84799
-1.97378
-2.06376
-2.09607
-2.03832
-1.87871
-0.122214
-0.365819
-0.606973
-0.844124
-1.07584
-1.30089
-1.51823
-1.72708
-1.92671
-2.11598
-2.2919
-2.44623
-2.55734
-2.57103
-2.34705
-0.135133
-0.404573
-0.671576
-0.934643
-1.19249
-1.44416
-1.68926
-1.92808
-2.16195
-2.39323
-2.625
-2.8587
-3.08625
-3.26877
-3.31351
-0.148623
-0.445021
-0.738913
-1.02879
-1.31341
-1.59201
-1.86463
-2.13254
-2.39897
-2.67015
-2.95676
-3.27544
-3.64643
-4.0622
-4.27151
-0.162704
-0.487207
-0.80904
-1.12658
-1.4385
-1.74402
-2.04327
-2.33802
-2.6327
-2.93635
-3.26625
-3.65586
-4.17551
-4.99901
-6.66589
-0.177412
-0.531247
-0.882147
-1.22828
-1.56805
-1.90037
-2.22505
-2.54355
-2.86019
-3.18431
-3.53427
-3.94597
-4.49359
-5.35013
-6.9925
-0.192807
-0.577325
-0.958567
-1.33439
-1.70277
-2.06202
-2.41111
-2.75037
-3.0825
-3.41433
-3.75943
-4.14168
-4.59713
-5.15554
-5.68795
-0.208961
-0.625678
-1.03875
-1.44566
-1.84384
-2.23072
-2.60401
-2.96214
-3.30501
-3.63512
-3.95879
-4.28655
-4.62917
-4.97899
-5.26266
-0.225953
-0.676563
-1.12321
-1.56301
-1.99275
-2.40886
-2.80743
-3.18449
-3.53638
-3.86039
-4.1553
-4.42111
-4.6562
-4.8484
-4.95321
-0.243845
-0.7302
-1.21242
-1.68733
-2.15113
-2.59917
-3.0258
-3.42433
-3.78712
-4.10587
-4.37201
-4.57699
-4.71303
-4.77848
-4.80581
-0.262664
-0.786707
-1.30671
-1.81938
-2.32045
-2.80434
-3.26368
-3.68898
-4.06844
-4.38789
-4.63119
-4.78075
-4.81887
-4.73503
-4.56192
-0.282375
-0.846017
-1.4061
-1.95947
-2.50171
-3.02656
-3.52518
-3.98548
-4.39143
-4.72279
-4.95546
-5.06191
-5.0094
-4.75359
-4.29915
-0.302856
-0.907796
-1.51016
-2.10729
-2.69505
-3.26699
-3.81331
-4.31972
-4.7662
-5.12624
-5.36737
-5.45346
-5.3411
-4.91008
-3.45715
-0.323871
-0.971367
-1.61784
-2.26162
-2.89938
-3.5252
-4.12915
-4.69558
-5.20101
-5.61225
-5.88695
-5.98284
-5.89409
-5.77622
-6.40778
-0.345059
-1.03565
-1.72739
-2.42011
-3.11201
-3.79859
-4.47103
-5.11381
-5.70123
-6.19307
-6.53072
-6.64042
-6.4673
-6.12193
-6.44057
-0.365917
-1.09913
-1.83627
-2.57918
-3.32834
-4.08181
-4.83353
-5.57047
-6.26781
-6.88098
-7.33278
-7.4944
-7.16014
-6.00653
-3.38376
-0.385817
-1.15989
-1.94114
-2.73391
-3.54168
-4.36624
-5.20628
-6.05462
-6.89286
-7.68095
-8.33636
-8.69274
-8.42196
-6.91139
-3.20525
-0.404025
-1.21565
-2.03801
-2.87823
-3.74335
-4.63991
-5.57328
-6.54579
-7.55273
-8.57307
-9.54759
-10.3266
-10.5447
-9.34094
-4.90476
-0.41975
-1.26396
-2.12247
-3.00527
-3.92317
-4.88803
-5.91309
-7.01304
-8.2033
-9.497
-10.8946
-12.35
-13.655
-14.0152
-10.3357
-0.432202
-1.30236
-2.19004
-3.10795
-4.07039
-5.09434
-6.2009
-7.41757
-8.78203
-10.3488
-12.2015
-14.4777
-17.4214
-21.4948
-27.5668
-11.2748
-25.7635
-24.348
-20.7926
-17.4905
-14.7228
-12.4053
-10.4226
-8.68227
-7.11755
-5.68018
-4.33465
-3.0538
-1.81593
-0.602643
-111.081
-57.9095
-37.3677
-27.2223
-21.1746
-17.0635
-14
-11.5598
-9.51588
-7.73594
-6.13692
-4.66337
-3.27584
-1.94441
-0.644711
-123.504
-67.3961
-43.1678
-30.8064
-23.5139
-18.6767
-15.1618
-12.4217
-10.1662
-8.22868
-6.50653
-4.93235
-3.45891
-2.05085
-0.679644
-67.8404
-54.744
-40.7269
-30.8703
-24.148
-19.3718
-15.7856
-12.9471
-10.5957
-8.57185
-6.77339
-5.13137
-3.59659
-2.13169
-0.706302
-47.8841
-42.7312
-35.3968
-28.7578
-23.4307
-19.2404
-15.89
-13.1343
-10.7977
-8.7585
-6.93161
-5.25592
-3.68573
-2.1851
-0.72408
-30.4018
-32.2334
-29.5838
-25.734
-21.9239
-18.5258
-15.5816
-13.0305
-10.7932
-8.7977
-6.98482
-5.30721
-3.72656
-2.21101
-0.732925
-22.4231
-24.8476
-24.6043
-22.6828
-20.1311
-17.4959
-15
-12.7088
-10.6209
-8.71005
-6.94409
-5.29117
-3.72219
-2.21089
-0.733274
-12.4549
-19.3143
-20.7903
-20.0691
-18.3963
-16.3692
-14.2763
-12.2461
-10.3254
-8.52182
-6.82486
-5.21683
-3.67776
-2.18739
-0.725937
-15.0217
-17.5195
-18.5022
-18.1161
-16.9076
-15.2882
-13.5091
-11.7072
-9.94869
-8.25955
-6.64386
-5.09462
-3.5995
-2.1438
-0.711947
-15.6742
-16.7769
-17.1646
-16.7343
-15.7042
-14.3181
-12.7577
-11.1381
-9.52382
-7.94626
-6.41671
-4.93483
-3.49386
-2.08367
-0.692426
-16.2878
-16.5308
-16.395
-15.769
-14.7482
-13.469