/*--------------------------------*- C++ -*----------------------------------*\
| =========                 |                                                 |
| \\      /  F ield         | OpenFOAM: The Open Source CFD Toolbox           |
|  \\    /   O peration     | Version:  5.x                                   |
|   \\  /    A nd           | Web:      www.OpenFOAM.org                      |
|    \\/     M anipulation  |                                                 |
\*---------------------------------------------------------------------------*/
FoamFile
{
    version     2.0;
    format      ascii;
    class       volScalarField;
    location    "11.3001";
    object      gradTx;
}
// * * * * * * * * * * * * * * * * * * * * * * * * * * * * * * * * * * * * * //

dimensions      [0 -1 0 1 0 0 0];

internalField   nonuniform List<scalar> 
6300
(
-31.8979
-31.9687
-32.1096
-32.3192
-32.5954
-32.9347
-33.3332
-33.7852
-34.2841
-34.8217
-35.3888
-35.9749
-36.5689
-37.1596
-37.7363
-31.827
-31.8985
-32.0409
-32.2528
-32.5321
-32.8757
-33.2796
-33.7383
-34.2453
-34.7923
-35.3698
-35.967
-36.5722
-37.1736
-37.7597
-31.6847
-31.7576
-31.9027
-32.1189
-32.4044
-32.7564
-33.1711
-33.6433
-34.1665
-34.7324
-35.3311
-35.9511
-36.5794
-37.2028
-37.8083
-31.4696
-31.5443
-31.6934
-31.9159
-32.2103
-32.5745
-33.005
-33.4973
-34.0449
-34.6397
-35.2712
-35.9267
-36.5916
-37.2501
-37.8864
-31.1797
-31.2567
-31.4106
-31.6408
-31.9465
-32.3262
-32.7773
-33.2959
-33.8763
-34.5104
-35.1873
-35.8929
-36.6101
-37.3196
-38.0009
-30.8128
-30.8923
-31.0515
-31.2903
-31.6088
-32.0064
-32.4819
-33.0327
-33.6539
-34.3383
-35.0746
-35.8474
-36.6365
-37.4173
-38.1624
-30.3664
-30.4483
-30.6126
-30.8601
-31.1919
-31.6088
-32.1114
-32.6989
-33.3685
-34.1142
-34.9255
-35.7857
-36.6712
-37.5506
-38.3861
-29.8381
-29.9219
-30.0906
-30.3457
-30.6898
-31.1256
-31.656
-32.2831
-33.007
-33.8246
-34.7273
-35.6988
-36.7121
-37.7278
-38.6935
-29.2258
-29.3108
-29.4821
-29.7424
-30.096
-30.5479
-31.104
-31.7704
-32.5517
-33.4498
-34.4604
-35.57
-36.7505
-37.9551
-39.1126
-28.5287
-28.6133
-28.7844
-29.046
-29.4038
-29.8658
-30.4418
-31.1427
-31.9798
-32.9625
-34.0947
-35.3701
-36.7649
-38.2294
-39.6754
-27.747
-27.8293
-27.9964
-28.2532
-28.6075
-29.0699
-29.6546
-30.3787
-31.2622
-32.3255
-33.5859
-35.0508
-36.7095
-38.5222
-40.4027
-26.8829
-26.9606
-27.1187
-27.363
-27.7029
-28.1517
-28.7279
-29.4555
-30.3649
-31.4916
-32.8724
-34.5377
-36.4998
-38.747
-41.2519
-25.9412
-26.0114
-26.1547
-26.3773
-26.6894
-27.1063
-27.6497
-28.3505
-29.2503
-30.4033
-31.8743
-33.7274
-36.004
-38.7131
-41.952
-24.9293
-24.9891
-25.1114
-25.3021
-25.5712
-25.9342
-26.4143
-27.0464
-27.8823
-28.9971
-30.4937
-32.4924
-35.0729
-38.1439
-41.56
-23.8577
-23.9043
-23.9996
-24.1485
-24.3592
-24.645
-25.0269
-25.5386
-26.2353
-27.2086
-28.6102
-30.6724
-33.6429
-37.2098
-37.7065
-38.2457
-38.6859
-39.1019
-39.4918
-39.8548
-40.1907
-40.4999
-40.783
-41.0401
-41.2712
-41.4757
-41.6525
-41.8006
-41.9194
-42.0087
-42.0693
-42.1032
-42.1134
-42.1036
-42.0781
-42.0412
-41.9966
-41.9474
-41.8951
-41.8405
-41.7828
-41.7206
-41.6519
-41.5749
-41.4881
-41.3907
-41.2833
-41.1672
-41.0447
-40.9185
-40.7917
-40.6667
-40.5453
-40.4286
-40.3161
-40.2068
-40.0987
-39.9894
-39.8766
-39.7588
-39.6348
-39.5048
-39.3699
-39.2319
-39.0934
-38.957
-38.8248
-38.6985
-38.5788
-38.4652
-38.3567
-38.251
-38.1461
-38.0397
-37.93
-37.8161
-37.698
-37.5767
-37.4541
-37.3323
-37.214
-37.1012
-36.9954
-36.8975
-36.8071
-36.7234
-36.6445
-36.5688
-36.4946
-36.4208
-36.3474
-36.2754
-36.207
-36.1453
-36.0942
-36.0577
-36.0395
-36.0426
-36.0686
-36.1178
-36.1884
-36.2771
-36.3789
-36.4877
-36.5965
-38.276
-38.7207
-39.1395
-39.5307
-39.8938
-40.2291
-40.5376
-40.8203
-41.0777
-41.3097
-41.5155
-41.6937
-41.8429
-41.9618
-42.0499
-42.1078
-42.1374
-42.1421
-42.1262
-42.0946
-42.0522
-42.0035
-41.9516
-41.8986
-41.8448
-41.7892
-41.7298
-41.664
-41.5891
-41.5032
-41.4053
-41.2958
-41.1765
-41.0499
-40.9196
-40.789
-40.6613
-40.5388
-40.4223
-40.3117
-40.2052
-40.1003
-39.9943
-39.8841
-39.7675
-39.6435
-39.5119
-39.3742
-39.2327
-39.0905
-38.9508
-38.8163
-38.6891
-38.5698
-38.4581
-38.3524
-38.25
-38.1483
-38.0444
-37.9361
-37.8221
-37.7026
-37.5787
-37.4527
-37.3275
-37.206
-37.0909
-36.9842
-36.8866
-36.7977
-36.7162
-36.64
-36.5667
-36.4939
-36.4203
-36.3454
-36.2702
-36.1973
-36.1301
-36.0732
-36.0313
-36.0089
-36.0095
-36.0354
-36.0868
-36.1623
-36.2582
-36.3689
-36.4876
-36.6064
-38.3389
-38.7926
-39.2168
-39.6101
-39.9727
-40.3061
-40.6126
-40.894
-41.1518
-41.3858
-41.5949
-41.7768
-41.9289
-42.0487
-42.1346
-42.1869
-42.2075
-42.2005
-42.1714
-42.1266
-42.0724
-42.0147
-41.9576
-41.9033
-41.8518
-41.8013
-41.7484
-41.689
-41.6191
-41.5355
-41.4366
-41.3227
-41.196
-41.0605
-40.9209
-40.7822
-40.6487
-40.5234
-40.4078
-40.3011
-40.201
-40.1038
-40.0051
-39.9006
-39.7872
-39.6629
-39.5278
-39.3839
-39.2345
-39.0841
-38.9371
-38.7975
-38.6681
-38.55
-38.4424
-38.3431
-38.2482
-38.1537
-38.0554
-37.9502
-37.8362
-37.7135
-37.5838
-37.4503
-37.3172
-37.1888
-37.0688
-36.9598
-36.863
-36.7776
-36.7015
-36.6315
-36.5636
-36.4945
-36.4215
-36.3437
-36.2619
-36.1792
-36.1002
-36.0306
-35.9769
-35.9451
-35.9401
-35.9652
-36.0213
-36.107
-36.2179
-36.3475
-36.4872
-36.6273
-38.4395
-38.9071
-39.3388
-39.7337
-40.0935
-40.422
-40.7234
-41.0019
-41.26
-41.4978
-41.7134
-41.903
-42.0615
-42.1842
-42.2679
-42.3116
-42.3175
-42.2908
-42.2393
-42.1719
-42.0978
-42.0251
-41.9595
-41.9038
-41.8573
-41.8167
-41.7763
-41.7293
-41.6689
-41.5898
-41.4894
-41.3678
-41.2284
-41.0771
-40.921
-40.7678
-40.624
-40.4943
-40.3804
-40.2812
-40.1928
-40.1094
-40.0241
-39.9302
-39.8224
-39.6979
-39.5566
-39.4014
-39.2379
-39.0726
-38.9126
-38.764
-38.6309
-38.515
-38.415
-38.3272
-38.2459
-38.1644
-38.0765
-37.9769
-37.8628
-37.7344
-37.5942
-37.4473
-37.3002
-37.1594
-37.0307
-36.918
-36.8228
-36.7441
-36.6781
-36.6197
-36.5625
-36.5007
-36.4297
-36.3476
-36.255
-36.1558
-36.0565
-35.9652
-35.891
-35.8427
-35.8274
-35.8503
-35.9133
-36.0152
-36.1507
-36.3114
-36.4861
-36.6617
-38.5866
-39.0733
-39.5137
-39.9077
-40.2596
-40.5767
-40.8674
-41.1394
-41.3972
-41.6418
-41.8696
-42.0738
-42.2455
-42.376
-42.4587
-42.4907
-42.4744
-42.417
-42.3299
-42.2268
-42.1213
-42.0254
-41.9474
-41.8909
-41.8544
-41.832
-41.8139
-41.7887
-41.7454
-41.675
-41.5727
-41.4387
-41.2781
-41.1004
-40.9169
-40.7398
-40.5793
-40.4424
-40.3318
-40.2456
-40.1774
-40.1178
-40.0555
-39.9798
-39.8818
-39.7569
-39.6051
-39.4312
-39.2437
-39.0535
-38.8718
-38.7081
-38.569
-38.457
-38.37
-38.302
-38.2437
-38.1846
-38.1142
-38.0243
-37.9103
-37.7721
-37.6142
-37.4448
-37.2741
-37.1126
-36.9695
-36.8509
-36.7591
-36.6921
-36.644
-36.606
-36.568
-36.5199
-36.4541
-36.3665
-36.2576
-36.1327
-36.0012
-35.8752
-35.768
-35.6925
-35.6597
-35.6775
-35.7495
-35.8749
-36.0473
-36.2554
-36.4837
-36.7137
-38.794
-39.3063
-39.7554
-40.1425
-40.4758
-40.7693
-41.0385
-41.2971
-41.5537
-41.8099
-42.0597
-42.2913
-42.4889
-42.6368
-42.7223
-42.7394
-42.6903
-42.586
-42.4438
-42.285
-42.1309
-41.9998
-41.9042
-41.8491
-41.8314
-41.8409
-41.8616
-41.8745
-41.8609
-41.8061
-41.7016
-41.5477
-41.3527
-41.1318
-40.9038
-40.6879
-40.5005
-40.3525
-40.2481
-40.184
-40.1498
-40.13
-40.1064
-40.0612
-39.98
-39.8548
-39.6856
-39.4804
-39.2534
-39.0222
-38.8049
-38.6168
-38.4682
-38.363
-38.2978
-38.2626
-38.2428
-38.221
-38.1801
-38.1065
-37.9926
-37.8382
-37.6509
-37.4441
-37.2346
-37.0394
-36.873
-36.7453
-36.6597
-36.6129
-36.5952
-36.5925
-36.5878
-36.5647
-36.5099
-36.416
-36.2832
-36.1191
-35.9379
-35.758
-35.5993
-35.4809
-35.4193
-35.4265
-35.509
-35.6668
-35.8923
-36.1704
-36.4787
-36.7904
-39.0833
-39.6301
-40.0864
-40.4545
-40.7496
-40.9969
-41.2247
-41.4576
-41.7109
-41.9871
-42.2763
-42.5576
-42.8041
-42.9874
-43.0846
-43.0834
-42.986
-42.8093
-42.5816
-42.3364
-42.1075
-41.9233
-41.8028
-41.7533
-41.7693
-41.8338
-41.9204
-41.9982
-42.036
-42.0087
-41.9019
-41.7157
-41.4645
-41.1734
-40.8733
-40.5951
-40.3648
-40.1999
-40.1066
-40.0793
-40.1013
-40.1476
-40.1885
-40.1944
-40.1415
-40.016
-39.818
-39.5611
-39.269
-38.9709
-38.6959
-38.4685
-38.3051
-38.2114
-38.1821
-38.2012
-38.2448
-38.2848
-38.2931
-38.2468
-38.133
-37.9517
-37.7156
-37.4473
-37.1744
-36.9245
-36.721
-36.5791
-36.5045
-36.4916
-36.525
-36.5817
-36.6343
-36.6552
-36.622
-36.5217
-36.3537
-36.13
-35.8729
-35.6104
-35.3725
-35.1876
-35.0798
-35.067
-35.1601
-35.3611
-35.6617
-36.0418
-36.4691
-36.9027
-39.4874
-40.084
-40.5447
-40.8715
-41.0922
-41.2525
-41.4035
-41.5889
-41.8349
-42.1458
-42.504
-42.8742
-43.21
-43.4621
-43.5886
-43.5658
-43.3957
-43.1064
-42.7444
-42.3644
-42.0198
-41.7549
-41.5991
-41.5631
-41.6376
-41.7946
-41.9921
-42.1794
-42.305
-42.3257
-42.2165
-41.9775
-41.6337
-41.228
-40.8113
-40.4332
-40.135
-39.9441
-39.87
-39.9036
-40.0179
-40.173
-40.3209
-40.4126
-40.4073
-40.2815
-40.0353
-39.6924
-39.2934
-38.8864
-38.5184
-38.2281
-38.0414
-37.9672
-37.9967
-38.1044
-38.2521
-38.3943
-38.4846
-38.4843
-38.3707
-38.144
-37.8267
-37.4572
-37.0811
-36.743
-36.4799
-36.3162
-36.2603
-36.3035
-36.4214
-36.577
-36.7262
-36.8236
-36.8308
-36.7249
-36.5043
-36.1892
-35.8155
-35.4272
-35.0695
-34.7833
-34.6033
-34.5551
-34.6558
-34.9119
-35.3167
-35.8451
-36.4504
-37.0686
-40.0572
-40.7338
-41.1958
-41.4415
-41.5217
-41.5215
-41.533
-41.6328
-41.8656
-42.2364
-42.7144
-43.2403
-43.7365
-44.1176
-44.3077
-44.2602
-43.9771
-43.5081
-42.933
-42.3415
-41.8174
-41.4294
-41.2228
-41.214
-41.387
-41.6973
-42.0784
-42.4494
-42.7249
-42.8297
-42.7181
-42.3902
-41.8921
-41.2985
-40.6936
-40.1563
-39.7509
-39.5199
-39.4786
-39.6114
-39.8759
-40.209
-40.534
-40.7703
-40.8468
-40.7205
-40.3918
-39.9044
-39.3293
-38.7459
-38.2287
-37.8386
-37.6156
-37.5738
-37.6987
-37.9498
-38.2673
-38.5785
-38.8068
-38.8847
-38.7713
-38.4669
-38.0129
-37.4765
-36.9331
-36.4536
-36.0958
-35.8979
-35.8733
-36.008
-36.2633
-36.5816
-36.8926
-37.1218
-37.2026
-37.0932
-36.7911
-36.3327
-35.7791
-35.2002
-34.6632
-34.2264
-33.9367
-33.8291
-33.9276
-34.2484
-34.7939
-35.5375
-36.4132
-37.3173
-40.8694
-41.6927
-42.1583
-42.2495
-42.0673
-41.7734
-41.5353
-41.4854
-41.6973
-42.1726
-42.8556
-43.6495
-44.4286
-45.0484
-45.3686
-45.2941
-44.8262
-44.0625
-43.1454
-42.2214
-41.4193
-40.8426
-40.5617
-40.603
-40.9387
-41.4982
-42.1793
-42.8568
-43.3905
-43.6456
-43.5312
-43.0479
-42.2879
-41.3854
-40.4787
-39.6895
-39.1154
-38.8228
-38.8363
-39.1295
-39.6352
-40.2565
-40.875
-41.358
-41.5784
-41.4509
-40.9766
-40.2429
-39.3771
-38.5099
-37.7563
-37.2083
-36.9287
-36.9406
-37.2188
-37.6998
-38.2916
-38.8821
-39.3453
-39.5607
-39.447
-39.0051
-38.3178
-37.5057
-36.6931
-35.989
-35.4814
-35.23
-35.257
-35.5387
-36.0145
-36.5966
-37.1769
-37.6335
-37.8481
-37.7392
-37.3029
-36.6131
-35.7791
-34.913
-34.1125
-33.4575
-33.0082
-32.8061
-32.8792
-33.2617
-33.9856
-35.0397
-36.3353
-37.6986
-42.0342
-43.1667
-43.6597
-43.4513
-42.7735
-41.9453
-41.2666
-40.961
-41.1498
-41.8099
-42.8371
-44.0799
-45.35
-46.4107
-46.998
-46.8945
-46.1013
-44.8378
-43.3677
-41.9257
-40.6964
-39.8299
-39.4368
-39.5679
-40.1681
-41.124
-42.2853
-43.4715
-44.4574
-44.9935
-44.8752
-44.1044
-42.8888
-41.4782
-40.0946
-38.9128
-38.0747
-37.6848
-37.7913
-38.3416
-39.228
-40.3082
-41.411
-42.3238
-42.8112
-42.6806
-41.935
-40.7716
-39.4269
-38.1105
-36.9875
-36.1918
-35.8221
-35.9237
-36.4471
-37.29
-38.318
-39.3688
-40.2408
-40.7106
-40.5952
-39.8969
-38.8023
-37.5358
-36.2966
-35.2415
-34.4982
-34.1611
-34.2739
-34.7899
-35.6128
-36.6143
-37.6394
-38.4936
-38.9596
-38.8565
-38.1799
-37.1011
-35.8254
-34.5312
-33.3525
-32.3924
-31.7238
-31.3866
-31.3853
-31.7832
-32.7018
-34.1944
-36.1597
-38.3001
-43.6791
-45.5626
-46.1714
-45.328
-43.6956
-41.9021
-40.4608
-39.7247
-39.9237
-40.9184
-42.5084
-44.4709
-46.573
-48.4547
-49.622
-49.4879
-48.0538
-45.9106
-43.5497
-41.3236
-39.4511
-38.1356
-37.5572
-37.8573
-38.8855
-40.4538
-42.3556
-44.3744
-46.1719
-47.2839
-47.159
-45.8012
-43.7704
-41.5321
-39.4201
-37.6413
-36.3884
-35.8323
-36.107
-37.0696
-38.5418
-40.3272
-42.2207
-43.9021
-44.9336
-44.7961
-43.4951
-41.5615
-39.4357
-37.4326
-35.7474
-34.5617
-34.0368
-34.2996
-35.2149
-36.614
-38.3114
-40.1129
-41.7154
-42.7033
-42.583
-41.359
-39.5344
-37.5267
-35.635
-34.045
-32.9301
-32.4445
-32.7099
-33.5993
-34.9537
-36.598
-38.3479
-39.9129
-40.8906
-40.7996
-39.6361
-37.8727
-35.8985
-33.9828
-32.2777
-30.9077
-29.9621
-29.4837
-29.3163
-29.5551
-30.5912
-32.6684
-35.7319
-39.2863
-45.7951
-49.7987
-50.7786
-48.3401
-44.8462
-41.3512
-38.64
-37.1419
-37.5518
-39.1697
-41.643
-44.6612
-48.1133
-51.5274
-54.12
-53.9534
-51.0274
-47.2971
-43.5373
-40.2124
-37.4038
-35.3799
-34.4124
-35.0982
-36.825
-39.3033
-42.2576
-45.5961
-48.8734
-51.3555
-51.2183
-48.4669
-44.951
-41.4043
-38.2656
-35.6124
-33.6988
-32.7833
-33.4321
-35.0641
-37.4043
-40.1908
-43.3358
-46.4163
-48.7396
-48.5869
-45.966
-42.6283
-39.2679
-36.297
-33.788
-31.9799
-31.1173
-31.736
-33.2862
-35.5082
-38.1548
-41.1437
-44.0752
-46.2917
-46.1599
-43.686
-40.5302
-37.3506
-34.5389
-32.1644
-30.4557
-29.6463
-30.2476
-31.7391
-33.877
-36.4297
-39.3228
-42.1776
-44.3605
-44.2872
-41.956
-38.9481
-35.8871
-33.1314
-30.7202
-28.8118
-27.5276
-27.133
-26.6624
-26.1789
-26.9815
-29.7222
-34.5975
-40.9888
-47.3221
-58.3991
-60.3347
-52.8824
-45.9905
-39.6673
-35.0711
-31.8114
-33.4403
-36.1891
-39.9932
-44.2266
-49.7083
-55.7831
-62.5914
-62.3923
-55.1592
-48.726
-42.8986
-38.3579
-34.2263
-31.103
-28.8871
-30.8399
-33.6825
-37.4672
-41.6064
-46.9059
-52.7201
-59.1991
-59.0417
-52.2338
-46.1756
-40.6892
-36.412
-32.5184
-29.5721
-27.4818
-29.3416
-32.0386
-35.624
-39.5384
-44.5435
-50.0209
-56.1109
-55.9319
-49.4689
-43.728
-38.5389
-34.4964
-30.8192
-28.0369
-26.0645
-27.8311
-30.39
-33.791
-37.5055
-42.2572
-47.4644
-53.2616
-53.1094
-46.9951
-41.5602
-36.6446
-32.8131
-29.3251
-26.6863
-24.8169
-26.5031
-28.9483
-32.2028
-35.7713
-40.353
-45.4099
-51.0792
-51.0264
-45.2502
-40.0998
-35.4362
-31.7838
-28.4386
-25.8173
-23.812
-24.8916
-24.0272
-20.9506
-20.5811
-23.702
-31.2798
-44.1228
-41.0171
-80.1358
-83.503
-56.7131
-46.3296
-35.4949
-29.5775
-19.4412
-27.7163
-31.6887
-37.7254
-41.9943
-50.4492
-58.9825
-81.1533
-80.9602
-58.1392
-49.2827
-40.4072
-35.9142
-29.5967
-25.5197
-17.3586
-25.3006
-29.1831
-35.1207
-39.2845
-47.4746
-55.6095
-76.5989
-76.442
-54.9211
-46.5769
-38.2328
-34.0059
-28.0604
-24.2126
-16.492
-24.0454
-27.7341
-33.3698
-37.3152
-45.0714
-52.7432
-72.5097
-72.3257
-51.9322
-44.0331
-36.1589
-32.1697
-26.5617
-22.9274
-15.6277
-22.7852
-26.2812
-31.6222
-35.3625
-42.715
-50.0039
-68.7986
-68.6444
-49.3259
-41.8424
-34.3776
-30.5926
-25.2629
-21.8089
-14.8675
-21.6659
-24.9918
-30.0765
-33.6539
-40.6988
-47.7602
-66.0377
-66.0074
-47.6432
-40.5504
-33.5293
-29.9937
-25.1146
-21.9356
-15.6541
-25.4494
-24.5778
-11.824
-9.15436
-11.2639
-20.3803
-50.2336
-36.7076
-36.81
-36.8838
-36.9236
-36.9276
-36.8976
-36.8384
-36.7568
-36.661
-36.5595
-36.4607
-36.3719
-36.2997
-36.2487
-36.2224
-36.7275
-36.8386
-36.9179
-36.9594
-36.9616
-36.9269
-36.8607
-36.771
-36.6666
-36.5569
-36.4506
-36.3555
-36.2783
-36.224
-36.196
-36.7696
-36.8992
-36.9897
-37.0345
-37.0325
-36.9875
-36.9067
-36.7999
-36.6777
-36.5508
-36.4291
-36.3212
-36.2341
-36.1731
-36.1417
-36.8392
-36.9988
-37.1071
-37.1564
-37.1466
-37.0838
-36.9787
-36.8441
-36.6934
-36.5396
-36.394
-36.2662
-36.1638
-36.0925
-36.056
-36.945
-37.1498
-37.2835
-37.3374
-37.3135
-37.2225
-37.0802
-36.9043
-36.7123
-36.5201
-36.3409
-36.1857
-36.0625
-35.9772
-35.9337
-37.1017
-37.3718
-37.5398
-37.5961
-37.5475
-37.4126
-37.2152
-36.9806
-36.7315
-36.4875
-36.2641
-36.0731
-35.9232
-35.8202
-35.7678
-37.3323
-37.696
-37.9079
-37.9596
-37.868
-37.665
-37.3877
-37.0712
-36.7456
-36.4343
-36.1548
-35.9195
-35.7369
-35.6126
-35.5496
-37.6751
-38.1719
-38.4362
-38.4664
-38.2998
-37.9917
-37.5992
-37.1711
-36.7454
-36.3493
-36.0012
-35.7132
-35.4925
-35.3435
-35.2685
-38.1938
-38.8801
-39.1988
-39.17
-38.8729
-38.403
-37.8463
-37.2687
-36.7156
-36.2161
-35.7876
-35.4395
-35.1764
-35.0004
-34.9123
-39.0006
-39.9559
-40.3089
-40.142
-39.6187
-38.9012
-38.1144
-37.3416
-36.6321
-36.0121
-35.4937
-35.0807
-34.7731
-34.5694
-34.4681
-40.3047
-41.6341
-41.9388
-41.4703
-40.5588
-39.4686
-38.3686
-37.3512
-36.459
-35.7067
-35.0943
-34.6165
-34.2659
-34.0362
-33.9225
-42.5271
-44.3371
-44.3418
-43.2417
-41.6777
-40.0456
-38.5401
-37.2355
-36.1463
-35.2611
-34.5605
-34.025
-33.638
-33.3868
-33.2633
-46.6078
-48.8453
-47.8495
-45.477
-42.8646
-40.4962
-38.5107
-36.9046
-35.6294
-34.6308
-33.8617
-33.2851
-32.8741
-32.6098
-32.4805
-54.9277
-56.5869
-52.734
-47.9521
-43.8076
-40.564
-38.1018
-36.2427
-34.836
-33.7711
-32.9702
-32.3797
-31.9635
-31.6978
-31.5684
-74.5195
-69.8405
-58.5475
-49.7897
-43.8497
-39.8503
-37.0898
-35.1283
-33.701
-32.6475
-31.8682
-31.3
-30.9023
-30.6497
-30.5268
-22.8328
-22.8652
-22.9314
-23.0344
-23.1794
-23.3752
-23.6361
-23.9868
-24.4719
-25.1764
-26.2766
-28.1655
-31.7658
-39.1129
-52.3734
-21.8785
-21.8971
-21.9347
-21.9924
-22.0717
-22.1756
-22.3094
-22.4829
-22.7163
-23.0539
-23.6055
-24.6891
-27.4206
-36.6559
-78.3002
-20.9112
-20.9158
-20.9242
-20.9353
-20.9468
-20.9552
-20.955
-20.9375
-20.8885
-20.7827
-20.564
-20.0582
-18.498
-11.6852
25.3727
-19.9409
-19.9317
-19.9119
-19.878
-19.8241
-19.7408
-19.6126
-19.4139
-19.1003
-18.5904
-17.7227
-16.1556
-13.168
-7.71125
-3.88275
-18.9769
-18.9551
-18.9093
-18.8345
-18.7219
-18.5577
-18.3193
-17.9701
-17.4485
-16.6468
-15.3688
-13.2444
-9.5434
-2.60032
13.4714
-18.028
-17.9952
-17.927
-17.8172
-17.6556
-17.426
-17.1028
-16.646
-15.9912
-15.0337
-13.6031
-11.431
-8.17086
-3.82634
-1.97176
-17.1018
-17.06
-16.9735
-16.8359
-16.6366
-16.3593
-15.9792
-15.4594
-14.7439
-13.7493
-12.352
-10.3738
-7.55181
-3.32265
4.93972
-16.2047
-16.1559
-16.0555
-15.8973
-15.6717
-15.3639
-14.9528
-14.4086
-13.6905
-12.7444
-11.5041
-9.90278
-7.91009
-5.61968
-3.47732
-15.3414
-15.2876
-15.1775
-15.0057
-14.764
-14.4403
-14.0187
-13.4786
-12.7955
-11.9439
-10.9068
-9.70358
-8.47518
-7.81386
-10.4065
-14.5155
-14.4585
-14.3423
-14.1627
-13.9131
-13.5847
-13.1669
-12.6479
-12.0176
-11.2722
-10.425
-9.52183
-8.64648
-7.74829
-5.03521
-13.7293
-13.6705
-13.5513
-13.3683
-13.1169
-12.7912
-12.3853
-11.8946
-11.3196
-10.6713
-9.98194
-9.32078
-8.83365
-8.94305
-11.8807
-12.9838
-12.9244
-12.8044
-12.6215
-12.3723
-12.0535
-11.6625
-11.1999
-10.6723
-10.099
-9.51928
-8.99888
-8.60656
-8.17373
-5.53447
-12.2796
-12.2205
-12.1014
-11.9206
-11.676
-11.3659
-10.9896
-10.5501
-10.0569
-9.53125
-9.0154
-8.58805
-8.40761
-8.93664
-12.5871
-11.6165
-11.5582
-11.4411
-11.264
-11.0253
-10.7242
-10.3606
-9.93779
-9.4639
-8.95666
-8.45008
-8.00574
-7.71598
-7.5319
-5.39397
-10.9937
-10.9369
-10.8226
-10.6501
-10.4181
-10.1257
-9.77286
-9.36088
-8.8941
-8.38163
-7.84154
-7.31609
-6.95097
-7.48399
-13.4968
-10.4105
-10.3554
-10.2446
-10.0775
-9.85278
-9.56938
-9.22612
-8.82203
-8.35605
-7.82577
-7.22284
-6.51512
-5.56224
-3.63068
3.73707
-9.8656
-9.81246
-9.70579
-9.54478
-9.32824
-9.05459
-8.72164
-8.32617
-7.86265
-7.32037
-6.67691
-5.88442
-4.85314
-3.5525
-3.42464
-9.35758
-9.30675
-9.2047
-9.05066
-8.84338
-8.58097
-8.26058
-7.87757
-7.42394
-6.88525
-6.23448
-5.41956
-4.3311
-2.65988
1.104
-8.88488
-8.83661
-8.73973
-8.59353
-8.3968
-8.14764
-7.84302
-7.47801
-7.04431
-6.52796
-5.90605
-5.14465
-4.21378
-3.22048
-3.35496
-8.4457
-8.40023
-8.30902
-8.17149
-7.98663
-7.75281
-7.46742
-7.12616
-6.72209
-6.244
-5.67449
-4.98743
-4.13982
-2.99789
-0.683832
-8.0381
-7.99562
-7.91049
-7.78232
-7.61047
-7.39382
-7.1306
-6.81794
-6.45127
-6.02354
-5.52455
-4.94173
-4.27025
-3.58926
-3.62904
-7.66
-7.62063
-7.54184
-7.42351
-7.26541
-7.06717
-6.82813
-6.54724
-6.22286
-5.85256
-5.43286
-4.9576
-4.4073
-3.68007
-2.14957
-7.30926
-7.27303
-7.20067
-7.09232
-6.94825
-6.76886
-6.55473
-6.30675
-6.02634
-5.7159
-5.37974
-5.0256
-4.66723
-4.32869
-4.0594
-6.98367
-6.95054
-6.88448
-6.78593
-6.65562
-6.49468
-6.30485
-6.0888
-5.85068
-5.59712
-5.33912
-5.09654
-4.91339
-4.92922
-5.78214
-6.6811
-6.65092
-6.59087
-6.50161
-6.38426
-6.24057
-6.07318
-5.88618
-5.68575
-5.48144
-5.2878
-5.12622
-5.02139
-4.9484
-4.3957
-6.39949
-6.37205
-6.31755
-6.23681
-6.13122
-6.00291
-5.85515
-5.69288
-5.52353
-5.35835
-5.21422
-5.11649
-5.1073
-5.3007
-6.32675
-6.13694
-6.11197
-6.06245
-5.98928
-5.89395
-5.77877
-5.64722
-5.5045
-5.35842
-5.22065
-5.10842
-5.04528
-5.05253
-5.07475
-4.44164
-5.89175
-5.86896
-5.82379
-5.75714
-5.67047
-5.566
-5.44704
-5.31847
-5.18754
-5.06523
-4.96855
-4.9252
-4.98737
-5.30387
-6.64539
-5.66239
-5.64148
-5.60006
-5.53891
-5.45935
-5.36331
-5.25355
-5.13409
-5.01069
-4.89201
-4.79164
-4.73187
-4.7456
-4.82115
-4.27642
-5.44755
-5.42827
-5.39003
-5.33349
-5.2597
-5.17013
-5.06682
-4.95244
-4.83057
-4.7061
-4.58656
-4.48749
-4.46091
-4.76917
-7.03331
-5.24611
-5.22823
-5.19271
-5.14005
-5.071
-4.98652
-4.88778
-4.77601
-4.65225
-4.51677
-4.36729
-4.19277
-3.9437
-3.35891
-0.839175
-5.0571
-5.04044
-5.0073
-4.95801
-4.89302
-4.81283
-4.71781
-4.60791
-4.48209
-4.33717
-4.1654
-3.94985
-3.65963
-3.29234
-3.41837
-4.87967
-4.86411
-4.83311
-4.78687
-4.72561
-4.64944
-4.55817
-4.45087
-4.32521
-4.17622
-3.99393
-3.75878
-3.4291
-2.88318
-1.50968
-4.71305
-4.69852
-4.66952
-4.62618
-4.56856
-4.49656
-4.40967
-4.30658
-4.18455
-4.0384
-3.85918
-3.63336
-3.34876
-3.04869
-3.22238
-4.55653
-4.54297
-4.51591
-4.47541
-4.4215
-4.35402
-4.27243
-4.17547
-4.06065
-3.92355
-3.75681
-3.54878
-3.27916
-2.88518
-1.9754
-4.40944
-4.39681
-4.37163
-4.33396
-4.28387
-4.22129
-4.14587
-4.05676
-3.95224
-3.8293
-3.68313
-3.50698
-3.29595
-3.07983
-3.17672
-4.27112
-4.25939
-4.23603
-4.20115
-4.15493
-4.09748
-4.02883
-3.94875
-3.85662
-3.7512
-3.63027
-3.48941
-3.31628
-3.05709
-2.41009
-4.14094
-4.13007
-4.10843
-4.07623
-4.03378
-3.98147
-3.91974
-3.84913
-3.77025
-3.68389
-3.59125
-3.49427
-3.39638
-3.30365
-3.22917
-4.01833
-4.00823
-3.98817
-3.95844
-3.9195
-3.872
-3.81684
-3.75526
-3.68907
-3.62096
-3.55525
-3.49978
-3.47291
-3.5375
-3.99641
-3.90275
-3.89332
-3.87463
-3.84705
-3.81117
-3.76786
-3.71839
-3.66461
-3.60924
-3.55637
-3.51214
-3.48545
-3.48593
-3.49751
-3.26166
-3.79372
-3.78484
-3.76728
-3.74144
-3.70801
-3.66801
-3.62295
-3.57507
-3.52768
-3.48578
-3.45686
-3.45225
-3.49127
-3.6293
-4.18359
-3.69088
-3.68241
-3.66568
-3.64111
-3.60942
-3.57168
-3.52949
-3.48519
-3.44232
-3.4062
-3.38472
-3.38877
-3.42786
-3.47202
-3.17491
-3.59392
-3.58572
-3.56952
-3.54574
-3.51505
-3.47846
-3.43749
-3.39433
-3.35229
-3.31646
-3.29486
-3.30096
-3.36094
-3.55169
-4.27522
-3.50266
-3.4946
-3.47865
-3.45518
-3.42478
-3.38831
-3.34702
-3.30269
-3.25796
-3.21683
-3.18577
-3.17574
-3.20324
-3.26134
-2.99035
-3.41702
-3.40897
-3.39301
-3.36944
-3.33872
-3.3015
-3.25866
-3.21135
-3.16115
-3.11023
-3.0621
-3.02446
-3.02428
-3.19952
-4.40471
-3.33697
-3.32883
-3.31266
-3.28868
-3.2572
-3.21862
-3.17341
-3.12204
-3.06484
-3.00169
-2.93116
-2.84719
-2.72353
-2.42242
-1.09927
-3.26258
-3.25428
-3.23775
-3.21314
-3.18061
-3.14035
-3.09245
-3.03678
-2.97266
-2.8983
-2.80955
-2.69748
-2.54602
-2.35503
-2.43151
-3.19397
-3.18546
-3.16847
-3.14309
-3.1094
-3.06739
-3.0169
-2.95739
-2.88761
-2.80492
-2.70415
-2.57513
-2.39598
-2.1019
-1.36506
-3.13128
-3.12252
-3.10503
-3.07884
-3.04397
-3.00033
-2.94762
-2.88516
-2.81152
-2.7241
-2.61839
-2.4876
-2.32576
-2.15621
-2.23849
-3.07468
-3.06566
-3.04763
-3.02063
-2.98464
-2.93957
-2.88513
-2.82069
-2.74502
-2.65598
-2.55005
-2.42166
-2.2609
-2.03561
-1.54063
-3.02436
-3.01506
-2.99648
-2.96866
-2.93162
-2.88533
-2.8296
-2.76402
-2.68781
-2.59961
-2.49732
-2.37819
-2.24086
-2.10227
-2.12727
-2.98051
-2.97091
-2.95175
-2.92311
-2.88505
-2.83765
-2.78091
-2.71475
-2.63894
-2.55302
-2.4563
-2.34739
-2.2217
-2.05532
-1.7029
-2.94333
-2.93341
-2.91363
-2.8841
-2.84497
-2.79646
-2.73878
-2.6722
-2.59708
-2.51395
-2.42374
-2.32825
-2.2308
-2.13755
-2.06196
-2.91305
-2.90276
-2.88228
-2.85175
-2.81143
-2.76164
-2.70283
-2.6356
-2.56081
-2.4798
-2.39487
-2.31047
-2.23699
-2.20751
-2.36842
-2.88992
-2.87921
-2.85791
-2.82622
-2.78447
-2.7331
-2.67274
-2.60425
-2.52886
-2.44838
-2.36565
-2.28512
-2.21264
-2.14522
-1.97957
-2.87422
-2.86303
-2.84077
-2.80769
-2.76419
-2.7108
-2.6483
-2.57771
-2.50045
-2.41852
-2.3349
-2.25418
-2.18479
-2.15112
-2.28255
-2.86631
-2.85454
-2.83115
-2.79641
-2.75077
-2.69485
-2.62949
-2.55581
-2.47528
-2.38986
-2.30215
-2.21539
-2.13215
-2.04236
-1.83365
-2.86658
-2.85414
-2.82942
-2.79271
-2.74451
-2.68546
-2.61647
-2.53868
-2.45352
-2.3628
-2.26873
-2.17418
-2.08405
-2.01615
-2.08279
-2.87549
-2.86228
-2.83601
-2.79701
-2.74577
-2.68299
-2.60957
-2.52666
-2.43563
-2.33807
-2.23567
-2.12989
-2.02054
-1.89649
-1.66707
-2.89358
-2.87949
-2.85145
-2.80981
-2.75506
-2.68791
-2.60928
-2.52029
-2.42228
-2.31671
-2.20496
-2.0881
-1.96725
-1.84999
-1.80298
-2.92147
-2.90638
-2.87635
-2.83172
-2.77297
-2.70082
-2.61618
-2.52019
-2.4142
-2.29965
-2.1778
-2.04909
-1.91146
-1.75468
-1.53284
-2.95985
-2.94365
-2.91141
-2.86343
-2.8002
-2.72241
-2.63096
-2.52704
-2.41206
-2.28766
-2.15542
-2.01629
-1.86897
-1.70455
-1.4819
-3.00948
-2.99208
-2.9574
-2.90574
-2.83755
-2.75348
-2.65442
-2.54157
-2.41648
-2.28112
-2.13783
-1.98919
-1.83836
-1.69482
-1.62429
-3.07121
-3.0525
-3.01519
-2.95954
-2.88594
-2.79497
-2.68746
-2.5646
-2.42804
-2.2801
-2.12396
-1.96362
-1.80269
-1.63439
-1.3696
-3.14593
-3.12583
-3.08573
-3.02582
-2.9464
-2.84795
-2.73118
-2.59715
-2.44751
-2.28479
-2.113
-1.93847
-1.77215
-1.64095
-1.67115
-3.23462
-3.21307
-3.17004
-3.10564
-3.02008
-2.91366
-2.78688
-2.64055
-2.47606
-2.29579
-2.10394
-1.90762
-1.71722
-1.53541
-1.25343
-3.33827
-3.31524
-3.26919
-3.20017
-3.10824
-2.99351
-2.85616
-2.69658
-2.51556
-2.31483
-2.098
-1.87266
-1.65634
-1.49942
-1.60164
-3.45793
-3.43339
-3.3843
-3.31061
-3.21225
-3.08908
-2.9409
-2.76749
-2.56876
-2.34507
-2.09796
-1.83145
-1.55421
-1.28346
-1.05896
-3.59463
-3.5686
-3.51649
-3.4382
-3.3335
-3.20202
-3.04315
-2.85599
-2.6393
-2.39158
-2.11141
-1.79769
-1.44759
-1.03537
-0.360323
-3.74941
-3.72192
-3.66688
-3.58412
-3.47334
-3.33398
-3.16507
-2.96501
-2.73138
-2.46063
-2.14816
-1.7892
-1.3841
-0.969776
-0.841123
-3.92329
-3.89439
-3.83651
-3.74951
-3.63304
-3.48647
-3.30861
-3.09736
-2.84924
-2.55867
-2.21719
-1.81276
-1.32703
-0.705789
0.415747
-4.11725
-4.08697
-4.02638
-3.93536
-3.81366
-3.66071
-3.47533
-3.25531
-2.99658
-2.69206
-2.32995
-1.89277
-1.36407
-0.789221
-0.705261
-4.33224
-4.30061
-4.23737
-4.14252
-4.01598
-3.85746
-3.66612
-3.44015
-3.17574
-2.86544
-2.49485
-2.03635
-1.43315
-0.53175
1.38886
-4.56921
-4.53621
-4.47032
-4.37169
-4.24053
-4.07699
-3.88097
-3.65168
-3.38678
-3.08068
-2.72082
-2.28042
-1.70931
-0.982054
-0.793659
-4.82909
-4.79467
-4.72601
-4.62345
-4.48757
-4.3191
-4.11893
-3.88793
-3.62644
-3.33325
-3.00272
-2.61525
-2.09393
-1.05814
2.76514
-5.11287
-5.07691
-5.00523
-4.89837
-4.75723
-4.58321
-4.37832
-4.14536
-3.88812
-3.61175
-3.32417
-3.04305
-2.83582
-3.06996
-6.08136
-5.42163
-5.38395
-5.30889
-5.19709
-5.04974
-4.86876
-4.65719
-4.41965
-4.16308
-3.89804
-3.64114
-3.41953
-3.2712
-3.15313
-1.95868
-5.75657
-5.71697
-5.63806
-5.52051
-5.3656
-5.17557
-4.95411
-4.70715
-4.44393
-4.17869
-3.9336
-3.74514
-3.68556
-3.98378
-5.90985
-6.119
-6.07728
-5.99406
-5.86988
-5.70586
-5.5042
-5.26874
-5.00595
-4.72619
-4.44535
-4.18675
-3.98123
-3.85146
-3.68396
-2.29517
-6.51041
-6.46643
-6.37852
-6.2469
-6.07227
-5.8563
-5.60235
-5.31655
-5.0092
-4.69655
-4.40304
-4.16473
-4.04355
-4.23226
-5.88778
-6.93235
-6.88609
-6.79333
-6.6538
-6.4674
-6.23478
-5.95808
-5.64211
-5.29588
-4.93448
-4.58101
-4.26688
-4.02046
-3.76193
-2.45828
-7.38644
-7.33803
-7.24063
-7.09324
-6.89463
-6.64387
-6.34109
-5.9887
-5.59309
-5.1669
-4.73165
-4.32203
-4.00577
-4.01736
-5.61838
-7.87414
-7.82398
-7.72266
-7.56825
-7.35807
-7.08908
-6.75856
-6.3653
-5.91154
-5.40561
-4.86449
-4.31234
-3.76341
-3.16902
-2.39533
-8.39668
-8.34547
-8.24156
-8.08199
-7.86235
-7.57702
-7.2196
-6.78393
-6.26623
-5.66875
-5.00499
-4.30044
-3.5526
-2.44519
1.36502
-8.95479
-8.90356
-8.79913
-8.63744
-8.41226
-8.11504
-7.73497
-7.25953
-6.67631
-5.97794
-5.17381
-4.31859
-3.59151
-3.59831
-6.95601
-9.54847
-9.4986
-9.39646
-9.23698
-9.01219
-8.71059
-8.31659
-7.80997
-7.16636
-6.36056
-5.37813
-4.24776
-3.12077
-2.4244
-2.88137
-10.1768
-10.13
-10.0336
-9.88189
-9.66546
-9.37032
-8.9764
-8.45554
-7.76904
-6.86585
-5.68518
-4.17458
-2.35099
-0.449563
0.875954
-10.8376
-10.7957
-10.7092
-10.5717
-10.3734
-10.0986
-9.72438
-9.21615
-8.52219
-7.56383
-6.22136
-4.31875
-1.63526
1.92522
5.5538
-11.5275
-11.4926
-11.42
-11.3039
-11.1344
-10.8961
-10.5654
-10.1057
-9.45896
-8.52857
-7.14653
-5.00519
-1.52856
4.25271
12.7515
-12.2416
-12.2156
-12.1611
-12.0732
-11.9432
-11.7577
-11.4959
-11.1253
-10.5927
-9.80695
-8.59898
-6.61893
-3.02229
4.69302
25.8512
-146.543
-88.0523
-61.5528
-48.891
-42.1097
-38.0602
-35.4299
-33.617
-32.3178
-31.3661
-30.6646
-30.1539
-29.7967
-29.5698
-29.4595
-182.297
-82.3926
-54.6755
-43.9903
-38.6306
-35.4474
-33.3532
-31.8863
-30.8191
-30.0274
-29.4379
-29.0054
-28.7011
-28.5071
-28.4126
47.0017
-26.6029
-35.9705
-35.3912
-33.6402
-32.0784
-30.8409
-29.878
-29.1292
-28.5483
-28.1022
-27.7678
-27.5291
-27.3754
-27.3001
-7.0167
-15.4221
-24.1731
-27.6058
-28.5184
-28.4842
-28.138
-27.7209
-27.3227
-26.9756
-26.6889
-26.4637
-26.2979
-26.1891
-26.1353
25.9699
-4.00129
-16.069
-21.5704
-24.0542
-25.1066
-25.4843
-25.5506
-25.4808
-25.3608
-25.233
-25.1183
-25.0273
-24.9647
-24.933
-1.39803
-5.01347
-12.5248
-17.6304
-20.5841
-22.1974
-23.047
-23.4748
-23.6738
-23.7515
-23.7679
-23.7566
-23.7368
-23.7189
-23.7088
11.5081
-3.32012
-10.6514
-15.1849
-18.0448
-19.8187
-20.9025
-21.5579
-21.9511
-22.1848
-22.3219
-22.4009
-22.4449
-22.4678
-22.4776
-3.05177
-6.83296
-10.7209
-13.9015
-16.2598
-17.9193
-19.0554
-19.8231
-20.3391
-20.6852
-20.9164
-21.0694
-21.1676
-21.2259
-21.2531
-14.9858
-10.2717
-11.2815
-13.1891
-14.96
-16.3833
-17.4642
-18.2631