/*--------------------------------*- C++ -*----------------------------------*\
| =========                 |                                                 |
| \\      /  F ield         | OpenFOAM: The Open Source CFD Toolbox           |
|  \\    /   O peration     | Version:  5.x                                   |
|   \\  /    A nd           | Web:      www.OpenFOAM.org                      |
|    \\/     M anipulation  |                                                 |
\*---------------------------------------------------------------------------*/
FoamFile
{
    version     2.0;
    format      ascii;
    class       volScalarField;
    location    "11.3001";
    object      T;
}
// * * * * * * * * * * * * * * * * * * * * * * * * * * * * * * * * * * * * * //

dimensions      [0 0 0 1 0 0 0];

internalField   nonuniform List<scalar> 
6300
(
322.841
322.521
322.201
321.879
321.555
321.227
320.896
320.561
320.22
319.875
319.524
319.167
318.805
318.436
318.061
322.841
322.523
322.203
321.882
321.558
321.231
320.9
320.565
320.226
319.881
319.53
319.173
318.81
318.442
318.067
322.842
322.525
322.207
321.887
321.564
321.238
320.909
320.575
320.236
319.892
319.541
319.185
318.822
318.454
318.078
322.843
322.528
322.212
321.894
321.574
321.25
320.922
320.59
320.252
319.909
319.559
319.203
318.841
318.472
318.096
322.844
322.532
322.219
321.904
321.586
321.265
320.94
320.61
320.274
319.932
319.584
319.228
318.866
318.496
318.119
322.846
322.538
322.228
321.917
321.602
321.285
320.962
320.635
320.302
319.962
319.615
319.26
318.898
318.528
318.15
322.848
322.544
322.239
321.932
321.622
321.308
320.99
320.666
320.336
319.999
319.654
319.3
318.938
318.567
318.187
322.851
322.552
322.252
321.951
321.646
321.337
321.023
320.704
320.377
320.043
319.701
319.349
318.987
318.615
318.232
322.854
322.562
322.268
321.972
321.673
321.37
321.062
320.748
320.427
320.097
319.758
319.408
319.046
318.673
318.287
322.857
322.572
322.285
321.996
321.704
321.408
321.107
320.799
320.484
320.16
319.825
319.478
319.117
318.743
318.353
322.861
322.584
322.305
322.024
321.74
321.452
321.158
320.859
320.551
320.233
319.904
319.562
319.203
318.827
318.433
322.866
322.597
322.326
322.054
321.779
321.5
321.216
320.926
320.627
320.318
319.997
319.661
319.306
318.931
318.532
322.87
322.611
322.35
322.088
321.823
321.554
321.28
321.001
320.713
320.416
320.105
319.778
319.431
319.058
318.657
322.875
322.626
322.376
322.124
321.87
321.612
321.351
321.084
320.81
320.526
320.23
319.917
319.58
319.215
318.817
322.881
322.642
322.403
322.162
321.92
321.675
321.427
321.174
320.916
320.65
320.372
320.077
319.758
319.405
319.014
317.713
317.392
317.068
316.741
316.41
316.076
315.74
315.401
315.06
314.717
314.372
314.026
313.678
313.329
312.98
312.629
312.278
311.927
311.577
311.226
310.875
310.525
310.175
309.826
309.477
309.129
308.781
308.433
308.086
307.74
307.395
307.05
306.707
306.364
306.023
305.682
305.343
305.005
304.667
304.331
303.995
303.661
303.327
302.994
302.662
302.332
302.002
301.673
301.346
301.019
300.694
300.37
300.047
299.725
299.404
299.084
298.765
298.446
298.129
297.812
297.497
297.182
296.868
296.556
296.244
295.934
295.624
295.315
295.007
294.7
294.394
294.088
293.783
293.479
293.175
292.872
292.569
292.267
291.966
291.665
291.364
291.064
290.764
290.463
290.162
289.861
289.559
289.257
288.953
288.648
317.718
317.397
317.073
316.745
316.414
316.08
315.744
315.405
315.063
314.72
314.375
314.028
313.68
313.331
312.98
312.63
312.279
311.927
311.576
311.225
310.875
310.524
310.175
309.825
309.476
309.128
308.78
308.432
308.085
307.739
307.394
307.049
306.705
306.363
306.021
305.681
305.341
305.003
304.666
304.329
303.994
303.659
303.326
302.993
302.661
302.33
302
301.671
301.344
301.018
300.692
300.368
300.046
299.724
299.403
299.083
298.763
298.445
298.128
297.811
297.495
297.181
296.867
296.554
296.243
295.932
295.623
295.314
295.006
294.699
294.393
294.087
293.782
293.478
293.174
292.871
292.568
292.266
291.965
291.664
291.364
291.064
290.764
290.464
290.163
289.862
289.56
289.258
288.954
288.65
317.729
317.408
317.083
316.754
316.422
316.088
315.751
315.411
315.069
314.725
314.379
314.032
313.683
313.333
312.982
312.631
312.279
311.927
311.576
311.224
310.874
310.523
310.173
309.824
309.475
309.126
308.778
308.431
308.084
307.737
307.391
307.046
306.703
306.36
306.018
305.678
305.339
305
304.663
304.327
303.991
303.657
303.323
302.99
302.658
302.327
301.997
301.668
301.341
301.014
300.689
300.365
300.043
299.721
299.4
299.08
298.761
298.443
298.125
297.808
297.493
297.178
296.864
296.551
296.24
295.929
295.62
295.312
295.004
294.697
294.391
294.086
293.781
293.476
293.172
292.869
292.567
292.265
291.964
291.663
291.363
291.063
290.764
290.464
290.165
289.864
289.563
289.26
288.957
288.652
317.746
317.423
317.097
316.768
316.435
316.099
315.761
315.421
315.078
314.733
314.386
314.038
313.688
313.337
312.985
312.632
312.28
311.927
311.575
311.223
310.872
310.521
310.171
309.822
309.473
309.124
308.776
308.428
308.081
307.734
307.387
307.042
306.698
306.355
306.013
305.673
305.334
304.996
304.659
304.323
303.988
303.653
303.319
302.986
302.654
302.322
301.992
301.663
301.335
301.009
300.684
300.361
300.038
299.717
299.396
299.076
298.757
298.439
298.121
297.804
297.488
297.173
296.859
296.547
296.235
295.925
295.616
295.308
295.001
294.694
294.388
294.083
293.778
293.474
293.17
292.866
292.564
292.262
291.961
291.661
291.362
291.063
290.764
290.466
290.167
289.867
289.567
289.265
288.962
288.657
317.768
317.444
317.117
316.786
316.452
316.115
315.775
315.434
315.09
314.744
314.396
314.046
313.694
313.342
312.988
312.634
312.28
311.926
311.573
311.221
310.869
310.519
310.169
309.82
309.471
309.122
308.773
308.425
308.077
307.729
307.382
307.036
306.692
306.348
306.007
305.667
305.328
304.99
304.654
304.318
303.983
303.648
303.314
302.981
302.648
302.316
301.985
301.656
301.328
301.002
300.677
300.354
300.032
299.711
299.391
299.072
298.753
298.434
298.116
297.799
297.483
297.167
296.853
296.54
296.229
295.919
295.611
295.303
294.996
294.69
294.385
294.08
293.775
293.47
293.166
292.863
292.56
292.258
291.958
291.658
291.36
291.062
290.765
290.468
290.17
289.872
289.572
289.271
288.968
288.663
317.796
317.471
317.141
316.808
316.472
316.134
315.793
315.45
315.105
314.757
314.408
314.056
313.703
313.348
312.992
312.636
312.28
311.924
311.57
311.217
310.865
310.515
310.165
309.816
309.468
309.119
308.771
308.422
308.073
307.724
307.376
307.029
306.683
306.34
305.998
305.658
305.32
304.983
304.647
304.312
303.977
303.643
303.309
302.975
302.641
302.308
301.977
301.647
301.319
300.993
300.668
300.346
300.025
299.705
299.385
299.066
298.748
298.429
298.111
297.793
297.475
297.159
296.845
296.532
296.221
295.911
295.603
295.297
294.991
294.686
294.381
294.076
293.771
293.466
293.162
292.858
292.555
292.253
291.953
291.654
291.357
291.061
290.765
290.47
290.175
289.878
289.58
289.28
288.978
288.672
317.831
317.503
317.171
316.835
316.497
316.156
315.813
315.469
315.122
314.774
314.423
314.069
313.713
313.356
312.997
312.638
312.279
311.921
311.565
311.211
310.86
310.51
310.161
309.813
309.465
309.117
308.768
308.418
308.068
307.718
307.368
307.019
306.672
306.328
305.986
305.647
305.31
304.974
304.64
304.306
303.972
303.637
303.303
302.968
302.633
302.299
301.966
301.635
301.306
300.98
300.657
300.335
300.016
299.697
299.379
299.061
298.742
298.423
298.104
297.785
297.467
297.149
296.834
296.521
296.21
295.901
295.595
295.289
294.985
294.681
294.377
294.072
293.767
293.462
293.156
292.851
292.547
292.245
291.945
291.647
291.352
291.058
290.765
290.473
290.181
289.887
289.592
289.293
288.991
288.685
317.873
317.542
317.205
316.866
316.524
316.181
315.837
315.491
315.143
314.794
314.441
314.085
313.726
313.365
313.002
312.639
312.276
311.915
311.558
311.203
310.852
310.503
310.156
309.809
309.463
309.115
308.766
308.415
308.063
307.71
307.358
307.007
306.658
306.313
305.971
305.633
305.297
304.964
304.631
304.299
303.966
303.632
303.297
302.96
302.623
302.287
301.952
301.62
301.29
300.965
300.642
300.323
300.005
299.689
299.372
299.055
298.737
298.418
298.097
297.777
297.456
297.137
296.82
296.507
296.196
295.889
295.584
295.281
294.978
294.676
294.373
294.069
293.764
293.457
293.15
292.843
292.538
292.235
291.935
291.638
291.344
291.053
290.765
290.477
290.189
289.899
289.607
289.31
289.009
288.703
317.923
317.586
317.245
316.9
316.554
316.208
315.862
315.516
315.168
314.818
314.464
314.106
313.743
313.377
313.008
312.638
312.27
311.906
311.545
311.19
310.84
310.493
310.149
309.806
309.462
309.116
308.767
308.415
308.06
307.703
307.346
306.991
306.639
306.293
305.951
305.614
305.282
304.952
304.623
304.294
303.963
303.629
303.293
302.954
302.613
302.273
301.935
301.6
301.27
300.944
300.624
300.307
299.993
299.68
299.367
299.052
298.734
298.414
298.091
297.767
297.443
297.121
296.802
296.488
296.178
295.872
295.57
295.27
294.972
294.673
294.372
294.068
293.762
293.453
293.143
292.833
292.525
292.22
291.919
291.624
291.333
291.046
290.762
290.48
290.199
289.915
289.628
289.335
289.035
288.728
317.983
317.638
317.288
316.935
316.584
316.234
315.887
315.542
315.196
314.847
314.493
314.133
313.766
313.392
313.015
312.636
312.26
311.889
311.526
311.17
310.822
310.48
310.141
309.804
309.464
309.121
308.773
308.418
308.059
307.695
307.331
306.97
306.614
306.265
305.924
305.59
305.262
304.938
304.615
304.291
303.963
303.63
303.292
302.949
302.603
302.256
301.912
301.573
301.241
300.917
300.6
300.288
299.979
299.672
299.364
299.052
298.735
298.414
298.087
297.758
297.428
297.101
296.778
296.462
296.153
295.85
295.553
295.259
294.966
294.671
294.374
294.071
293.764
293.452
293.136
292.821
292.507
292.199
291.897
291.603
291.315
291.034
290.758
290.484
290.211
289.936
289.657
289.37
289.073
288.764
318.054
317.698
317.334
316.97
316.61
316.257
315.911
315.569
315.228
314.884
314.532
314.17
313.797
313.414
313.023
312.631
312.242
311.862
311.494
311.139
310.796
310.461
310.132
309.804
309.472
309.134
308.787
308.43
308.063
307.689
307.313
306.941
306.578
306.226
305.886
305.558
305.238
304.923
304.61
304.293
303.971
303.639
303.299
302.949
302.593
302.236
301.882
301.537
301.203
300.88
300.567
300.263
299.964
299.666
299.365
299.059
298.744
298.42
298.088
297.749
297.409
297.073
296.744
296.426
296.119
295.821
295.531
295.246
294.962
294.675
294.382
294.081
293.772
293.454
293.13
292.805
292.483
292.168
291.864
291.571
291.289
291.015
290.749
290.487
290.226
289.964
289.696
289.419
289.126
288.816
318.141
317.768
317.382
316.999
316.627
316.27
315.928
315.596
315.266
314.931
314.584
314.222
313.843
313.446
313.035
312.619
312.211
311.818
311.445
311.092
310.757
310.435
310.121
309.809
309.49
309.161
308.816
308.455
308.076
307.685
307.288
306.899
306.525
306.17
305.833
305.513
305.205
304.906
304.608
304.304
303.99
303.662
303.318
302.958
302.586
302.209
301.84
301.484
301.147
300.827
300.523
300.231
299.947
299.664
299.376
299.077
298.765
298.439
298.097
297.743
297.385
297.034
296.696
296.375
296.07
295.781
295.503
295.232
294.962
294.687
294.402
294.104
293.792
293.465
293.127
292.784
292.447
292.123
291.816
291.525
291.249
290.987
290.734
290.487
290.243
289.999
289.75
289.489
289.206
288.893
318.256
317.857
317.426
317.011
316.62
316.263
315.931
315.619
315.312
314.993
314.659
314.299
313.915
313.497
313.056
312.595
312.157
311.745
311.368
311.019
310.698
310.396
310.109
309.822
309.524
309.209
308.869
308.504
308.109
307.69
307.253
306.836
306.445
306.087
305.755
305.449
305.161
304.888
304.615
304.33
304.03
303.707
303.361
302.985
302.587
302.172
301.777
301.406
301.067
300.752
300.462
300.189
299.929
299.67
299.4
299.115
298.808
298.479
298.122
297.745
297.351
296.975
296.623
296.3
296
295.724
295.464
295.217
294.97
294.713
294.441
294.148
293.834
293.493
293.131
292.753
292.393
292.054
291.744
291.456
291.191
290.944
290.711
290.485
290.259
290.041
289.823
289.591
289.327
289.014
318.42
317.993
317.447
316.987
316.565
316.22
315.904
315.636
315.374
315.079
314.771
314.412
314.034
313.584
313.104
312.54
312.064
311.621
311.252
310.906
310.613
310.336
310.094
309.854
309.58
309.293
308.956
308.599
308.174
307.721
307.187
306.737
306.317
305.967
305.639
305.36
305.097
304.867
304.639
304.378
304.105
303.785
303.446
303.042
302.612
302.107
301.68
301.283
300.951
300.64
300.376
300.127
299.909
299.692
299.445
299.186
298.882
298.561
298.178
297.769
297.29
296.884
296.507
296.192
295.896
295.645
295.407
295.2
294.994
294.758
294.511
294.222
293.915
293.549
293.158
292.698
292.308
291.944
291.639
291.353
291.11
290.879
290.679
290.482
290.264
290.082
289.915
289.739
289.52
289.217
318.681
318.3
317.345
316.909
316.4
316.136
315.808
315.643
315.484
315.182
314.956
314.553
314.256
313.712
313.273
312.359
311.924
311.39
311.103
310.717
310.504
310.224
310.079
309.934
309.657
309.448
309.072
308.793
308.28
307.866
307.004
306.592
306.088
305.816
305.451
305.249
304.984
304.846
304.709
304.445
304.246
303.889
303.624
303.138
302.745
301.929
301.54
301.064
300.806
300.461
300.27
300.018
299.888
299.758
299.508
299.32
298.981
298.73
298.269
297.897
297.122
296.753
296.3
296.056
295.727
295.546
295.306
295.182
295.059
294.821
294.642
294.32
294.081
293.642
293.285
292.541
292.185
291.747
291.509
291.188
291.009
290.769
290.644
290.509
290.22
290.099
290.022
289.946
289.835
289.607
288.312
287.945
287.576
287.207
286.838
286.469
286.1
285.732
285.365
284.999
284.633
284.269
283.906
283.543
283.181
288.314
287.946
287.577
287.207
286.838
286.468
286.099
285.731
285.364
284.998
284.633
284.269
283.905
283.543
283.181
288.316
287.948
287.578
287.208
286.837
286.467
286.098
285.729
285.362
284.995
284.631
284.267
283.904
283.542
283.181
288.32
287.951
287.58
287.208
286.837
286.465
286.095
285.726
285.358
284.992
284.627
284.264
283.902
283.541
283.18
288.326
287.955
287.583
287.209
286.836
286.463
286.091
285.721
285.353
284.987
284.623
284.26
283.899
283.539
283.18
288.334
287.961
287.586
287.21
286.834
286.459
286.086
285.715
285.346
284.98
284.617
284.255
283.895
283.537
283.179
288.345
287.969
287.591
287.211
286.832
286.454
286.078
285.706
285.337
284.971
284.608
284.248
283.89
283.533
283.178
288.36
287.981
287.597
287.212
286.828
286.446
286.068
285.694
285.324
284.959
284.597
284.239
283.883
283.529
283.176
288.382
287.996
287.604
287.212
286.821
286.434
286.053
285.677
285.308
284.943
284.583
284.227
283.874
283.524
283.174
288.412
288.016
287.613
287.21
286.81
286.417
286.032
285.655
285.285
284.922
284.565
284.213
283.864
283.517
283.172
288.455
288.043
287.622
287.204
286.793
286.393
286.004
285.625
285.257
284.896
284.543
284.194
283.85
283.509
283.169
288.517
288.077
287.63
287.19
286.765
286.357
285.964
285.586
285.22
284.863
284.514
284.172
283.834
283.499
283.166
288.607
288.119
287.63
287.162
286.721
286.305
285.911
285.535
285.173
284.822
284.48
284.145
283.814
283.487
283.162
288.742
288.162
287.61
287.107
286.651
286.231
285.84
285.469
285.115
284.772
284.439
284.113
283.792
283.474
283.158
288.937
288.177
287.54
287.006
286.544
286.129
285.747
285.387
285.044
284.713
284.391
284.076
283.765
283.458
283.152
322.886
322.657
322.429
322.199
321.968
321.735
321.5
321.263
321.021
320.773
320.517
320.248
319.954
319.612
319.172
322.891
322.672
322.453
322.233
322.013
321.792
321.569
321.345
321.12
320.891
320.659
320.419
320.165
319.871
319.432
322.895
322.686
322.477
322.268
322.058
321.849
321.639
321.43
321.221
321.012
320.805
320.601
320.404
320.231
320.17
322.9
322.701
322.502
322.303
322.104
321.906
321.709
321.514
321.321
321.132
320.949
320.777
320.626
320.514
320.472
322.905
322.715
322.526
322.337
322.149
321.963
321.778
321.596
321.419
321.247
321.086
320.94
320.821
320.749
320.769
322.91
322.73
322.55
322.371
322.194
322.018
321.845
321.676
321.512
321.356
321.211
321.084
320.983
320.921
320.906
322.914
322.744
322.573
322.404
322.237
322.071
321.909
321.752
321.6
321.457
321.325
321.21
321.118
321.059
321.051
322.919
322.757
322.596
322.436
322.278
322.122
321.971
321.823
321.682
321.55
321.428
321.319
321.229
321.161
321.117
322.923
322.77
322.617
322.466
322.317
322.171
322.029
321.891
321.759
321.635
321.52
321.417
321.326
321.247
321.17
322.927
322.782
322.638
322.495
322.355
322.217
322.083
321.954
321.83
321.714
321.605
321.505
321.414
321.332
321.259
322.931
322.794
322.658
322.523
322.391
322.261
322.135
322.013
321.897
321.787
321.683
321.587
321.497
321.41
321.318
322.935
322.805
322.677
322.549
322.424
322.302
322.183
322.069
321.959
321.855
321.757
321.665
321.577
321.493
321.414
322.939
322.816
322.694
322.574
322.456
322.34
322.228
322.121
322.017
321.919
321.827
321.739
321.655
321.571
321.476
322.942
322.826
322.711
322.597
322.485
322.376
322.271
322.169
322.072
321.98
321.893
321.811
321.733
321.657
321.582
322.945
322.835
322.726
322.619
322.513
322.41
322.311
322.215
322.123
322.037
321.956
321.88
321.81
321.741
321.66
322.948
322.844
322.741
322.639
322.539
322.442
322.348
322.257
322.171
322.09
322.015
321.946
321.885
321.835
321.812
322.951
322.852
322.754
322.658
322.563
322.471
322.382
322.297
322.216
322.14
322.069
322.006
321.952
321.909
321.881
322.953
322.86
322.767
322.676
322.586
322.499
322.414
322.334
322.257
322.185
322.119
322.06
322.011
321.974
321.958
322.956
322.867
322.779
322.692
322.607
322.524
322.444
322.367
322.294
322.226
322.164
322.108
322.061
322.024
321.997
322.958
322.873
322.79
322.707
322.626
322.547
322.471
322.398
322.329
322.264
322.204
322.15
322.104
322.067
322.044
322.96
322.879
322.8
322.721
322.644
322.569
322.496
322.426
322.36
322.297
322.239
322.187
322.141
322.102
322.069
322.962
322.885
322.809
322.734
322.661
322.589
322.519
322.452
322.388
322.328
322.271
322.219
322.172
322.131
322.099
322.963
322.89
322.818
322.746
322.676
322.607
322.541
322.476
322.415
322.356
322.3
322.248
322.2
322.155
322.113
322.965
322.895
322.826
322.758
322.69
322.624
322.56
322.498
322.439
322.381
322.327
322.275
322.225
322.176
322.126
322.967
322.9
322.834
322.768
322.704
322.64
322.579
322.519
322.461
322.405
322.351
322.299
322.249
322.199
322.15
322.968
322.904
322.841
322.778
322.716
322.655
322.596
322.538
322.482
322.427
322.375
322.323
322.272
322.221
322.166
322.969
322.908
322.847
322.787
322.727
322.669
322.612
322.556
322.502
322.449
322.397
322.347
322.296
322.246
322.195
322.971
322.912
322.853
322.795
322.738
322.682
322.627
322.573
322.52
322.469
322.419
322.37
322.32
322.27
322.214
322.972
322.915
322.859
322.803
322.748
322.694
322.641
322.589
322.538
322.489
322.44
322.393
322.346
322.298
322.249
322.973
322.918
322.864
322.811
322.758
322.705
322.654
322.604
322.555
322.507
322.461
322.416
322.371
322.326
322.276
322.974
322.921
322.869
322.817
322.766
322.716
322.667
322.618
322.571
322.525
322.481
322.438
322.397
322.359
322.33
322.975
322.924
322.874
322.824
322.775
322.726
322.678
322.632
322.586
322.542
322.5
322.459
322.421
322.386
322.355
322.976
322.927
322.878
322.83
322.783
322.736
322.69
322.644
322.601
322.558
322.517
322.478
322.442
322.41
322.384
322.976
322.929
322.882
322.836
322.79
322.745
322.7
322.656
322.614
322.573
322.533
322.495
322.46
322.429
322.399
322.977
322.932
322.886
322.841
322.797
322.753
322.71
322.667
322.626
322.586
322.548
322.511
322.477
322.446
322.419
322.978
322.934
322.89
322.846
322.803
322.761
322.719
322.678
322.638
322.599
322.561
322.525
322.491
322.459
322.429
322.979
322.936
322.893
322.851
322.809
322.768
322.727
322.688
322.648
322.61
322.573
322.538
322.504
322.471
322.443
322.979
322.938
322.897
322.856
322.815
322.775
322.736
322.697
322.659
322.621
322.585
322.549
322.515
322.482
322.449
322.98
322.94
322.9
322.86
322.821
322.782
322.743
322.705
322.668
322.631
322.596
322.56
322.526
322.491
322.455
322.98
322.941
322.903
322.864
322.826
322.788
322.75
322.713
322.677
322.641
322.606
322.571
322.536
322.501
322.466
322.981
322.943
322.905
322.868
322.83
322.794
322.757
322.721
322.686
322.651
322.616
322.581
322.547
322.512
322.474
322.982
322.945
322.908
322.871
322.835
322.799
322.764
322.729
322.694
322.66
322.626
322.592
322.558
322.523
322.489
322.982
322.946
322.91
322.875
322.839
322.804
322.77
322.736
322.702
322.669
322.636
322.603
322.57
322.535
322.499
322.982
322.947
322.913
322.878
322.843
322.809
322.776
322.742
322.71
322.677
322.645
322.614
322.582
322.55
322.517
322.983
322.949
322.915
322.881
322.847
322.814
322.781
322.749
322.717
322.686
322.655
322.624
322.594
322.564
322.53
322.983
322.95
322.917
322.884
322.851
322.819
322.787
322.755
322.724
322.694
322.664
322.635
322.607
322.581
322.559
322.984
322.951
322.919
322.886
322.854
322.823
322.792
322.761
322.731
322.701
322.673
322.645
322.619
322.594
322.572
322.984
322.952
322.92
322.889
322.857
322.827
322.796
322.766
322.737
322.708
322.681
322.654
322.629
322.606
322.587
322.984
322.953
322.922
322.891
322.86
322.83
322.8
322.771
322.743
322.715
322.688
322.663
322.638
322.616
322.595
322.985
322.954
322.923
322.893
322.863
322.833
322.804
322.776
322.748
322.721
322.695
322.67
322.646
322.624
322.605
322.985
322.955
322.925
322.895
322.865
322.836
322.807
322.779
322.752
322.726
322.7
322.676
322.653
322.631
322.611
322.985
322.955
322.926
322.896
322.867
322.839
322.81
322.783
322.756
322.73
322.705
322.681
322.658
322.637
322.617
322.985
322.956
322.927
322.898
322.869
322.841
322.813
322.786
322.76
322.734
322.709
322.685
322.663
322.641
322.62
322.985
322.956
322.927
322.899
322.87
322.842
322.815
322.788
322.762
322.737
322.713
322.689
322.667
322.645
322.622
322.986
322.957
322.928
322.9
322.871
322.844
322.817
322.79
322.765
322.74
322.716
322.692
322.67
322.648
322.627
322.986
322.957
322.928
322.9
322.872
322.845
322.818
322.792
322.766
322.742
322.718
322.695
322.673
322.651
322.63
322.986
322.957
322.929
322.9
322.873
322.845
322.819
322.793
322.768
322.743
322.72
322.697
322.676
322.655
322.635
322.986
322.957
322.929
322.9
322.873
322.846
322.819
322.793
322.768
322.744
322.721
322.699
322.677
322.657
322.637
322.986
322.957
322.928
322.9
322.872
322.845
322.819
322.793
322.768
322.744
322.721
322.7
322.679
322.659
322.641
322.986
322.957
322.928
322.9
322.872
322.844
322.818
322.792
322.768
322.744
322.721
322.7
322.679
322.66
322.642
322.985
322.956
322.927
322.899
322.871
322.843
322.817
322.791
322.766
322.743
322.72
322.699
322.679
322.661
322.644
322.985
322.956
322.926
322.897
322.869
322.841
322.815
322.789
322.764
322.741
322.718
322.697
322.678
322.66
322.644
322.985
322.955
322.925
322.896
322.867
322.839
322.812
322.786
322.761
322.738
322.715
322.695
322.676
322.658
322.642
322.985
322.954
322.924
322.894
322.864
322.836
322.808
322.782
322.757
322.734
322.712
322.691
322.672
322.655
322.64
322.984
322.953
322.922
322.891
322.861
322.832
322.804
322.778
322.752
322.729
322.707
322.686
322.668
322.651
322.635
322.984
322.952
322.92
322.888
322.857
322.828
322.799
322.772
322.746
322.722
322.7
322.68
322.662
322.646
322.632
322.983
322.95
322.917
322.885
322.853
322.822
322.793
322.765
322.739
322.715
322.693
322.673
322.655
322.64
322.625
322.983
322.948
322.914
322.88
322.848
322.816
322.786
322.757
322.731
322.706
322.684
322.664
322.647
322.633
322.621
322.982
322.946
322.911
322.876
322.842
322.809
322.778
322.748
322.721
322.695
322.673
322.653
322.637
322.624
322.616
322.981
322.944
322.907
322.87
322.835
322.801
322.768
322.738
322.709
322.683
322.66
322.64
322.624
322.612
322.605
322.98
322.941
322.902
322.864
322.827
322.792
322.758
322.726
322.696
322.669
322.645
322.624
322.608
322.598
322.594
322.979
322.938
322.898
322.858
322.819
322.781
322.746
322.712
322.681
322.652
322.627
322.605
322.589
322.578
322.573
322.978
322.935
322.892
322.85
322.809
322.77
322.732
322.697
322.663
322.633
322.606
322.583
322.565
322.555
322.555
322.977
322.932
322.886
322.842
322.799
322.757
322.717
322.68
322.644
322.612
322.583
322.558
322.537
322.523
322.518
322.976
322.928
322.88
322.833
322.787
322.743
322.701
322.661
322.623
322.588
322.557
322.528
322.504
322.486
322.483
322.974
322.923
322.873
322.823
322.775
322.728
322.683
322.641
322.6
322.563
322.528
322.496
322.467
322.44
322.406
322.973
322.919
322.865
322.813
322.761
322.712
322.664
322.618
322.575
322.535
322.497
322.462
322.429
322.397
322.366
322.971
322.914
322.857
322.801
322.746
322.694
322.643
322.595
322.549
322.506
322.465
322.427
322.39
322.353
322.311
322.969
322.908
322.848
322.788
322.73
322.674
322.62
322.569
322.52
322.474
322.431
322.391
322.352
322.314
322.278
322.967
322.902
322.838
322.775
322.713
322.653
322.596
322.541
322.49
322.441
322.396
322.353
322.312
322.272
322.228
322.965
322.896
322.828
322.76
322.694
322.631
322.57
322.512
322.457
322.406
322.358
322.314
322.273
322.234
322.198
322.963
322.889
322.816
322.744
322.674
322.607
322.542
322.48
322.422
322.368
322.318
322.273
322.232
322.193
322.152
322.961
322.882
322.804
322.727
322.653
322.58
322.511
322.445
322.384
322.327
322.276
322.23
322.189
322.154
322.126
322.958
322.874
322.791
322.709
322.629
322.552
322.478
322.408
322.342
322.282
322.229
322.182
322.143
322.111
322.094
322.955
322.866
322.777
322.69
322.604
322.522
322.442
322.367
322.297
322.233
322.177
322.13
322.091
322.058
322.019
322.952
322.857
322.762
322.669
322.577
322.489
322.403
322.322
322.247
322.179
322.12
322.071
322.035
322.009
321.986
322.949
322.847
322.746
322.647
322.549
322.453
322.361
322.274
322.192
322.119
322.055
322.005
321.971
321.958
321.963
322.946
322.837
322.73
322.623
322.518
322.416
322.316
322.221
322.132
322.051
321.981
321.926
321.894
321.894
321.933
322.942
322.827
322.712
322.599
322.486
322.376
322.268
322.165
322.066
321.976
321.896
321.833
321.796
321.802
321.881
322.939
322.816
322.694
322.573
322.453
322.334
322.218
322.104
321.995
321.893
321.799
321.721
321.667
321.66
321.761
289.141
288.079
287.38
286.848
286.403
286.006
285.641
285.298
284.969
284.651
284.342
284.038
283.739
283.442
283.147
288.767
287.739
287.119
286.645
286.239
285.873
285.53
285.205
284.893
284.589
284.292
284
283.712
283.426
283.142
287.289
287.114
286.757
286.394
286.049
285.722
285.408
285.105
284.81
284.522
284.239
283.96
283.684
283.41
283.136
286.708
286.615
286.399
286.131
285.847
285.561
285.278
284.998
284.723
284.452
284.184
283.918
283.654
283.392
283.131
286.158
286.201
286.078
285.88
285.647
285.399
285.145
284.889
284.634
284.379
284.126
283.875
283.624
283.374
283.125
285.909
285.902
285.809
285.652
285.457
285.24
285.013
284.779
284.543
284.306
284.068
283.83
283.593
283.356
283.119
285.651
285.663
285.585
285.45
285.281
285.09
284.885
284.672
284.453
284.232
284.01
283.786
283.562
283.337
283.112
285.535
285.488
285.399
285.274
285.121
284.948
284.762
284.567
284.366
284.16
283.952
283.742
283.531
283.319
283.106
285.443
285.341
285.238
285.116
284.974
284.817
284.646
284.467
284.281
284.09
283.896
283.699
283.5
283.301
283.1
285.285
285.196
285.09
284.971
284.839
284.693
284.537
284.372
284.2
284.023
283.841
283.657
283.471
283.283
283.094
285.182
285.061
284.952
284.837
284.712
284.578
284.434
284.281
284.122
283.958
283.789
283.617
283.442
283.266
283.089
285.013
284.92
284.817
284.708
284.593
284.469
284.336
284.196
284.049
283.896
283.739
283.578
283.415
283.249
283.083
284.903
284.785
284.685
284.585
284.479
284.365
284.244
284.115
283.979
283.837
283.691
283.541
283.388
283.234
283.078
284.718
284.638
284.554
284.466
284.371
284.268
284.157
284.038
283.913
283.782
283.646
283.506
283.363
283.219
283.073
284.584
284.494
284.425
284.351
284.268
284.176
284.075
283.966
283.851
283.729
283.603
283.473
283.34
283.205
283.068
284.324
284.336
284.299
284.242
284.172
284.09
283.999
283.899
283.793
283.68
283.563
283.442
283.318
283.191
283.064
284.208
284.211
284.188
284.143
284.083
284.011
283.928
283.837
283.739
283.635
283.526
283.413
283.297
283.179
283.06
284.08
284.104
284.091
284.055
284.003
283.939
283.864
283.78
283.689
283.593
283.491
283.386
283.278
283.168
283.056
284.017
284.022
284.01
283.979
283.932
283.874
283.805
283.728
283.644
283.554
283.46
283.361
283.26
283.157
283.052
283.942
283.953
283.941
283.912
283.87
283.816
283.752
283.681
283.602
283.519
283.43
283.338
283.244
283.147
283.049
283.904
283.901
283.885
283.856
283.815
283.764
283.705
283.638
283.565
283.486
283.404
283.317
283.229
283.138
283.046
283.861
283.857
283.838
283.807
283.767
283.719
283.662
283.599
283.531
283.457
283.379
283.298
283.215
283.13
283.043
283.84
283.823
283.798
283.766
283.726
283.679
283.625
283.565
283.5
283.431
283.357
283.281
283.202
283.122
283.041
283.823
283.794
283.764
283.729
283.689
283.643
283.591
283.534
283.473
283.407
283.338
283.265
283.191
283.115
283.039
283.794
283.765
283.733
283.697
283.657
283.611
283.561
283.507
283.448
283.385
283.32
283.251
283.181
283.109
283.036
283.775
283.739
283.705
283.668
283.628
283.583
283.535
283.482
283.426
283.366
283.304
283.239
283.172
283.104
283.035
283.744
283.713
283.678
283.641
283.601
283.558
283.511
283.46
283.406
283.349
283.289
283.227
283.164
283.099
283.033
283.725
283.688
283.653
283.617
283.577
283.535
283.489
283.44
283.388
283.333
283.276
283.217
283.156
283.094
283.031
283.694
283.663
283.629
283.594
283.556
283.514
283.47
283.423
283.372
283.32
283.265
283.208
283.15
283.09
283.03
283.672
283.639
283.607
283.573
283.536
283.496
283.453
283.407
283.359
283.308
283.255
283.2
283.144
283.087
283.029
283.632
283.614
283.586
283.554
283.518
283.48
283.438
283.393
283.346
283.297
283.246
283.193
283.139
283.084
283.028
283.615
283.595
283.568
283.538
283.503
283.465
283.425
283.381
283.335
283.288
283.238
283.187
283.134
283.081
283.027
283.599
283.579
283.554
283.524
283.49
283.453
283.413
283.371
283.326
283.28
283.231
283.181
283.13
283.079
283.026
283.591
283.569
283.543
283.513
283.479
283.443
283.404
283.362
283.318
283.273
283.225
283.177
283.127
283.076
283.026
283.584
283.561
283.534
283.504
283.471
283.434
283.396
283.355
283.312
283.267
283.221
283.173
283.124
283.075
283.025
283.58
283.555
283.528
283.497
283.464
283.428
283.389
283.349
283.306
283.262
283.217
283.17
283.122
283.073
283.025
283.578
283.552
283.523