/*--------------------------------*- C++ -*----------------------------------*\
| =========                 |                                                 |
| \\      /  F ield         | OpenFOAM: The Open Source CFD Toolbox           |
|  \\    /   O peration     | Version:  5.x                                   |
|   \\  /    A nd           | Web:      www.OpenFOAM.org                      |
|    \\/     M anipulation  |                                                 |
\*---------------------------------------------------------------------------*/
FoamFile
{
    version     2.0;
    format      ascii;
    class       volScalarField;
    location    "1.6";
    object      gradTy;
}
// * * * * * * * * * * * * * * * * * * * * * * * * * * * * * * * * * * * * * //

dimensions      [0 -1 0 1 0 0 0];

internalField   nonuniform List<scalar> 
6300
(
32285.4
32256
32226.6
32197
32167.1
32137
32106.5
32075.6
32044.2
32012.4
31980
31947
31913.4
31879.3
31844.6
0.0511092
0.152856
0.253161
0.35096
0.445039
0.533998
0.616231
0.689945
0.753224
0.804139
0.840931
0.862243
0.867388
0.856608
0.831253
0.0856989
0.256349
0.424703
0.589044
0.747394
0.897436
1.03647
1.16145
1.26904
1.35584
1.41865
1.45492
1.46322
1.44374
1.39873
0.121037
0.362143
0.600263
0.833128
1.05807
1.27189
1.47079
1.65036
1.80568
1.93155
2.02294
2.0756
2.08684
2.05643
1.9874
0.157343
0.470925
0.78108
1.08514
1.37986
1.66127
1.92444
2.16353
2.37176
2.54174
2.66598
2.7377
2.75211
2.70775
2.60805
0.194753
0.583135
0.967996
1.34648
1.71499
2.06887
2.40219
2.70756
2.9761
3.19769
3.36152
3.45714
3.47615
3.41441
3.27472
0.233286
0.698867
1.16129
1.61781
2.06475
2.49704
2.9079
3.28842
3.6274
3.91142
4.12527
4.25319
4.28094
4.19905
4.0072
0.272811
0.817763
1.36048
1.89874
2.42915
2.94666
3.44395
3.91081
4.33369
4.69531
4.97495
5.14942
5.1954
5.09363
4.83554
0.313009
0.938893
1.56414
2.1875
2.80646
3.41652
4.01042
4.57721
5.10123
5.56121
5.92983
6.17414
6.25762
6.14455
5.8082
0.353343
1.06067
1.76968
2.48069
3.19268
3.90255
4.60402
5.28639
5.93281
6.51848
7.00902
7.35971
7.51641
7.41879
7.00621
0.393038
1.18076
1.97322
2.77289
3.58104
4.39696
5.21674
6.03154
6.82515
7.57089
8.22809
8.73929
9.02957
9.00805
8.56487
0.431091
1.29612
2.16956
3.05661
3.96164
4.88754
5.83446
6.79788
7.76538
8.71186
9.59319
10.3398
10.8546
11.019
10.6915
0.4663
1.40306
2.3523
3.32235
4.32139
5.35709
6.43569
7.56017
8.72667
9.918
11.093
12.1724
13.0301
13.522
13.596
0.497352
1.49752
2.51424
3.55911
4.6445
5.78376
6.99105
8.28045
9.66314
11.1405
12.6885
14.2266
15.5713
16.4429
16.9437
0.522943
1.57543
2.64804
3.75535
4.91375
6.1424
7.46433
8.90746
10.505
12.2924
14.294
16.4742
18.5857
19.7341
17.4281
31812.3
31782.5
31752.4
31722
31691.2
31660.2
31628.9
31597.3
31565.5
31533.5
31501.3
31468.9
31436.3
31403.6
31370.8
31337.9
31305
31271.9
31238.9
31205.8
31172.7
31139.5
31106.4
31073.2
31040
31006.8
30973.6
30940.4
30907.2
30874
30840.7
30807.5
30774.3
30741.2
30708
30674.9
30641.8
30608.7
30575.7
30542.6
30509.6
30476.5
30443.5
30410.4
30377.4
30344.3
30311.3
30278.3
30245.4
30212.4
30179.5
30146.6
30113.8
30080.9
30048.1
30015.3
29982.4
29949.6
29916.8
29884
29851.2
29818.4
29785.7
29752.9
29720.3
29687.6
29655
29622.5
29589.9
29557.4
29524.9
29492.4
29459.9
29427.5
29395.1
29362.7
29330.3
29298
29265.7
29233.4
29201.1
29168.9
29136.6
29104.4
29072
29039.6
29007.1
28974.6
28941.9
28909.1
0.796913
0.759422
0.717806
0.674155
0.63022
0.587179
0.545513
0.505028
0.465017
0.424531
0.382697
0.339024
0.293623
0.247301
0.201497
0.158081
0.119042
0.086138
0.0605688
0.0427487
0.0322099
0.0276583
0.0271653
0.0284637
0.0292985
0.0277763
0.0226567
0.0135388
0.000908452
-0.0139661
-0.0292758
-0.0430096
-0.0533279
-0.0589011
-0.0591505
-0.0543533
-0.0455967
-0.0345942
-0.0233995
-0.0140638
-0.00829364
-0.00716394
-0.0109352
-0.0190065
-0.0300186
-0.0420918
-0.0531603
-0.0613409
-0.0652668
-0.064325
-0.0587587
-0.0496201
-0.0385871
-0.0276779
-0.0189091
-0.0139554
-0.0138633
-0.0188689
-0.0283507
-0.0409317
-0.0547163
-0.067622
-0.077746
-0.0836959
-0.0848245
-0.0813289
-0.0741998
-0.0650349
-0.0557481
-0.0482234
-0.0439677
-0.0438185
-0.0477543
-0.054842
-0.0633356
-0.0709142
-0.0750256
-0.0732762
-0.0638042
-0.0455793
-0.0185903
0.0160941
0.0563901
0.0993757
0.14156
0.179226
0.208816
0.227338
0.232721
0.224093
1.33808
1.27216
1.19947
1.12392
1.04881
0.976294
0.907139
0.840767
0.77557
0.709456
0.640491
0.567507
0.490543
0.411039
0.331718
0.256186
0.188321
0.131563
0.0882802
0.0593118
0.0437917
0.0392575
0.0420252
0.0477592
0.0521464
0.0515674
0.0436593
0.0276796
0.00460351
-0.0230714
-0.0517924
-0.077615
-0.096936
-0.107156
-0.107144
-0.0974355
-0.0801321
-0.0585456
-0.0366425
-0.018385
-0.00707236
-0.00478728
-0.0120374
-0.0276581
-0.0490054
-0.0724159
-0.0938619
-0.109675
-0.117199
-0.115251
-0.104309
-0.0864191
-0.0648312
-0.0434507
-0.0261805
-0.0162651
-0.015739
-0.0250694
-0.0430588
-0.0670361
-0.0933148
-0.117843
-0.136924
-0.147865
-0.149429
-0.142025
-0.127601
-0.109281
-0.0908047
-0.075864
-0.0674343
-0.0672125
-0.0752461
-0.0898234
-0.107655
-0.124327
-0.134968
-0.134995
-0.120827
-0.0904485
-0.0437445
0.0174011
0.0892343
0.166455
0.2427
0.311156
0.365257
0.399436
0.409822
0.394771
1.8948
1.7947
1.68527
1.57311
1.46372
1.36061
1.2648
1.17486
1.08749
0.998539
0.904128
0.801776
0.691181
0.574575
0.456544
0.343318
0.241673
0.157656
0.0954513
0.0565848
0.0396317
0.0404227
0.0526969
0.06908
0.0822341
0.086003
0.0763785
0.0521351
0.0150189
-0.0305697
-0.0783802
-0.121478
-0.153543
-0.170034
-0.16899
-0.15134
-0.120719
-0.0828351
-0.0445159
-0.0125835
0.00727227
0.0114454
-0.000958684
-0.0279352
-0.064891
-0.105438
-0.142543
-0.169811
-0.182637
-0.178991
-0.15973
-0.128406
-0.0906396
-0.0531672
-0.022723
-0.00491614
-0.00328319
-0.0186625
-0.0490061
-0.0896887
-0.134296
-0.175771
-0.207689
-0.2254
-0.226814
-0.212697
-0.18648
-0.153621
-0.120642
-0.094001
-0.0789555
-0.0785943
-0.0931921
-0.119998
-0.153522
-0.186309
-0.210079
-0.217037
-0.201079
-0.158715
-0.0895852
0.00342525
0.114425
0.235041
0.355159
0.463852
0.550478
0.605888
0.623636
0.600951
2.47447
2.33066
2.17502
2.01831
1.86957
1.73442
1.61403
1.50526
1.40171
1.29549
1.17921
1.04792
0.900483
0.740172
0.574456
0.413782
0.269645
0.152348
0.0690216
0.0223091
0.00992674
0.0250586
0.0574581
0.0950566
0.125842
0.139731
0.130154
0.0951321
0.0376386
-0.0348648
-0.111752
-0.181225
-0.232574
-0.258164
-0.254748
-0.223925
-0.171767
-0.107753
-0.0431947
0.0106052
0.0441959
0.0515446
0.0310985
-0.0138484
-0.0756131
-0.143425
-0.205398
-0.250756
-0.271806
-0.265229
-0.232535
-0.179685
-0.116038
-0.0527782
-0.00108324
0.0297072
0.0336539
0.00927594
-0.0400826
-0.106707
-0.179807
-0.24748
-0.29893
-0.326423
-0.32658
-0.300811
-0.254945
-0.198151
-0.141369
-0.0954583
-0.0693483
-0.0684511
-0.0935734
-0.140512
-0.200464
-0.261283
-0.309409
-0.332085
-0.319361
-0.265527
-0.169814
-0.0364549
0.125773
0.304349
0.484073
0.648331
0.780654
0.866579
0.89568
0.863359
3.08635
2.88368
2.66631
2.45202
2.25589
2.08698
1.94653
1.82815
1.7198
1.60691
1.4759
1.31735
1.12832
0.913557
0.685114
0.460439
0.258971
0.0981283
-0.0101281
-0.0613979
-0.0593948
-0.0151672
0.0547361
0.130847
0.193785
0.227251
0.220573
0.170489
0.0818725
-0.0328491
-0.155802
-0.267074
-0.348702
-0.388067
-0.379979
-0.327239
-0.239896
-0.133464
-0.0263923
0.0628835
0.118895
0.131654
0.0984218
0.0244391
-0.0776447
-0.189842
-0.292198
-0.366728
-0.400781
-0.389103
-0.334387
-0.246541
-0.140909
-0.0357641
0.0506295
0.102955
0.111348
0.0731553
-0.00632825
-0.114431
-0.233166
-0.342583
-0.4247
-0.466845
-0.463711
-0.4179
-0.339177
-0.242697
-0.146473
-0.0684345
-0.0234648
-0.0208688
-0.062567
-0.142311
-0.246179
-0.354557
-0.445406
-0.498121
-0.496856
-0.432654
-0.304262
-0.11791
0.113574
0.372006
0.635256
0.878798
1.07765
1.2091
1.25617
1.21104
3.74348
3.45787
3.15317
2.85957
2.603
2.39856
2.24725
2.1366
2.04443
1.94443
1.81227
1.63066
1.39324
1.10664
0.790355
0.473685
0.189802
-0.0318098
-0.171333
-0.221813
-0.189515
-0.0923614
0.0430796
0.18561
0.30417
0.372582
0.3735
0.301331
0.163698
-0.0189817
-0.216675
-0.395616
-0.525694
-0.586311
-0.569518
-0.48039
-0.335525
-0.160107
0.0160227
0.163048
0.255862
0.277974
0.224407
0.103172
-0.0651345
-0.250456
-0.419093
-0.541012
-0.595641
-0.574982
-0.483981
-0.339041
-0.165111
0.00821574
0.151364
0.239431
0.256086
0.196455
0.0685993
-0.106886
-0.299981
-0.477039
-0.608068
-0.672511
-0.662339
-0.582419
-0.449023
-0.286913
-0.12543
0.00616973
0.0833994
0.0904616
0.0231914
-0.109402
-0.285429
-0.473096
-0.636338
-0.741907
-0.764992
-0.692226
-0.522178
-0.264359
0.0625683
0.432724
0.814822
1.17363
1.4717
1.67312
1.74946
1.68663
4.46669
4.05954
3.62407
3.21381
2.87504
2.63364
2.48941
2.41847
2.38033
2.32829
2.21984
2.02433
1.729
1.34249
0.896152
0.439728
0.0309683
-0.279948
-0.460754
-0.501422
-0.413021
-0.224684
0.0212201
0.274897
0.486775
0.615108
0.631677
0.526445
0.310392
0.0165034
-0.304553
-0.594525
-0.802716
-0.896033
-0.863227
-0.713816
-0.475163
-0.187786
0.100333
0.341261
0.494624
0.533252
0.447814
0.249663
-0.0281484
-0.335122
-0.613295
-0.812225
-0.89895
-0.862189
-0.711285
-0.473325
-0.188485
0.0956114
0.33137
0.478698
0.51063
0.417956
0.212067
-0.0740283
-0.389935
-0.677825
-0.887369
-0.985671
-0.961451
-0.823994
-0.600266
-0.330271
-0.0614043
0.159022
0.291261
0.308789
0.202976
-0.013986
-0.307947
-0.626836
-0.910341
-1.10449
-1.17117
-1.09189
-0.866492
-0.510329
-0.0506874
0.476246
1.02793
1.55591
2.00497
2.31727
2.44316
2.3554
5.29333
4.70204
4.05867
3.46509
3.0069
2.72881
2.62603
2.6531
2.73624
2.79341
2.75278
2.56176
2.19608
1.6645
1.01648
0.337142
-0.268751
-0.715437
-0.951967
-0.966884
-0.780427
-0.439895
-0.0118261
0.424382
0.78969
1.01858
1.06525
0.911144
0.569172
0.0911083
-0.437195
-0.911208
-1.24516
-1.38738
-1.32486
-1.07576
-0.68498
-0.216549
0.252579
0.645549
0.898585
0.967164
0.833502
0.51084
0.0507999
-0.461294
-0.921642
-1.24505
-1.38012
-1.31381
-1.064
-0.675164
-0.210838
0.252563
0.638668
0.884084
0.944553
0.802432
0.470978
0.00170281
-0.520291
-0.991484
-1.32692
-1.47532
-1.42368
-1.18986
-0.818192
-0.372061
0.07232
0.438807
0.664253
0.704675
0.542769
0.192266
-0.294608
-0.83156
-1.31304
-1.65065
-1.78753
-1.702
-1.39911
-0.905316
-0.260848
0.48412
1.27517
2.05184
2.73515
3.22988
3.44453
3.32205
6.29748
5.41958
4.42164
3.52146
2.87941
2.57155
2.57565
2.807
3.12957
3.39938
3.50228
3.35071
2.90206
2.15418
1.18193
0.1288
-0.797724
-1.45355
-1.7623
-1.72232
-1.3697
-0.781158
-0.056588
0.675968
1.28905
1.68444
1.78796
1.56637
1.02392
0.238053
-0.648027
-1.42958
-1.96373
-2.17358
-2.05519
-1.64176
-1.00663
-0.246342
0.514469
1.15131
1.56813
1.69227
1.49132
0.969803
0.204664
-0.662028
-1.42723
-1.94915
-2.15134
-2.02971
-1.61697
-0.985779
-0.231924
0.520755
1.14849
1.55572
1.67014
1.45947
0.928281
0.153276
-0.723874
-1.50071
-2.03586
-2.25309
-2.14835
-1.75428
-1.14343
-0.411407
0.318137
0.92162
1.30361
1.39185
1.15408
0.594832
-0.209206
-1.1162
-1.92296
-2.48591
-2.72417
-2.62512
-2.20664
-1.5173
-0.615756
0.425596
1.54303
2.68213
3.73677
4.5457
4.93124
4.76406
7.63811
6.31005
4.64396
3.20621
2.27079
1.96508
2.19804
2.82953
3.59886
4.24572
4.6182
4.56749
4.03894
2.96695
1.46386
-0.261855
-1.71651
-2.69145
-3.0748
-2.92797
-2.29869
-1.31831
-0.112854
1.09959
2.10189
2.77061
2.97881
2.68362
1.82918
0.529291
-1.00939
-2.30425
-3.14933
-3.43245
-3.21043
-2.52703
-1.50857
-0.276925
0.954828
1.97387
2.6591
2.88547
2.61068
1.77953
0.504702
-1.00897
-2.28322
-3.11373
-3.38896
-3.16491
-2.48458
-1.47312
-0.25141
0.968773
1.97574
2.64893
2.86374
2.57798
1.73657
0.45184
-1.07201
-2.35808
-3.2027
-3.49463
-3.28974
-2.63097
-1.64325
-0.447293
0.745375
1.72328
2.36585
2.54837
2.22823
1.34981
0.0243787
-1.54525
-2.88403
-3.78875
-4.14658
-4.00823
-3.40428
-2.4349
-1.17208
0.257375
1.7795
3.43374
5.09184
6.47077
7.21339
7.00636
9.67797
7.68738
4.53754
2.16775
0.755592
0.583026
1.24661
2.65358
4.24451
5.48717
6.34351
6.47236
5.9584
4.40052
2.06635
-1.04284
-3.32608
-4.78124
-5.15078
-4.82837
-3.73329
-2.17956
-0.179201
1.82584
3.39505
4.51995
4.89451
4.60619
3.27588
1.16437
-1.72189
-3.82665
-5.1442
-5.41878
-5.0301
-3.89484
-2.31755
-0.307712
1.70144
3.27707
4.41078
4.80027
4.53115
3.22809
1.14861
-1.70078
-3.77827
-5.07801
-5.34566
-4.95724
-3.82915
-2.26335
-0.268798
1.72372
3.28351
4.40207
4.77806
4.49652
3.18313
1.09462
-1.76265
-3.85127
-5.16555
-5.45169
-5.08483
-3.98148
-2.44304
-0.47857
1.48174
3.00772
4.09045
4.4286
4.10618
2.7484
0.609518
-2.30681
-4.4702
-5.87918
-6.28355
-6.06186
-5.12818
-3.77515
-1.96852
-0.0445594
1.82535
4.1793
6.84834
9.31144
10.8623
10.7128
13.2573
10.7337
3.30739
-0.249977
-2.54462
-2.003
-0.775275
2.21278
5.39169
7.28495
9.11644
9.3029
9.38111
6.952
3.78486
-3.01316
-6.12807
-8.43432
-8.22318
-7.84141
-5.82834
-3.68394
-0.252279
3.17969
5.32807
7.34978
7.7648
8.02924
5.84751
2.91512
-3.55978
-6.48262
-8.64096
-8.36025
-7.92487
-5.89919
-3.74942
-0.33753
3.0723
5.21661
7.23411
7.66347
7.94049
5.79464
2.90116
-3.50418
-6.39333
-8.52857
-8.24718
-7.81475
-5.80408
-3.67105
-0.283324
3.10171
5.22657
7.22447
7.63916
7.90083
5.74579
2.84433
-3.56024
-6.45957
-8.60899
-8.34917
-7.94054
-5.95859
-3.85641
-0.503944
2.84348
4.93033
6.88717
7.25997
7.47496
5.27169
2.31413
-4.15264
-7.14273
-9.41626
-9.32203
-9.14079
-7.45596
-5.76873
-2.93411
-0.268963
1.17385
4.47084
8.9011
13.4654
16.9596
17.4686
20.0263
20.8388
-3.49445
-4.48636
-9.9292
-5.57705
-5.33204
1.49715
8.39018
9.17171
14.2582
12.2893
16.4144
10.5662
10.7319
-10.2872
-10.0945
-15.7125
-11.5413
-13.2035
-8.11256
-7.04199
-0.325817
6.38188
7.44349
12.4932
10.8519
14.9748
9.50007
9.76705
-10.5127
-10.2395
-15.65
-11.5245
-13.1098
-8.08232
-6.99881
-0.364454
6.26542
7.3387
12.3443
10.746
14.8387
9.43774
9.71068
-10.371
-10.0942
-15.4592
-11.3663
-12.9451
-7.95535
-6.88565
-0.294125
6.29423
7.35233
12.3265
10.7205
14.7851
9.38314
9.63836
-10.4055
-10.1479
-15.5219
-11.4611
-13.062
-8.10898
-7.07034
-0.52221
6.02028
7.03998
11.9647
10.3184
14.3259
8.88103
9.07186
-11.005
-10.8472
-16.363
-12.4858
-14.3849
-9.78729
-9.41469
-3.65596
1.26655
-2.14772
3.13071
10.7612
19.1607
27.3559
31.943
29.6672
67.1609
-43.9084
-2.31393
-31.419
-3.23727
-19.3706
0.689103
20.1888
4.85876
29.5592
6.49996
37.8084
5.52006
48.1842
-48.1069
-5.6946
-37.0879
-6.46025
-28.2912
-4.60836
-18.5307
-0.38815
17.7135
3.81497
27.2708
5.63761
35.7397
4.88337
46.205
-47.0633
-5.81358
-36.3926
-6.46696
-27.8186
-4.58792
-18.2432
-0.386693
17.4583
3.79642
26.9624
5.63156
35.4057
4.90842
45.8288
-46.5562
-5.67305
-36.0117
-6.32075
-27.5365
-4.4642
-18.0542
-0.302816
17.4479
3.83639
26.9018
5.63337
35.2987
4.87163
45.6605
-46.4876
-5.72917
-36.0235
-6.42265
-27.6237
-4.62517
-18.2204
-0.534862
17.1474
3.52387
26.5022
5.23303
34.7857
4.37267
45.0128
-46.9972
-6.38346
-36.8372
-7.3335
-28.9862
-6.03645
-20.8189
-3.17575
14.8052
-17.9835
-1.59306
11.5174
25.1534
42.9513
71.5796
28872.9
28833.2
28793.5
28753.7
28713.9
28674
28634.3
28594.6
28555
28515.5
28476.1
28436.9
28397.7
28358.6
28319.5
0.199684
0.156229
0.100956
0.040013
-0.0203349
-0.0745624
-0.118439
-0.149254
-0.165775
-0.168045
-0.157095
-0.134671
-0.102986
-0.0645356
-0.0219727
0.351156
0.273226
0.174331
0.0658466
-0.0408321
-0.135883
-0.212003
-0.264715
-0.292194
-0.294818
-0.274619
-0.234772
-0.179172
-0.112125
-0.0381481
0.533049
0.411255
0.257356
0.0899314
-0.0729054
-0.216088
-0.328933
-0.405373
-0.44344
-0.444389
-0.411771
-0.350613
-0.266798
-0.166641
-0.0566421
0.762666
0.581397
0.353911
0.109434
-0.124628
-0.326624
-0.482263
-0.584402
-0.6318
-0.627525
-0.577461
-0.48911
-0.370765
-0.231001
-0.0784212
1.0637
0.797755
0.467455
0.118524
-0.208416
-0.483516
-0.689091
-0.818169
-0.871829
-0.85645
-0.781437
-0.657601
-0.496151
-0.308176
-0.104463
1.46996
1.07847
0.599632
0.10562
-0.344045
-0.709936
-0.972417
-1.12735
-1.18089
-1.14501
-1.03424
-0.863704
-0.648061
-0.40109
-0.135718
2.03137
1.44654
0.747
0.0483747
-0.563447
-1.03977
-1.36329
-1.53793
-1.57939
-1.50845
-1.34679
-1.11492
-0.8313
-0.512404
-0.173036
2.82414
1.92938
0.893492
-0.0956377
-0.918323
-1.5224
-1.90306
-2.08167
-2.09029
-1.9626
-1.72957
-1.41786
-1.04982
-0.644187
-0.217059
3.96847
2.55337
0.993256
-0.406039
-1.49176
-2.22839
-2.64488
-2.79542
-2.73748
-2.5221
-2.19103
-1.77713
-1.30593
-0.797466
-0.26807
5.65967
3.32212
0.932072
-1.03005
-2.41424
-3.25447
-3.65261
-3.71764
-3.54212
-3.19728
-2.73532
-2.19371
-1.5993
-0.971676
-0.325827
8.21874
4.14291
0.442633
-2.23221
-3.88075
-4.72261
-4.99342
-4.88037
-4.51607
-3.98957
-3.35925
-2.66309
-1.92587
-1.16411
-0.389388
12.1325
4.5878
-1.07258
-4.46096
-6.15408
-6.76184
-6.71806
-6.29435
-5.65221
-4.88568
-4.04904
-3.17352
-2.27696
-1.36952
-0.456998
17.7701
3.14831
-4.85995
-8.38515
-9.51294
-9.45268
-8.82264
-7.92675
-6.91275
-5.85187
-4.77769
-3.70497
-2.63895
-1.58001
-0.526077
22.5685
-4.9045
-13.1304
-14.7069
-14.0599
-12.7133
-11.1931
-9.67727
-8.22015
-6.83137
-5.50489
-4.22972
-2.99386
-1.7855
-0.593378
0.540896
1.63005
2.74177
3.89269
5.10212
6.39372
7.79781
9.35495
11.1212
13.1752
15.6256
18.6004
22.1285
25.4205
22.8406
0.55161
1.66254
2.79714
3.97302
5.21091
6.53676
7.98494
9.60363
11.4646
13.6816
16.4505
20.1465
25.6067
35.1185
56.5359
0.55697
1.67861
2.82385
4.01029
5.25864
6.59488
8.05365
9.68411
11.5607
13.8047
16.6316
20.4676
26.2713
36.549
58.9634
0.556986
1.67827
2.82196
4.00458
5.24534
6.56791
8.00317
9.5937
11.4017
13.5229
16.1121
19.4223
23.8289
29.5519
34.1866
0.551924
1.66239
2.79305
3.9585
5.17523
6.46271
7.84487
9.3523
11.0251
12.9163
15.0919
17.6158
20.4729
23.3111
24.9655
0.542266
1.63249
2.73998
3.87682
5.05602
6.29176
7.59959
8.99607
10.497
12.1121
13.8297
15.5779
17.1301
17.8927
16.4233
0.528657
1.59061
2.66652
3.76574
4.89755
6.07077
7.29278
8.56731
9.88966
11.2367
12.5462
13.6761
14.3356
14.0242
12.3664
0.511824
1.53905
2.57689
3.63204
4.71033
5.81591
6.94953
8.10537
9.26519
10.3874
11.3874
12.101
12.2153
11.0909
7.02959
0.49251
1.48011
2.47525
3.48227
4.50418
5.54161
6.59086
7.64069
8.66685
9.62313
10.4274
10.9422
10.9552
10.197
8.63577
0.471408
1.41594
2.36537
3.32216
4.28727
5.25911
6.2318
7.19246
8.11707
8.96441
9.6685
10.1319
10.2306
9.86078
9.08923
0.449117
1.34836
2.2504
3.15629
4.0657
4.97604
5.88112
6.76931
7.62096
8.40522
9.07676
9.5749
9.83146
9.80358
9.56816
0.426128
1.27885
2.13276
2.98797
3.8435
4.69664
5.54218
6.37154
7.17169
7.92434
8.60549
9.1857
9.62987
9.89054
9.87427
0.402819
1.20851
2.01422
2.81945
3.62298
4.42252
5.21451
5.99408
6.75544
7.49314
8.20434
8.89102
9.55575
10.1699
10.5849
0.379475
1.13817
1.89601
2.65212
3.40524
4.15366
4.89549
5.62928
6.35564
7.08038
7.82025
8.61161
9.51682
10.5875
11.5389
0.356308
1.06843
1.77901
2.48689
3.19077
3.8894
4.58207
5.26967
5.957
6.65715
7.40044
8.25319
9.36305
11.0879
14.4335
0.333487
0.999758
1.6639
2.32444
2.97996
3.6293
4.27218
4.91027
5.54947
6.204
6.90464
7.71627
8.78226
10.4628
13.8688
0.311157
0.932574
1.55129
2.16549
2.77344
3.37372
3.96563
4.55013
5.13131
5.71886
6.3318
7.00274
7.77474
8.63959
9.10224
0.289453
0.867272
1.44182
2.01088
2.57227
3.12395
3.66425
4.19233
4.70876
5.21611
5.71873
6.21908
6.7028
7.09573
7.21136
0.268505
0.804248
1.33616
1.86161
2.37787
2.8821
3.37137
3.84263
4.29255
4.71668
5.10726
5.447
5.69396
5.74448
5.32896
0.248439
0.743887
1.235
1.71874
2.19183
2.65065
3.09101
3.50779
3.89426
4.24059
4.53111
4.73938
4.82156
4.71693
4.41333
0.229368
0.686542
1.13897
1.58327
2.01572
2.43204
2.82703
3.19402
3.52387
3.80329
4.01212
4.11937
4.07893
3.82757
3.27051
0.211384
0.632498
1.04858
1.45603
1.85083
2.22826
2.58253
2.90606
3.18851
3.41503
3.56371
3.60194
3.48281
3.15053
2.62235
0.194548
0.581951
0.964199
1.33759
1.698
2.04058
2.35937
2.64666
2.89203
3.08086
3.19202
3.19381
3.03473
2.60956
1.5887
0.178891
0.53499
0.88597
1.22818
1.55757
1.86944
2.15811
2.41638
2.63482
2.80065
2.89629
2.89744
2.77145
2.4823
2.05267
0.164403
0.491585
0.813839
1.12768
1.42932
1.71443
1.97798
2.21379
2.41417
2.56921
2.66622
2.68939
2.62151
2.45261
2.20436
0.151045
0.451608
0.747554
1.03567
1.31254
1.57442
1.81711
2.03584
2.22501
2.37809
2.48744
2.54458
2.54176
2.47804
2.38044
0.138747
0.41484
0.686712
0.951484
1.20619
1.44773
1.67291
1.87842
2.06095
2.21737
2.34494
2.44144
2.50434
2.52703
2.48556
0.127423
0.381008
0.630807
0.874298
1.10898
1.33243
1.54238
1.73697
1.91504
2.0767
2.22406
2.36167
2.49486
2.62059
2.70475
0.116977
0.349808
0.579287
0.803236
1.01959
1.2265
1.42255
1.60702
1.78054
1.94598
2.10997
2.28499
2.4906
2.74307
2.96881
0.107311
0.32094
0.531614
0.737457
0.936765
1.12815
1.31076
1.48469
1.65168
1.8163
1.98824
2.18709
2.45384
2.88415
3.74282
0.0983368
0.294128
0.487302
0.676224
0.859454
1.03589
1.205
1.3672
1.52449
1.68155
1.84784
2.04208
2.30354
2.7278
3.60464
0.0899763
0.269136
0.445948
0.618952
0.786871
0.948734
1.10406
1.25315
1.39748
1.54041
1.68808
1.8504
2.04023
2.25719
2.37497
0.0821674
0.245779
0.407243
0.565218
0.718502
0.866128
1.00747
1.1424
1.27146
1.39601
1.51815
1.63966
1.7581
1.85552
1.88497
0.0748623
0.223915
0.370968
0.514748
0.654073
0.787897
0.915347
1.03575
1.14859
1.25332
1.34867
1.43109
1.4906
1.50107
1.39274
0.0680249
0.203442
0.33697
0.467378
0.593473
0.714102
0.82813
0.934365
1.03138
1.11714
1.18821
1.23845
1.25717
1.22917
1.15172
0.0616278
0.184284
0.305144
0.423011
0.536678
0.644902
0.746335
0.839395
0.922011
0.99118
1.04222
1.06771
1.05623
0.991623
0.848619
0.0556477
0.166377
0.275401
0.381566
0.483671
0.580427
0.670368
0.75169
0.821991
0.877824
0.914011
0.922666
0.892187
0.808543
0.676324
0.0500619
0.149655
0.247649
0.342946
0.434385
0.520695
0.600396
0.671653
0.732033
0.778126
0.804932
0.804818
0.765084
0.659213
0.403023
0.0448452
0.134047
0.221775
0.30701
0.38867
0.465562
0.536298
0.59918
0.652012
0.691836
0.714564
0.7145
0.683926
0.614286
0.511576
0.0399684
0.119466
0.197635
0.273561
0.346274
0.414711
0.477665
0.533697
0.581035
0.617433
0.640039
0.645385
0.629913
0.592337
0.540563
0.0353977
0.105808
0.175057
0.242349
0.306852
0.367677
0.423847
0.474263
0.517669
0.552621
0.577514
0.590742
0.591264
0.580264
0.565616
0.0310952
0.0929595
0.153842
0.213079
0.269992
0.323884
0.374034
0.419709
0.460184
0.494806
0.523103
0.544938
0.560633
0.570741
0.574668
0.0270199
0.0807944
0.133773
0.185427
0.235236
0.282695
0.327337
0.368774
0.406775
0.441397
0.473193
0.503413
0.533896
0.565527
0.593194
0.0231297
0.069184
0.114626
0.159061
0.202117
0.24347
0.282875
0.320236
0.355722
0.389964
0.424391
0.46172
0.50638
0.563084
0.622847
0.0193826
0.0580006
0.0961819
0.133656
0.170187
0.205604
0.239839
0.27301
0.305543
0.338413
0.373587
0.414952
0.470517
0.558536
0.727101
0.0157384
0.0471219
0.0782317
0.108909
0.139036
0.168563
0.19755
0.226234
0.255139
0.285274
0.318497
0.358337
0.412133
0.498075
0.673843
0.0121596
0.0364348
0.0605842
0.0845482
0.108307
0.131903
0.155478
0.179312
0.203892
0.229999
0.258825
0.292046
0.331441
0.375258
0.394104
0.00861203
0.0258364
0.0430679
0.0603331
0.0776936
0.095264
0.113232
0.131878
0.151591
0.172848
0.196111
0.22148
0.247695
0.269802
0.277564
0.00506466
0.0152343
0.0255301
0.0360546
0.0469386
0.0583533
0.07052
0.083711
0.098226
0.114311
0.131945
0.150337
0.166814
0.174323
0.154659
0.0014897
0.00454568
0.00783541
0.011529
0.0158183
0.0209245
0.0271017
0.0346297
0.0437772
0.0547067
0.0672601
0.080534
0.0921709
0.097724
0.0935524
-0.00213805
-0.00630431
-0.0101382
-0.0134079
-0.0158663
-0.0172447
-0.0172503
-0.0155713
-0.0119035
-0.00601893
0.00208239
0.0118762
0.0217613
0.0278873
0.02013
-0.00584178
-0.0173843
-0.0285022
-0.0389065
-0.0482985
-0.0563643
-0.0627686
-0.0671494
-0.0691189
-0.0682787
-0.0642647
-0.0568388
-0.0460311
-0.0323014
-0.0167822
-0.00964319
-0.0287585
-0.0473606
-0.0651064
-0.0816497
-0.0966354
-0.109689
-0.120399
-0.128282
-0.132738
-0.132977
-0.127897
-0.115848
-0.0937279
-0.0522879
-0.0135632
-0.0404886
-0.0668127
-0.0921402
-0.116081
-0.138246
-0.158236
-0.175608
-0.189821
-0.200124
-0.205378
-0.203793
-0.192655
-0.168568
-0.131636
-0.0176226
-0.0526357
-0.0869564
-0.120136
-0.151744
-0.181366
-0.208598
-0.23301
-0.254075
-0.271015
-0.282526
-0.286319
-0.278451
-0.252326
-0.194898
-0.0218432
-0.0652634
-0.107892
-0.149224
-0.188785
-0.226146
-0.260918
-0.292736
-0.321191
-0.345674
-0.365033
-0.376943
-0.376925
-0.357822
-0.315706
-0.0262485
-0.0784407
-0.129728
-0.17954
-0.227355
-0.272723
-0.315289
-0.354796
-0.391066
-0.42389
-0.452713
-0.475849
-0.488653
-0.479299
-0.417289
-0.0308654
-0.0922463
-0.152589
-0.211243
-0.267623
-0.321248
-0.371784
-0.419104
-0.463335
-0.504887
-0.544344
-0.581931
-0.615771
-0.637342
-0.626922
-0.0357254
-0.106773
-0.176624
-0.244526
-0.309806
-0.371918
-0.430515
-0.485558
-0.537465
-0.587341
-0.637274
-0.690619
-0.751412
-0.817605
-0.835323
-0.0408656
-0.122131
-0.202012
-0.27963
-0.35419
-0.425029
-0.491716
-0.554191
-0.613009
-0.669757
-0.727838
-0.794137
-0.883306
-1.03154
-1.35148
-0.0463294
-0.138451
-0.228971
-0.316861
-0.401158
-0.481026
-0.555845
-0.625367
-0.689993
-0.751252
-0.812701
-0.881779
-0.97419
-1.12623
-1.43541
-0.0521664
-0.155884
-0.257759
-0.356587
-0.451204
-0.540532
-0.623653
-0.699946
-0.76932
-0.832619
-0.89227
-0.953223
-1.02367
-1.11181
-1.1962
-0.0584313
-0.174596
-0.288664
-0.399239
-0.504925
-0.604351
-0.696208
-0.779334
-0.852871
-0.916523
-0.97094
-1.01808
-1.06088
-1.10001
-1.1241
-0.0651814
-0.194764
-0.321998
-0.445287
-0.562996
-0.673429
-0.774829
-0.865386
-0.943292
-1.00685
-1.05467
-1.08596
-1.10063
-1.09868
-1.07708
-0.0724736
-0.216565
-0.358071
-0.495214
-0.626122
-0.748784
-0.860983
-0.96023
-1.04368
-1.1081
-1.14989
-1.16539
-1.15194
-1.11099
-1.05651
-0.0803606
-0.240161
-0.397177
-0.549473
-0.694979
-0.831408
-0.956138
-1.06605
-1.1573
-1.22508
-1.26337
-1.26493
-1.22236
-1.13272
-1.01102
-0.0888874
-0.265693
-0.439563
-0.608449
-0.770142
-0.922162
-1.06159
-1.18482
-1.28722
-1.36255
-1.40238
-1.39512
-1.32546
-1.17673
-0.959805
-0.0980879
-0.293263
-0.485412
-0.672424
-0.852027
-1.02166
-1.17829
-1.31808
-1.43593
-1.5247
-1.57408
-1.56867
-1.48349
-1.26811
-0.765625
-0.107984
-0.322937
-0.534829
-0.741547
-0.940838
-1.1302
-1.3067
-1.46659
-1.60484
-1.7142
-1.78386
-1.79761
-1.73196
-1.55886
-1.28588
-0.118584
-0.354738
-0.587844
-0.815829
-1.03655
-1.24769
-1.44663
-1.63014
-1.79383
-1.93127
-2.03247
-2.0817
-2.05506
-1.91899
-1.62137
-0.129888
-0.388659
-0.644415
-0.895162
-1.13891
-1.37365
-1.59729
-1.80745
-2.00106
-2.17353
-2.31719
-2.41848
-2.45418
-2.39132
-2.22095
-0.141892
-0.424673
-0.704469
-0.979358
-1.24753
-1.50733
-1.75733
-1.99627
-2.22297
-2.43582
-2.63135
-2.80081
-2.92178
-2.93832
-2.70574
-0.154591
-0.462762
-0.767933
-1.06822
-1.36197
-1.64783
-1.92504
-2.19359
-2.45452
-2.71014
-2.96364
-3.21684
-3.46191
-3.65835
-3.70587
-0.167994
-0.502937
-0.834788
-1.16164
-1.48187
-1.79436
-2.09879
-2.39621
-2.68977
-2.98594
-3.29614
-3.63855
-4.03583
-4.48184
-4.71109
-0.182123
-0.54526
-0.905116
-1.25966
-1.60717
-1.94647
-2.27741
-2.60151
-2.92323
-3.25201
-3.6063
-4.02219
-4.57594
-5.45589
-7.24375
-0.197022
-0.589864
-0.979134
-1.36257
-1.73816
-2.10441
-2.46078
-2.80849
-3.1518
-3.50039
-3.8737
-4.31011
-4.88954
-5.7995
-7.5611
-0.212755
-0.636951
-1.05721
-1.47093
-1.87565
-2.26922
-2.65019
-3.01852
-3.37671
-3.73162
-4.09731
-4.49875
-4.97366
-5.55173
-6.08567
-0.229402
-0.686774
-1.13982
-1.58555
-2.02089
-2.44277
-2.84838
-3.23561
-3.60391
-3.95539
-4.29611
-4.63638
-4.98616
-5.33464
-5.59975
-0.247043
-0.739605
-1.22751
-1.70738
-2.17548
-2.62764
-3.05933
-3.46585
-3.8428
-4.18664
-4.49525
-4.76744
-4.99959
-5.1755
-5.24176
-0.265743
-0.795671
-1.32078
-1.83739
-2.34114
-2.82674
-3.28777
-3.71665
-4.10469
-4.44238
-4.71969
-4.92631
-5.05211
-5.09253
-5.07804
-0.285527
-0.855083
-1.41995
-1.97634
-2.51942
-3.04289
-3.53854
-3.99581
-4.40156
-4.74005
-4.99325
-5.14133
-5.16391
-5.04769
-4.82512
-0.306349
-0.917752
-1.52502
-2.12453
-2.71131
-3.27838
-3.81597
-4.31075
-4.74514
-5.09697
-5.3398
-5.44349
-5.37209
-5.07667
-4.55709
-0.328072
-0.983296
-1.63547
-2.28155
-2.91689
-3.53434
-4.12313
-4.66764
-5.14606
-5.52957
-5.78298
-5.86721
-5.73579
-5.26124
-3.69543
-0.350434
-1.05096
-1.75015
-2.44604
-3.13491
-3.81019
-4.46104
-5.07043
-5.61289
-6.05253
-6.34363
-6.44065
-6.33772
-6.20355
-6.87897
-0.373035
-1.11955
-1.86711
-2.6154
-3.36236
-4.10301
-4.82773
-5.51969
-6.15113
-6.67863
-7.03901
-7.15287
-6.96128
-6.58367
-6.92014
-0.395326
-1.18741
-1.98357
-2.78569
-3.59419
-4.40689
-5.21718
-6.01099
-6.76153
-7.42077
-7.90556
-8.07713
-7.71398
-6.46798
-3.64075
-0.41662
-1.25244
-2.09589
-2.95155
-3.82309
-4.71242
-5.61808
-6.53232
-7.43534
-8.28404
-8.98955
-9.37266
-9.07973
-7.45039
-3.45462
-0.43612
-1.31218
-2.19972
-3.10637
-4.03965
-5.00661
-6.01302
-7.06144
-8.14685
-9.24673
-10.2974
-11.1376
-11.3735
-10.0762
-5.29172
-0.452965
-1.36395
-2.29027
-3.24269
-4.2328
-5.2734
-6.37878
-7.56484
-8.84833
-10.2436
-11.7513
-13.3222
-14.7319
-15.1235
-11.1559
-0.466297
-1.40507
-2.3627
-3.35283
-4.39089
-5.49519
-6.68851
-8.00058
-9.47219
-11.1623
-13.1615
-15.6186
-18.7975
-23.1979
-29.759
-12.152
-27.7663
-26.2385
-22.4073
-18.8511
-15.871
-13.3759
-11.2408
-9.36625
-7.68009
-6.13041
-4.67905
-3.29689
-1.96066
-0.650705
-119.77
-62.4203
-40.2712
-29.3375
-22.8232
-18.3962
-15.0977
-12.4698
-10.268
-8.34969
-6.62541
-5.03558
-3.53785
-2.10015
-0.696387
-133.137
-72.6297
-46.5155
-33.1986
-25.3456
-20.1379
-16.3536
-13.4029
-10.973
-8.88451
-7.02704
-5.32813
-3.73711
-2.21606
-0.734438
-73.0141
-58.9547
-43.8725
-33.2651
-26.0309
-20.8909
-17.0308
-13.9743
-11.4409
-9.25889
-7.31854
-5.54576
-3.88779
-2.30459
-0.763637
-51.4749
-45.9897
-38.1219
-30.9889
-25.2619
-20.7551
-17.1498
-14.1825
-11.6647
-9.46546
-7.49365
-5.68367
-3.98653
-2.36377
-0.78334
-32.6497
-34.6792
-31.8608
-27.7361
-23.6456
-19.9932
-16.8257
-14.0786
-11.6671
-9.51412
-7.55638
-5.7432
-4.03361
-2.39355
-0.793495
-24.072
-26.735
-26.5068
-24.4594
-21.725
-18.8945
-16.2096
-13.7417
-11.49
-9.42717
-7.51871
-5.7308
-4.03241
-2.39554
-0.794578
-13.3882
-20.7987
-22.4159
-21.6597
-19.8712
-17.6948
-15.4428
-13.2547
-11.1818
-9.23297
-7.39732
-5.65623
-3.98849
-2.37259
-0.787463
-16.153