/*--------------------------------*- C++ -*----------------------------------*\
| =========                 |                                                 |
| \\      /  F ield         | OpenFOAM: The Open Source CFD Toolbox           |
|  \\    /   O peration     | Version:  5.x                                   |
|   \\  /    A nd           | Web:      www.OpenFOAM.org                      |
|    \\/     M anipulation  |                                                 |
\*---------------------------------------------------------------------------*/
FoamFile
{
    version     2.0;
    format      ascii;
    class       volScalarField;
    location    "5.9001";
    object      gradTx;
}
// * * * * * * * * * * * * * * * * * * * * * * * * * * * * * * * * * * * * * //

dimensions      [0 -1 0 1 0 0 0];

internalField   nonuniform List<scalar> 
6300
(
-31.4056
-31.4764
-31.6173
-31.827
-32.103
-32.4424
-32.8407
-33.2927
-33.7915
-34.3291
-34.8961
-35.4823
-36.0765
-36.6676
-37.2451
-31.3349
-31.4064
-31.5487
-31.7606
-32.0398
-32.3834
-32.7872
-33.2459
-33.7527
-34.2996
-34.8771
-35.4743
-36.0797
-36.6814
-37.2681
-31.1927
-31.2655
-31.4106
-31.6269
-31.9124
-32.2643
-32.6789
-33.151
-33.674
-34.2398
-34.8384
-35.4582
-36.0866
-36.7103
-37.3162
-30.9777
-31.0525
-31.2015
-31.4241
-31.7185
-32.0827
-32.5131
-33.0052
-33.5527
-34.1472
-34.7784
-35.4337
-36.0984
-36.7569
-37.3935
-30.6881
-30.7652
-30.9191
-31.1494
-31.4551
-31.8348
-32.2858
-32.8042
-33.3844
-34.0181
-34.6945
-35.3997
-36.1165
-36.8256
-37.5069
-30.3215
-30.4011
-30.5603
-30.7993
-31.1179
-31.5156
-31.991
-32.5416
-33.1625
-33.8464
-34.582
-35.3541
-36.1423
-36.9224
-37.667
-29.8755
-29.9575
-30.1219
-30.3696
-30.7016
-31.1187
-31.6213
-32.2087
-32.8779
-33.6229
-34.4332
-35.2923
-36.1765
-37.0546
-37.889
-29.3474
-29.4315
-29.6004
-29.8558
-30.2003
-30.6364
-31.167
-31.7939
-32.5174
-33.3343
-34.2358
-35.2056
-36.2169
-37.2304
-38.1942
-28.7355
-28.8206
-28.9923
-29.2532
-29.6073
-30.0597
-30.6163
-31.2828
-32.0638
-32.961
-33.9701
-35.0774
-36.255
-37.4563
-38.6105
-28.0385
-28.1233
-28.295
-28.5574
-28.9161
-29.379
-29.9557
-30.6571
-31.4941
-32.4759
-33.6064
-34.8789
-36.2696
-37.7292
-39.1698
-27.2566
-27.3394
-27.5073
-27.7652
-28.1208
-28.5847
-29.1707
-29.8958
-30.7797
-31.8423
-33.1008
-34.5622
-36.2155
-38.0211
-39.893
-26.3921
-26.4703
-26.6295
-26.8754
-27.2173
-27.6683
-28.2465
-28.9759
-29.8864
-31.0131
-32.3922
-34.0537
-36.0093
-38.2468
-40.738
-25.4494
-25.5203
-25.6651
-25.8899
-26.2047
-26.6246
-27.1713
-27.8751
-28.7772
-29.9314
-31.4015
-33.2511
-35.521
-38.219
-41.4382
-24.4358
-24.4966
-24.6208
-24.8143
-25.0871
-25.4543
-25.9391
-26.5759
-27.416
-28.5338
-30.0313
-32.0281
-34.6043
-37.6694
-41.0709
-23.3617
-23.4094
-23.5072
-23.6597
-23.8751
-24.1666
-24.555
-25.0736
-25.7772
-26.7565
-28.162
-30.2255
-33.1977
-36.7806
-37.3401
-37.7555
-38.1969
-38.6145
-39.0063
-39.3716
-39.7102
-40.0226
-40.3093
-40.5706
-40.8064
-41.0162
-41.1991
-41.3541
-41.4806
-41.5784
-41.6485
-41.6928
-41.7142
-41.7165
-41.7039
-41.6806
-41.6503
-41.616
-41.5793
-41.5408
-41.4997
-41.4547
-41.4037
-41.3448
-41.2766
-41.1983
-41.1104
-41.0141
-40.9117
-40.806
-40.6998
-40.5956
-40.4952
-40.3993
-40.3077
-40.2191
-40.1315
-40.0425
-39.9498
-39.8516
-39.7469
-39.6358
-39.5193
-39.3994
-39.2785
-39.1591
-39.0436
-38.9333
-38.8291
-38.7305
-38.6362
-38.5441
-38.452
-38.3577
-38.2592
-38.1557
-38.0471
-37.9345
-37.8197
-37.705
-37.593
-37.4857
-37.3849
-37.2911
-37.2043
-37.1234
-37.0467
-36.9726
-36.8992
-36.8258
-36.7521
-36.6793
-36.6096
-36.5464
-36.4934
-36.4549
-36.4346
-36.4356
-36.4596
-36.5069
-36.5758
-36.6628
-36.763
-36.8702
-36.9775
-37.7854
-38.2313
-38.6516
-39.0447
-39.41
-39.748
-40.0596
-40.3459
-40.6073
-40.8439
-41.055
-41.2393
-41.3953
-41.5218
-41.6184
-41.6858
-41.7258
-41.7417
-41.738
-41.7193
-41.6906
-41.6563
-41.6195
-41.5821
-41.5444
-41.5055
-41.4633
-41.4151
-41.3584
-41.2911
-41.2123
-41.1224
-41.0229
-40.9166
-40.8068
-40.697
-40.5902
-40.4886
-40.3932
-40.3034
-40.2177
-40.1335
-40.0478
-39.9577
-39.8609
-39.7561
-39.6435
-39.5243
-39.4008
-39.2763
-39.1537
-39.0358
-38.9247
-38.821
-38.7243
-38.6328
-38.5442
-38.4553
-38.3635
-38.2664
-38.1629
-38.0529
-37.9376
-37.8194
-37.7012
-37.586
-37.4765
-37.3745
-37.2811
-37.1958
-37.1171
-37.0431
-36.9713
-36.8994
-36.826
-36.7507
-36.6747
-36.6004
-36.5315
-36.4726
-36.4285
-36.4039
-36.4024
-36.4262
-36.4758
-36.5495
-36.6438
-36.753
-36.8701
-36.9875
-37.8476
-38.3025
-38.7281
-39.1232
-39.4879
-39.8239
-40.1334
-40.4182
-40.6799
-40.9184
-41.1326
-41.3204
-41.4791
-41.6063
-41.7007
-41.7624
-41.7935
-41.7978
-41.781
-41.7492
-41.709
-41.6658
-41.6238
-41.5852
-41.5499
-41.5162
-41.4805
-41.4388
-41.3871
-41.3222
-41.2424
-41.1482
-41.0416
-40.9265
-40.8075
-40.6897
-40.5773
-40.4733
-40.3788
-40.2933
-40.2141
-40.1377
-40.0595
-39.9752
-39.8816
-39.7767
-39.6606
-39.5352
-39.4039
-39.2711
-39.1413
-39.0184
-38.9052
-38.8028
-38.7104
-38.6254
-38.5444
-38.4629
-38.3768
-38.2829
-38.1793
-38.0661
-37.9449
-37.8192
-37.693
-37.5707
-37.4562
-37.352
-37.2593
-37.1774
-37.1042
-37.0364
-36.97
-36.9017
-36.8288
-36.7504
-36.6675
-36.5832
-36.5021
-36.4303
-36.3741
-36.3399
-36.3326
-36.3555
-36.4097
-36.4937
-36.6031
-36.7313
-36.8697
-37.0086
-37.9473
-38.4158
-38.8488
-39.2454
-39.6073
-39.9382
-40.2425
-40.5242
-40.7859
-41.0279
-41.2483
-41.4433
-41.6082
-41.7382
-41.8302
-41.8833
-41.8997
-41.8845
-41.8455
-41.7915
-41.7316
-41.6737
-41.6234
-41.5835
-41.5534
-41.5296
-41.5064
-41.4771
-41.4349
-41.3746
-41.2935
-41.1917
-41.0726
-40.9418
-40.8067
-40.6747
-40.5524
-40.4441
-40.3517
-40.2738
-40.2067
-40.1444
-40.0798
-40.0062
-39.9184
-39.8134
-39.6912
-39.5547
-39.4092
-39.2616
-39.1188
-38.987
-38.8703
-38.7702
-38.6856
-38.6125
-38.5452
-38.477
-38.4014
-38.3132
-38.2096
-38.0906
-37.9588
-37.8195
-37.6791
-37.5443
-37.4209
-37.3129
-37.2218
-37.1466
-37.0835
-37.0273
-36.9716
-36.9105
-36.8395
-36.7565
-36.6625
-36.5612
-36.4593
-36.3653
-36.2882
-36.237
-36.2191
-36.2397
-36.3008
-36.401
-36.5353
-36.6949
-36.8686
-37.0432
-38.093
-38.5805
-39.0221
-39.4177
-39.7715
-40.0909
-40.3842
-40.6591
-40.9203
-41.1686
-41.4007
-41.6098
-41.7875
-41.9249
-42.0157
-42.0571
-42.0514
-42.0058
-41.9316
-41.8423
-41.7513
-41.6706
-41.6082
-41.5678
-41.5478
-41.5421
-41.5413
-41.5338
-41.5088
-41.4572
-41.3743
-41.2603
-41.1203
-40.9635
-40.8014
-40.6459
-40.5072
-40.3921
-40.3035
-40.239
-40.1925
-40.1542
-40.113
-40.0578
-39.9801
-39.8749
-39.7422
-39.5869
-39.4176
-39.245
-39.0806
-38.9338
-38.8113
-38.7154
-38.644
-38.5911
-38.5473
-38.5018
-38.444
-38.3657
-38.2621
-38.1332
-37.9836
-37.8214
-37.6571
-37.5013
-37.3633
-37.2493
-37.1615
-37.0981
-37.053
-37.0173
-36.9808
-36.9334
-36.8674
-36.7786
-36.6676
-36.54
-36.4052
-36.2757
-36.165
-36.0861
-36.0502
-36.0654
-36.1355
-36.2593
-36.4308
-36.6383
-36.8662
-37.0957
-38.2987
-38.8115
-39.2616
-39.6501
-39.9854
-40.281
-40.5526
-40.8139
-41.0734
-41.3327
-41.5861
-41.8219
-42.0247
-42.179
-42.2724
-42.2987
-42.2605
-42.1684
-42.0397
-41.8954
-41.7565
-41.6411
-41.5616
-41.5227
-41.5216
-41.5478
-41.5856
-41.6161
-41.6208
-41.5848
-41.5
-41.3663
-41.1922
-40.9928
-40.7867
-40.5929
-40.4278
-40.3023
-40.2203
-40.1784
-40.1663
-40.1683
-40.1662
-40.142
-40.0812
-39.9759
-39.8259
-39.6394
-39.4304
-39.2169
-39.0168
-38.8457
-38.7139
-38.6251
-38.576
-38.5565
-38.5517
-38.544
-38.5162
-38.4545
-38.351
-38.2058
-38.0263
-37.8263
-37.6227
-37.4327
-37.2711
-37.1478
-37.0662
-37.0231
-37.0087
-37.0085
-37.0056
-36.9832
-36.9279
-36.8324
-36.6968
-36.529
-36.3436
-36.1591
-35.9957
-35.8731
-35.8078
-35.8121
-35.8925
-36.0491
-36.2742
-36.5524
-36.8612
-37.1732
-38.5857
-39.1327
-39.5899
-39.9594
-40.2564
-40.5059
-40.7361
-40.9713
-41.2268
-41.5053
-41.797
-42.0815
-42.332
-42.521
-42.6255
-42.6335
-42.5474
-42.3837
-42.1704
-41.9407
-41.728
-41.5602
-41.4563
-41.4234
-41.4559
-41.537
-41.6405
-41.7356
-41.7915
-41.783
-41.696
-41.5305
-41.3007
-41.0317
-40.7541
-40.4988
-40.2915
-40.1497
-40.0794
-40.075
-40.1197
-40.1884
-40.2513
-40.2787
-40.2465
-40.1411
-39.9624
-39.724
-39.4499
-39.1692
-38.9114
-38.701
-38.5545
-38.4777
-38.4652
-38.5007
-38.5603
-38.6153
-38.6373
-38.6032
-38.5
-38.3275
-38.0987
-37.8364
-37.5685
-37.3231
-37.1237
-36.986
-36.9155
-36.9066
-36.9438
-37.0037
-37.0584
-37.0802
-37.0464
-36.9439
-36.7721
-36.5434
-36.2804
-36.0118
-35.7679
-35.5775
-35.4651
-35.449
-35.5399
-35.7401
-36.0411
-36.4224
-36.8514
-37.2867
-38.9869
-39.5833
-40.0446
-40.373
-40.5959
-40.7588
-40.9123
-41.0997
-41.3472
-41.6591
-42.0183
-42.3899
-42.7282
-42.9846
-43.1177
-43.1041
-42.9458
-42.6707
-42.3246
-41.9617
-41.6347
-41.3874
-41.2489
-41.2297
-41.3206
-41.4938
-41.7076
-41.9116
-42.0548
-42.0943
-42.0051
-41.7872
-41.4656
-41.0829
-40.6897
-40.3354
-40.0611
-39.894
-39.8437
-39.9008
-40.0386
-40.2169
-40.3874
-40.5012
-40.5172
-40.4117
-40.1847
-39.8601
-39.4787
-39.0888
-38.7375
-38.4641
-38.2946
-38.2379
-38.285
-38.4104
-38.5754
-38.7339
-38.839
-38.8515
-38.7486
-38.5302
-38.2191
-37.8543
-37.482
-37.1472
-36.8875
-36.7275
-36.6759
-36.7238
-36.8463
-37.0062
-37.1584
-37.2573
-37.2638
-37.155
-36.9292
-36.6072
-36.2254
-35.8288
-35.4629
-35.1696
-34.9837
-34.9315
-35.03
-35.2859
-35.6922
-36.2235
-36.8325
-37.4544
-39.5528
-40.2285
-40.691
-40.9386
-41.022
-41.0252
-41.0398
-41.1416
-41.3749
-41.745
-42.2217
-42.7464
-43.2425
-43.6259
-43.8213
-43.783
-43.5128
-43.0599
-42.5031
-41.9311
-41.4268
-41.058
-40.8696
-40.8778
-41.0668
-41.3924
-41.7886
-42.1753
-42.4676
-42.5908
-42.4994
-42.1934
-41.7186
-41.1493
-40.5692
-40.0568
-39.6763
-39.4701
-39.4533
-39.6105
-39.8993
-40.2565
-40.6052
-40.8644
-40.9629
-40.8572
-40.5476
-40.0781
-39.5198
-38.9525
-38.4515
-38.0778
-37.872
-37.8484
-37.9923
-38.2629
-38.5997
-38.9293
-39.1742
-39.2661
-39.1634
-38.8664
-38.4169
-37.8831
-37.3413
-36.8632
-36.5075
-36.3129
-36.2929
-36.4334
-36.6951
-37.0194
-37.3353
-37.5671
-37.6475
-37.5343
-37.2249
-36.7568
-36.1919
-35.6014
-35.0533
-34.6069
-34.3098
-34.1971
-34.2934
-34.6148
-35.1635
-35.9126
-36.7951
-37.7061
-40.3597
-41.1808
-41.6467
-41.741
-41.5637
-41.2754
-41.0418
-40.9942
-41.2056
-41.6777
-42.3558
-43.1443
-43.9192
-44.5378
-44.8614
-44.796
-44.343
-43.5986
-42.7037
-41.803
-41.0239
-40.4688
-40.2073
-40.2655
-40.6162
-41.1893
-41.8835
-42.5748
-43.1239
-43.3967
-43.3027
-42.8427
-42.1077
-41.2313
-40.3512
-39.5884
-39.0404
-38.7734
-38.8123
-39.1307
-39.6616
-40.3082
-40.9517
-41.4591
-41.7027
-41.5963
-41.1409
-40.424
-39.5735
-38.721
-37.982
-37.4496
-37.1871
-37.2179
-37.5169
-38.02
-38.6344
-39.2466
-39.7295
-39.9607
-39.8579
-39.4219
-38.7363
-37.9233
-37.1086
-36.403
-35.8955
-35.6466
-35.6789
-35.9683
-36.4534
-37.0449
-37.6332
-38.0948
-38.3098
-38.1959
-37.7494
-37.0455
-36.1953
-35.3127
-34.4971
-33.8292
-33.3701
-33.1617
-33.2324
-33.6165
-34.346
-35.4095
-36.7168
-38.0922
-41.5167
-42.6446
-43.1377
-42.9344
-42.2653
-41.4469
-40.776
-40.4739
-40.6608
-41.3141
-42.331
-43.562
-44.8211
-45.8747
-46.4617
-46.3674
-45.5927
-44.3543
-42.9127
-41.4998
-40.2984
-39.4569
-39.0847
-39.2323
-39.8454
-40.8117
-41.9828
-43.1793
-44.1779
-44.7306
-44.6334
-43.8879
-42.7003
-41.3189
-39.9643
-38.8107
-37.9998
-37.6364
-37.7687
-38.3448
-39.2574
-40.3644
-41.4943
-42.4338
-42.9463
-42.8378
-42.1105
-40.9622
-39.6303
-38.3258
-37.2149
-36.4329
-36.0796
-36.2012
-36.7477
-37.6166
-38.6721
-39.7502
-40.6471
-41.1363
-41.0322
-40.3368
-39.239
-37.9657
-36.7189
-35.6574
-34.911
-34.5753
-34.6945
-35.2216
-36.0584
-37.0749
-38.1136
-38.9773
-39.4459
-39.3362
-38.6444
-37.5446
-36.2453
-34.9277
-33.728
-32.7507
-32.0694
-31.7244
-31.7202
-32.1206
-33.0477
-34.5552
-36.5402
-38.7015
-43.1502
-45.0227
-45.6315
-44.7985
-43.1818
-41.4062
-39.9792
-39.2496
-39.4446
-40.4267
-41.9982
-43.9391
-46.0193
-47.8834
-49.0432
-48.9185
-47.5105
-45.4026
-43.0804
-40.8924
-39.0548
-37.7691
-37.2137
-37.5288
-38.5659
-40.1395
-42.0454
-44.0689
-45.8743
-47.0002
-46.8976
-45.5697
-43.5723
-41.3677
-39.2879
-37.5394
-36.3149
-35.7855
-36.086
-37.0744
-38.5734
-40.3873
-42.311
-44.0234
-45.0842
-44.9704
-43.6865
-41.7648
-39.6475
-37.6517
-35.9742
-34.7987
-34.2885
-34.5723
-35.5142
-36.9447
-38.677
-40.5149
-42.1517
-43.1662
-43.058
-41.8311
-39.9942
-37.9701
-36.062
-34.4583
-33.335
-32.8487
-33.1229
-34.0287
-35.4046
-37.0728
-38.8458
-40.4289
-41.4144
-41.3148
-40.127
-38.3309
-36.3216
-34.3728
-32.6388
-31.2459
-30.2842
-29.7965
-29.6252
-29.8661
-30.9135
-33.0133
-36.1095
-39.7009
-45.2507
-49.2216
-50.2022
-47.7907
-44.3265
-40.8636
-38.1784
-36.6938
-37.0951
-38.691
-41.1334
-44.1157
-47.5286
-50.9063
-53.4745
-53.3179
-50.436
-46.7598
-43.0549
-39.7803
-37.0167
-35.0299
-34.0892
-34.7855
-36.514
-38.989
-41.9385
-45.2726
-48.5493
-51.039
-50.9264
-48.2155
-44.7425
-41.2369
-38.1345
-35.5138
-33.629
-32.7397
-33.4126
-35.0689
-37.4357
-40.2523
-43.432
-46.5512
-48.9136
-48.788
-46.1807
-42.8489
-39.4899
-36.5192
-34.0106
-32.2064
-31.3541
-31.9956
-33.5771
-35.8382
-38.5297
-41.5691
-44.5521
-46.8128
-46.6947
-44.2035
-41.0189
-37.8075
-34.9667
-32.5673
-30.8416
-30.0268
-30.6418
-32.1587
-34.3298
-36.9195
-39.8516
-42.7409
-44.9453
-44.8604
-42.4852
-39.4244
-36.3106
-33.5085
-31.0582
-29.1202
-27.8162
-27.413
-26.9365
-26.4501
-27.2641
-30.0364
-34.9657
-41.4264
-46.7747
-57.7286
-59.6621
-52.3001
-45.4672
-39.2
-34.6488
-31.4226
-33.0252
-35.7362
-39.4913
-43.6724
-49.0888
-55.0949
-61.8298
-61.6419
-54.5054
-48.1583
-42.4098
-37.9324
-33.8601
-30.7843
-28.6073
-30.5562
-33.3871
-37.155
-41.2782
-46.5588
-52.3574
-58.8254
-58.6965
-51.9589
-45.96
-40.5252
-36.2876
-32.4283
-29.5096
-27.4441
-29.3231
-32.0402
-35.6503
-39.5945
-44.64
-50.169
-56.3254
-56.1792
-49.7181
-43.9721
-38.7732
-34.7212
-31.0328
-28.2431
-26.2688
-28.0649
-30.6617
-34.1116
-37.8813
-42.7045
-47.9929
-53.8844
-53.7487
-47.5744
-42.0821
-37.1113
-33.2357
-29.7062
-27.0363
-25.146
-26.8619
-29.3467
-32.652
-36.2732
-40.9188
-46.0392
-51.7725
-51.7041
-45.8307
-40.5939
-35.8506
-32.1375
-28.74
-26.0816
-24.0508
-25.135
-24.2621
-21.1614
-20.7945
-23.9534
-31.6166
-44.602
-40.6202
-79.2192
-82.5242
-56.0646
-45.7953
-35.0651
-29.2111
-19.198
-27.3594
-31.2781
-37.2358
-41.4506
-49.7998
-58.2341
-80.1542
-79.972
-57.4381
-48.6948
-39.9347
-35.5014
-29.2684
-25.2448
-17.184
-25.0569
-28.911
-34.8097
-38.951
-47.0993
-55.2017
-76.1114
-75.983
-54.6389
-46.3649
-38.0898
-33.8959
-27.9886
-24.1615
-16.4686
-24.0269
-27.7256
-33.3838
-37.3507
-45.1517
-52.8833
-72.8131
-72.6637
-52.2255
-44.3077
-36.4049
-32.3996
-26.761
-23.1054
-15.7541
-22.9815
-26.5174
-31.9248
-35.7157
-43.1698
-50.565
-69.6353
-69.4983
-49.963
-42.3943
-34.8378
-31.006
-25.6075
-22.1082
-15.0723
-21.9747
-25.3529
-30.5194
-34.1517
-41.3023
-48.4547
-66.9542
-66.9065
-48.2597
-41.0525
-33.907
-30.3122
-25.3572
-22.1392
-15.7999
-25.6752
-24.7958
-11.936
-9.24756
-11.3842
-20.6037
-50.7914
-37.0866
-37.1866
-37.2578
-37.2946
-37.2953
-37.2618
-37.199
-37.1137
-37.0143
-36.9095
-36.8077
-36.7164
-36.6422
-36.5898
-36.5628
-37.1067
-37.2155
-37.2921
-37.3306
-37.3295
-37.2912
-37.2213
-37.1278
-37.0197
-36.9065
-36.797
-36.6994
-36.6202
-36.5645
-36.5358
-37.1492
-37.2766
-37.3645
-37.4063
-37.4008
-37.352
-37.2672
-37.1563
-37.0301
-36.8996
-36.7746
-36.6639
-36.5746
-36.512
-36.4799
-37.2194
-37.3771
-37.4828
-37.529
-37.5155
-37.4487
-37.3391
-37.2
-37.045
-36.887
-36.7378
-36.6069
-36.5021
-36.4292
-36.3918
-37.3262
-37.5294
-37.6608
-37.7114
-37.6835
-37.5879
-37.4406
-37.2596
-37.0626
-36.8658
-36.6825
-36.5237
-36.3978
-36.3108
-36.2663
-37.4844
-37.7535
-37.9194
-37.9722
-37.9191
-37.7789
-37.5757
-37.3351
-37.0802
-36.8308
-36.6026
-36.4077
-36.2547
-36.1496
-36.0962
-37.7174
-38.0809
-38.2909
-38.3388
-38.2419
-38.0326
-37.7483
-37.4247
-37.0922
-36.7745
-36.4895
-36.2496
-36.0635
-35.9368
-35.8726
-38.0638
-38.5617
-38.8245
-38.8503
-38.6771
-38.3612
-37.96
-37.5232
-37.0892
-36.6856
-36.3311
-36.0377
-35.813
-35.6613
-35.5849
-38.5884
-39.2776
-39.5949
-39.5606
-39.255
-38.7749
-38.2073
-37.6189
-37.0558
-36.5475
-36.1114
-35.7571
-35.4894
-35.3103
-35.2207
-39.4047
-40.3655
-40.7168
-40.5422
-40.0073
-39.2761
-38.4754
-37.6892
-36.9676
-36.3372
-35.8099
-35.3899
-35.0771
-34.8699
-34.7668
-40.7242
-42.0628
-42.3645
-41.884
-40.9557
-39.8469
-38.7288
-37.6949
-36.7882
-36.0235
-35.4012
-34.9154
-34.559
-34.3254
-34.2098
-42.9735
-44.7972
-44.7942
-43.6737
-42.0844
-40.4269
-38.898
-37.5732
-36.4668
-35.5675
-34.8557
-34.3115
-33.9181
-33.6627
-33.5372
-47.1034
-49.358
-48.3413
-45.9322
-43.2813
-40.8781
-38.8632
-37.2329
-35.9382
-34.924
-34.1426
-33.5568
-33.139
-32.8703
-32.7389
-55.5228
-57.1902
-53.2807
-48.4323
-44.2304
-40.9411
-38.4435
-36.557
-35.1291
-34.0477
-33.234
-32.6339
-32.2108
-31.9407
-31.809
-75.3455
-70.599
-59.1589
-50.286
-44.2666
-40.2123
-37.4128
-35.4225
-33.9735
-32.9035
-32.1116
-31.5339
-31.1295
-30.8725
-30.7475
-22.3333
-22.3671
-22.4363
-22.5436
-22.6945
-22.8974
-23.1668
-23.5271
-24.0222
-24.7367
-25.8452
-27.7394
-31.3456
-38.7284
-51.9547
-21.3749
-21.3952
-21.4362
-21.4989
-21.5851
-21.6976
-21.8418
-22.0275
-22.2746
-22.6269
-23.1932
-24.2893
-27.0333
-36.317
-77.7469
-20.4025
-20.4089
-20.4211
-20.438
-20.4574
-20.4758
-20.488
-20.4854
-20.454
-20.3686
-20.1732
-19.6936
-18.1691
-11.4703
25.33
-19.4256
-19.4186
-19.4029
-19.3754
-19.3304
-19.2585
-19.1445
-18.9633
-18.671
-18.1869
-17.351
-15.8235
-12.8883
-7.5253
-3.8107
-18.4538
-18.4343
-18.393
-18.3251
-18.2221
-18.0703
-17.8478
-17.5184
-17.0212
-16.2497
-15.0093
-12.9325
-9.29198
-2.43342
13.5343
-17.4956
-17.4651
-17.4016
-17.2991
-17.1477
-16.9315
-16.6254
-16.1901
-15.5621
-14.638
-13.2487
-11.128
-7.9308
-3.6668
-1.93817
-16.5585
-16.5191
-16.4374
-16.3073
-16.1184
-15.855
-15.4928
-14.9956
-14.3086
-13.3494
-11.9959
-10.0712
-7.31064
-3.13938
5.13115
-15.6489
-15.6024
-15.5068
-15.3562
-15.141
-14.8472
-14.4541
-13.933
-13.2441
-12.3346
-11.1399
-9.59493
-7.67021
-5.45863
-3.39602
-14.7715
-14.72
-14.6145
-14.45
-14.2184
-13.9083
-13.5044
-12.987
-12.3329
-11.5179
-10.5272
-9.38242
-8.22904
-7.67441
-10.4901
-13.93
-13.8751
-13.7633
-13.5904
-13.3503
-13.0346
-12.6335
-12.1361
-11.5334
-10.8234
-10.0214
-9.17594
-8.37212
-7.54966
-4.81746
-13.1267
-13.0698
-12.9545
-12.7775
-12.5346
-12.2204
-11.8295
-11.3583
-10.8084
-10.1929
-9.54599
-8.94056
-8.52818
-8.75111
-11.9681
-12.363
-12.3052
-12.1885
-12.0106
-11.7686
-11.4595
-11.0813
-10.6351
-10.1292
-9.58414
-9.04178
-8.57118
-8.2431
-7.87335
-5.14374
-11.6394
-11.5816
-11.465
-11.2882
-11.0493
-10.7467
-10.3803
-9.95363
-9.4771
-8.97361
-8.4878
-8.10288
-7.98701
-8.6344
-12.6313
-10.9561
-10.8988
-10.7835
-10.6091
-10.3743
-10.0782
-9.72123
-9.30683
-8.84382
-8.35087
-7.86382
-7.44781
-7.20093
-7.06942
-4.83114
-10.3127
-10.2563
-10.143
-9.97189
-9.74185
-9.45199
-9.10215
-8.69383
-8.23139
-7.72408
-7.19057
-6.67533
-6.33481
-6.96751
-13.5383
-9.70852
-9.65342
-9.54277
-9.37571
-9.15106
-8.86752
-8.52376
-8.1185
-7.65019
-7.11557
-6.50469
-5.78159
-4.79291
-2.74197
5.2108
-9.14266
-9.08918
-8.98178
-8.81957
-8.60124
-8.32494
-7.98814
-7.58701
-7.11509
-6.5601
-5.89681
-5.07236
-3.98876
-2.61498
-2.53474
-8.614
-8.56245
-8.45892
-8.30249
-8.09173
-7.82444
-7.49725
-7.10476
-6.63777
-6.0799
-5.40092
-4.54318
-3.38622
-1.58977
2.50879
-8.12121
-8.0719
-7.97285
-7.82322
-7.62156
-7.36561
-7.05179
-6.67431
-6.22363
-5.68388
-5.02927
-4.22187
-3.22787
-2.16331
-2.33275
-7.66274
-7.61594
-7.52198
-7.38014
-7.18917
-6.94705
-6.65061
-6.29478
-5.87143
-5.3677
-4.76379
-4.03023
-3.11861
-1.87995
0.654703
-7.23685
-7.1928
-7.10444
-6.97126
-6.79236
-6.56628
-6.29076
-5.96221
-5.57512
-5.12116
-4.58844
-3.96234
-3.23657
-2.49667
-2.54217
-6.84162
-6.80049
-6.7181
-6.59421
-6.42838
-6.21993
-5.9678
-5.67038
-5.32534
-4.9294
-4.47803
-3.96374
-3.36443
-2.56804
-0.88897
-6.47503
-6.4369
-6.36066
-6.24636
-6.09408
-5.90399
-5.67636
-5.41169
-5.11098
-4.77623
-4.41141
-4.02428
-3.62926
-3.25245
-2.94919
-6.135
-6.09985
-6.02972
-5.92495
-5.78612
-5.6142
-5.41072
-5.17812
-4.92036
-4.64401
-4.36036
-4.09038
-3.88156
-3.88583
-4.7977
-5.81944
-5.78717
-5.72291
-5.62726
-5.50121
-5.34641
-5.16538
-4.96209
-4.74271
-4.51696
-4.29991
-4.11411
-3.98596
-3.88901
-3.273
-5.52636
-5.49679
-5.43799
-5.35074
-5.23636
-5.09691
-4.93559
-4.7573
-4.56959
-4.38394
-4.21786
-4.0979
-4.06878
-4.2527
-5.32474
-5.2539
-5.22676
-5.17289
-5.09315
-4.98898
-4.86267
-4.71765
-4.55916
-4.3951
-4.23743
-4.10386
-4.0187
-4.00376
-3.9997
-3.29637
-5.00035
-4.97538
-4.92583
-4.85258
-4.75707
-4.64149
-4.50915
-4.36495
-4.21626
-4.07426
-3.95633
-3.89081
-3.93129
-4.23236
-5.60196
-4.76422
-4.74113
-4.69531
-4.62756
-4.53916
-4.43203
-4.30895
-4.17394
-4.03285
-3.89446
-3.77249
-3.68941
-3.67796
-3.72303
-3.11215
-4.5442
-4.52273
-4.48009
-4.41695
-4.33433
-4.23372
-4.11712
-3.98723
-3.84766
-3.70332
-3.56173
-3.43834
-3.38547
-3.66929
-5.94246
-4.33916
-4.31909
-4.27918
-4.21994
-4.14208
-4.04658
-3.93459
-3.80733
-3.66585
-3.51036
-3.3384
-3.1384
-2.85924
-2.23411
0.362926
-4.14814
-4.1293
-4.09178
-4.03592
-3.96215
-3.87097
-3.76272
-3.63737
-3.49386
-3.32892
-3.13463
-2.89352
-2.57336
-2.16835
-2.24043
-3.97027
-3.95254
-3.91718
-3.8644
-3.79439
-3.70727
-3.60281
-3.4801
-3.33681
-3.16793
-2.96344
-2.7036
-2.34648
-1.7713
-0.379289
-3.80477
-3.78808
-3.75476
-3.70491
-3.63859
-3.55568
-3.45565
-3.3372
-3.1976
-3.03174
-2.83077
-2.58131
-2.27112
-1.94154
-2.0641
-3.65094
-3.63524
-3.60389
-3.55693
-3.49438
-3.41604
-3.32135
-3.20905
-3.0767
-2.91999
-2.73186
-2.50125
-2.20929
-1.79782
-0.900078
-3.50806
-3.49333
-3.46391
-3.41985
-3.36119
-3.28782
-3.19935
-3.09489
-2.97279
-2.83015
-2.6625
-2.46387
-2.23052
-1.99182
-2.04475
-3.37549
-3.36169
-3.33415
-3.29298
-3.23829
-3.17015
-3.0885
-2.99306
-2.88319
-2.75773
-2.61473
-2.45067
-2.25553
-1.98333
-1.36617
-3.25255
-3.23965
-3.21393
-3.17556
-3.12479
-3.06192
-2.98729
-2.90132
-2.8045
-2.69754
-2.58166
-2.45912
-2.33412
-2.21443
-2.11729
-3.13864
-3.12657
-3.10254
-3.06681
-3.01975
-2.96191
-2.89403
-2.81718
-2.73291
-2.64361
-2.55328
-2.46934
-2.40908
-2.42989
-2.80013
-3.03317
-3.02185
-2.99935
-2.96598
-2.92226
-2.86892
-2.80706
-2.73825
-2.66486
-2.59046
-2.52052
-2.46319
-2.4278
-2.40271
-2.17063
-2.93563
-2.92495
-2.90375
-2.8724
-2.8315
-2.78192
-2.72497
-2.66257
-2.59757
-2.53426
-2.47908
-2.44187
-2.43945
-2.51931
-2.94781
-2.84555
-2.83539
-2.81525
-2.78552
-2.74682
-2.70009
-2.64672
-2.58875
-2.52917
-2.47247
-2.42522
-2.39644
-2.39401
-2.39382
-2.11526
-2.76259
-2.75283
-2.73347
-2.70492
-2.66776
-2.62292
-2.57173
-2.51609
-2.45883
-2.40416
-2.3586
-2.33278
-2.34709
-2.46166
-2.99508
-2.68646
-2.67696
-2.65814
-2.63033
-2.59409
-2.55022
-2.49987
-2.44461
-2.38674
-2.32958
-2.27831
-2.24131
-2.2306
-2.23865
-1.98399
-2.61697
-2.60763
-2.58909
-2.56165
-2.52577
-2.48208
-2.43145
-2.37501
-2.3142
-2.25096
-2.18818
-2.13165
-2.10113
-2.19809
-3.05603
-2.55401
-2.54473
-2.52627
-2.49888
-2.4629
-2.4188
-2.36713
-2.30848
-2.24339
-2.17208
-2.09373
-2.00398
-1.88317
-1.62908
-0.620293
-2.49755
-2.48823
-2.4697
-2.44211
-2.40573
-2.36083
-2.30769
-2.24646
-2.17694
-2.09813
-2.00726
-1.89791
-1.75784
-1.58415
-1.5864
-2.44759
-2.43819
-2.41945
-2.3915
-2.35451
-2.30862
-2.25391
-2.19024
-2.11699
-2.03259
-1.93367
-1.8132
-1.65587
-1.41705
-0.876749
-2.40421
-2.39467
-2.37564
-2.34721
-2.3095
-2.26257
-2.2064
-2.14072
-2.06481
-1.97718
-1.87506
-1.75414
-1.61053
-1.45931
-1.4682
-2.36749
-2.35778
-2.33839
-2.30942
-2.27093
-2.22298
-2.16552
-2.09833
-2.02081
-1.93186
-1.82955
-1.71086
-1.57049
-1.39036
-1.04835
-2.33755
-2.32763
-2.30784
-2.27826
-2.23896
-2.19002
-2.13145
-2.06314
-1.98479
-1.89584
-1.79543
-1.68267
-1.5581
-1.43383
-1.4076
-2.31453
-2.30438
-2.28414
-2.25388
-2.21372
-2.16378
-2.10417
-2.03496
-1.95617
-1.8678
-1.76993
-1.66271
-1.54551
-1.40922
-1.18312
-2.29859
-2.28818
-2.26741
-2.2364
-2.1953
-2.14429
-2.08359
-2.01346
-1.93422
-1.84639
-1.75094
-1.6497
-1.5462
-1.44696
-1.36637
-2.2899
-2.27919
-2.25783
-2.22597
-2.18379
-2.13156
-2.0696
-1.99831
-1.91826
-1.83031
-1.73599
-1.6383
-1.54395
-1.47174
-1.49329
-2.28869
-2.27763
-2.25558
-2.22272
-2.17929
-2.12561
-2.0621
-1.98928
-1.90781
-1.81868
-1.72341
-1.6246
-1.52636
-1.43141
-1.30805
-2.29519
-2.28372
-2.26087
-2.22684
-2.18193
-2.12652
-2.0611
-1.98627
-1.90272
-1.81134
-1.71332
-1.61052
-1.50651
-1.4108
-1.36361
-2.30968
-2.29773
-2.27394
-2.23854
-2.19188
-2.1344
-2.06667
-1.98933
-1.90308
-1.80862
-1.70656
-1.5973
-1.48091
-1.3565
-1.21455
-2.3325
-2.31999
-2.2951
-2.25809
-2.20936
-2.14942
-2.07893
-1.9986
-1.90917
-1.81121
-1.70483
-1.58906
-1.4609
-1.31439
-1.13815
-2.36402
-2.35086
-2.32469
-2.2858
-2.23464
-2.1718
-2.09804
-2.01421
-1.92119
-1.81967
-1.70965
-1.58943
-1.45366
-1.29292
-1.12932
-2.4047
-2.3908
-2.36314
-2.32205
-2.26804
-2.20179
-2.12416
-2.03622
-1.93914
-1.83404
-1.72156
-1.60063
-1.46377
-1.27341
-0.816427
-2.45507
-2.4403
-2.41093
-2.3673
-2.30997
-2.23969
-2.15747
-2.0646
-1.96267
-1.85355
-1.73936
-1.62291
-1.51104
-1.43907
-1.63995
-2.5157
-2.49995
-2.46863
-2.42209
-2.3609
-2.28589
-2.19818
-2.09929
-1.99122
-1.87658
-1.75875
-1.64202
-1.53062
-1.41523
-1.14881
-2.58729
-2.57044
-2.53692
-2.48706
-2.42145
-2.34092
-2.24667
-2.14037
-2.02435
-1.90185
-1.77738
-1.65743
-1.55298
-1.49626
-1.66792
-2.6706
-2.65253
-2.61656
-2.56299
-2.49238
-2.4055
-2.30354
-2.1882
-2.06198
-1.92849
-1.7929
-1.66208
-1.54219
-1.41867
-1.11069
-2.76646
-2.74707
-2.70842
-2.65078
-2.5746
-2.48056
-2.36971
-2.24361
-2.10467
-1.95659
-1.8051
-1.65913
-1.53394
-1.46915
-1.66717
-2.8758
-2.855
-2.81349
-2.75146
-2.66924
-2.56732
-2.44648
-2.30794
-2.15371
-1.98707
-1.81348
-1.64177
-1.48376
-1.33711
-1.03337
-2.99959
-2.97731
-2.93281
-2.86617
-2.77756
-2.66722
-2.53555
-2.38319
-2.21137
-2.02237
-1.82057
-1.61488
-1.42567
-1.31415
-1.53789
-3.13887
-3.11508
-3.06751
-2.99615
-2.90098
-2.78196
-2.63898
-2.47197
-2.28098
-2.06655
-1.83038
-1.57655
-1.31365
-1.05836
-0.848368
-3.29467
-3.26937
-3.21874
-3.14267
-3.04099
-2.91333
-2.75911
-2.57739
-2.36687
-2.12585
-1.85245
-1.54453
-1.19634
-0.77109
-0.0129426
-3.46805
-3.44126
-3.38763
-3.30699
-3.19903
-3.06316
-2.89833
-2.70283
-2.47394
-2.20764
-1.89849
-1.54047
-1.13254
-0.714999
-0.629951
-3.66004
-3.63181
-3.57528
-3.49029
-3.37647
-3.2331
-3.05887
-2.85146
-2.60699
-2.31919
-1.97849
-1.57106
-1.07542
-0.428002
0.791158
-3.87163
-3.84201
-3.78271
-3.69362
-3.57442
-3.42447
-3.24244
-3.02584
-2.77015
-2.46748
-2.10483
-1.66291
-1.12372
-0.538043
-0.504067
-4.10381
-4.07282
-4.01084
-3.91785
-3.79375
-3.63813
-3.45003
-3.22738
-2.96592
-2.65743
-2.28622
-1.82232
-1.20429
-0.264955
1.78738
-4.35752
-4.32515
-4.26049
-4.1637
-4.03496
-3.87434
-3.68163
-3.45585
-3.19435
-2.89093
-2.53198
-2.08877
-1.508
-0.764782
-0.617059
-4.6337
-4.5999
-4.53247
-4.43175
-4.2983
-4.13283
-3.93619
-3.70915
-3.45191
-3.16299
-2.83626
-2.45075
-1.92453
-0.851065
3.20229
-4.93337
-4.89802
-4.82756
-4.72254
-4.58388
-4.41298
-4.21187
-3.98341
-3.73146
-3.46133
-3.18135
-2.91045
-2.72109
-3.00671
-6.26164
-5.25758
-5.22051
-5.14665
-5.0367
-4.89185
-4.71409
-4.50655
-4.27399
-4.02363
-3.7665
-3.52014
-3.31352
-3.18781
-3.10034
-1.88779
-5.60755
-5.56854
-5.49082
-5.37508
-5.22267
-5.0359
-4.8186
-4.57693
-4.3205
-4.0642
-3.83133
-3.66041
-3.62797
-3.97529
-6.03449
-5.98461
-5.94346
-5.86138
-5.73894
-5.57736
-5.3789
-5.14757
-4.89012
-4.61728
-4.34563
-4.0995
-3.91112
-3.80441
-3.66143
-2.24858
-6.39024
-6.34679
-6.25996
-6.12999
-5.95766
-5.74471
-5.4947
-5.21398
-4.91325
-4.60935
-4.32755
-4.10512
-4.00603
-4.22942
-5.97347
-6.82604
-6.78026
-6.68849
-6.55046
-6.36615
-6.13628
-5.86314
-5.55174
-5.21141
-4.85772
-4.51437
-4.21348
-3.98369
-3.7414
-2.4176
-7.29364
-7.24566
-7.14914
-7.00307
-6.80628
-6.55789
-6.25814
-5.90958
-5.51885
-5.0989
-4.6717
-4.27246
-3.97004
-4.00442
-5.67244
-7.79455
-7.74476
-7.64419
-7.4909
-7.28223
-7.01517
-6.68704
-6.29672
-5.84657
-5.34513
-4.8096
-4.2642
-3.7225
-3.13298
-2.35566
-8.33003
-8.27913
-8.17584
-8.01718
-7.79873
-7.51486
-7.15912
-6.72539
-6.20991
-5.61503
-4.95435
-4.25338
-3.50815
-2.39196
1.50088
-8.90085
-8.84988
-8.74595
-8.58497
-8.36067
-8.06443
-7.68536
-7.21084
-6.62839
-5.93061
-5.12708
-4.27329
-3.55143
-3.57916
-7.03384
-9.50706
-9.45741
-9.35566
-9.19674
-8.97256
-8.67153
-8.27789
-7.77124
-7.12695
-6.31962
-5.33472
-4.20159
-3.07414
-2.38671
-2.87297
-10.1477
-10.1011
-10.0051
-9.85381
-9.63781
-9.34293
-8.94888
-8.4272
-7.73875
-6.83192
-5.64529
-4.12594
-2.29129
-0.379345
0.950322
-10.8208
-10.7791
-10.6928
-10.5558
-10.3578
-10.0832
-9.70851
-9.19897
-8.50218
-7.53853
-6.18692
-4.26925
-1.56212
2.03221
5.69707
-11.5228
-11.4881
-11.4159
-11.3002
-11.1311
-10.8929
-10.5618
-10.1008
-9.45092
-8.51456
-7.12163
-4.96079
-1.44908
4.39464
12.9889
-12.2488
-12.223
-12.169
-12.0817
-11.9522
-11.7671
-11.5053
-11.1337
-10.5986
-9.80765
-8.58962
-6.59042
-2.95547
4.84675
26.2492
-148.233
-89.0265
-62.1938
-49.3693
-42.4986
-38.3939
-35.7262
-33.8862
-32.5669
-31.5997
-30.8863
-30.3668
-30.0032
-29.7722
-29.6599
-184.512
-83.2991
-55.2247
-44.4013
-38.9704
-35.7429
-33.6179
-32.1281
-31.0434
-30.238
-29.6379
-29.1973
-28.8873
-28.6895
-28.5931
47.7959
-26.7835
-36.2759
-35.6884
-33.912
-32.3262
-31.0684
-30.0886
-29.326
-28.7338
-28.2786
-27.9372
-27.6933
-27.5362
-27.4593
-6.97655
-15.4671
-24.327
-27.8009
-28.7213
-28.6817
-28.3259
-27.8983
-27.4902
-27.1344
-26.8403
-26.6093
-26.4391
-26.3274
-26.272
26.4869
-3.89436
-16.1185
-21.6868
-24.1971
-25.2568
-25.6332
-25.6943
-25.6182
-25.4919
-25.3584
-25.239
-25.1443
-25.0793
-25.0464
-1.29189
-4.93076
-12.5319
-17.6963
-20.6803
-22.3065
-23.1593
-23.5857
-23.7811
-23.8544
-23.8665
-23.8515
-23.8287
-23.8089
-23.7978
11.8277
-3.21564
-10.6376
-15.2199
-18.1063
-19.8931
-20.9816
-21.6374
-22.0286
-22.2594
-22.3934
-22.4695
-22.5111
-22.5325
-22.5414
-2.97785
-6.79319
-10.7151
-13.9213
-16.296
-17.9645
-19.1045
-19.8728
-20.3876
-20.7316
-20.9606
-21.1113
-21.2077
-21.2647
-21.2912
-15.1341
-10.2968
-11.2896
-13.2002
-14.9761