/*--------------------------------*- C++ -*----------------------------------*\
| =========                 |                                                 |
| \\      /  F ield         | OpenFOAM: The Open Source CFD Toolbox           |
|  \\    /   O peration     | Version:  5.x                                   |
|   \\  /    A nd           | Web:      www.OpenFOAM.org                      |
|    \\/     M anipulation  |                                                 |
\*---------------------------------------------------------------------------*/
FoamFile
{
    version     2.0;
    format      ascii;
    class       volScalarField;
    location    "3.9999";
    object      T;
}
// * * * * * * * * * * * * * * * * * * * * * * * * * * * * * * * * * * * * * //

dimensions      [0 0 0 1 0 0 0];

internalField   nonuniform List<scalar> 
6300
(
322.847
322.542
322.235
321.926
321.616
321.302
320.984
320.662
320.336
320.004
319.667
319.324
318.975
318.62
318.26
322.848
322.543
322.237
321.929
321.619
321.305
320.988
320.667
320.341
320.01
319.673
319.33
318.981
318.626
318.265
322.848
322.545
322.24
321.934
321.625
321.313
320.997
320.677
320.351
320.021
319.684
319.342
318.993
318.638
318.277
322.849
322.548
322.245
321.941
321.634
321.324
321.01
320.691
320.367
320.037
319.702
319.36
319.011
318.656
318.294
322.851
322.552
322.253
321.951
321.647
321.339
321.027
320.711
320.389
320.06
319.726
319.384
319.036
318.68
318.318
322.853
322.558
322.262
321.963
321.663
321.358
321.049
320.736
320.416
320.09
319.757
319.416
319.068
318.711
318.348
322.855
322.564
322.273
321.979
321.682
321.382
321.077
320.766
320.45
320.126
319.795
319.456
319.107
318.75
318.385
322.858
322.572
322.286
321.997
321.705
321.41
321.109
320.803
320.491
320.171
319.842
319.504
319.156
318.798
318.43
322.861
322.581
322.301
322.018
321.732
321.443
321.148
320.847
320.539
320.223
319.898
319.562
319.214
318.855
318.484
322.864
322.592
322.318
322.042
321.763
321.48
321.192
320.898
320.596
320.285
319.964
319.631
319.285
318.924
318.549
322.868
322.603
322.337
322.069
321.798
321.523
321.243
320.956
320.662
320.358
320.042
319.714
319.369
319.008
318.628
322.872
322.616
322.359
322.099
321.837
321.571
321.3
321.023
320.737
320.442
320.134
319.812
319.471
319.11
318.726
322.877
322.63
322.382
322.132
321.88
321.624
321.364
321.097
320.822
320.538
320.241
319.927
319.594
319.235
318.849
322.882
322.645
322.407
322.168
321.927
321.682
321.433
321.179
320.918
320.647
320.363
320.063
319.74
319.389
319.006
322.887
322.661
322.434
322.206
321.976
321.744
321.508
321.268
321.022
320.768
320.503
320.221
319.916
319.575
319.199
317.924
317.615
317.303
316.987
316.668
316.345
316.021
315.693
315.364
315.032
314.698
314.362
314.025
313.687
313.348
313.008
312.667
312.326
311.984
311.642
311.301
310.959
310.617
310.276
309.934
309.593
309.252
308.911
308.57
308.229
307.889
307.549
307.21
306.871
306.533
306.195
305.858
305.522
305.186
304.85
304.516
304.181
303.847
303.513
303.18
302.848
302.516
302.184
301.854
301.524
301.195
300.867
300.539
300.212
299.886
299.56
299.235
298.91
298.586
298.262
297.939
297.617
297.296
296.975
296.655
296.336
296.018
295.701
295.384
295.068
294.752
294.437
294.123
293.809
293.495
293.182
292.87
292.559
292.247
291.937
291.626
291.316
291.006
290.696
290.386
290.075
289.763
289.451
289.138
288.823
317.93
317.62
317.307
316.991
316.672
316.349
316.024
315.697
315.367
315.035
314.7
314.365
314.027
313.689
313.349
313.008
312.667
312.326
311.984
311.642
311.301
310.959
310.617
310.276
309.934
309.593
309.252
308.91
308.569
308.229
307.888
307.548
307.209
306.87
306.532
306.194
305.857
305.521
305.185
304.85
304.515
304.18
303.846
303.513
303.179
302.847
302.515
302.183
301.853
301.523
301.194
300.866
300.538
300.211
299.885
299.559
299.234
298.909
298.585
298.261
297.938
297.616
297.295
296.974
296.654
296.335
296.017
295.7
295.383
295.067
294.751
294.436
294.122
293.808
293.494
293.182
292.869
292.558
292.247
291.936
291.626
291.316
291.007
290.697
290.387
290.076
289.765
289.452
289.139
288.825
317.94
317.631
317.317
317
316.68
316.357
316.032
315.703
315.373
315.04
314.705
314.369
314.031
313.692
313.351
313.01
312.668
312.327
311.984
311.642
311.3
310.959
310.617
310.275
309.934
309.593
309.251
308.91
308.569
308.228
307.887
307.547
307.207
306.868
306.53
306.193
305.856
305.519
305.184
304.848
304.514
304.179
303.845
303.511
303.178
302.845
302.513
302.181
301.851
301.521
301.192
300.864
300.536
300.209
299.883
299.558
299.232
298.908
298.583
298.259
297.936
297.614
297.292
296.972
296.652
296.333
296.015
295.698
295.381
295.065
294.75
294.435
294.12
293.806
293.493
293.18
292.868
292.556
292.245
291.935
291.625
291.316
291.007
290.698
290.388
290.078
289.767
289.455
289.142
288.827
317.957
317.646
317.332
317.014
316.693
316.369
316.042
315.713
315.382
315.048
314.713
314.375
314.036
313.696
313.355
313.013
312.67
312.327
311.985
311.642
311.3
310.958
310.616
310.275
309.934
309.592
309.251
308.909
308.567
308.226
307.885
307.545
307.205
306.865
306.527
306.19
305.853
305.517
305.182
304.846
304.512
304.177
303.843
303.509
303.175
302.842
302.509
302.178
301.847
301.517
301.188
300.86
300.533
300.207
299.881
299.555
299.23
298.905
298.581
298.257
297.933
297.61
297.289
296.968
296.648
296.329
296.011
295.694
295.378
295.062
294.747
294.432
294.118
293.804
293.49
293.177
292.865
292.553
292.243
291.933
291.624
291.315
291.007
290.699
290.39
290.081
289.771
289.459
289.146
288.832
317.979
317.667
317.352
317.032
316.71
316.385
316.057
315.727
315.394
315.06
314.723
314.384
314.044
313.702
313.359
313.016
312.672
312.328
311.984
311.641
311.299
310.957
310.616
310.274
309.933
309.592
309.25
308.908
308.566
308.224
307.882
307.541
307.201
306.861
306.523
306.186
305.849
305.514
305.179
304.844
304.509
304.175
303.84
303.506
303.172
302.838
302.505
302.173
301.842
301.512
301.184
300.856
300.529
300.203
299.878
299.552
299.227
298.902
298.577
298.253
297.929
297.606
297.283
296.962
296.643
296.324
296.007
295.69
295.374
295.059
294.744
294.43
294.115
293.801
293.487
293.174
292.861
292.55
292.239
291.93
291.622
291.314
291.007
290.701
290.394
290.086
289.776
289.466
289.153
288.838
318.007
317.694
317.376
317.055
316.731
316.404
316.075
315.743
315.41
315.074
314.736
314.396
314.053
313.71
313.365
313.019
312.673
312.328
311.984
311.64
311.297
310.956
310.615
310.274
309.933
309.592
309.25
308.907
308.564
308.221
307.879
307.537
307.195
306.856
306.517
306.18
305.845
305.51
305.175
304.841
304.507
304.173
303.838
303.503
303.168
302.833
302.499
302.167
301.835
301.506
301.177
300.85
300.524
300.199
299.874
299.549
299.224
298.899
298.573
298.248
297.923
297.599
297.277
296.955
296.636
296.317
296.001
295.685
295.37
295.055
294.741
294.426
294.112
293.797
293.482
293.169
292.856
292.544
292.234
291.925
291.618
291.313
291.008
290.703
290.398
290.092
289.784
289.475
289.162
288.847
318.042
317.726
317.406
317.082
316.755
316.427
316.096
315.763
315.428
315.091
314.752
314.41
314.065
313.719
313.371
313.023
312.674
312.327
311.981
311.637
311.294
310.953
310.613
310.273
309.933
309.592
309.25
308.907
308.563
308.219
307.874
307.531
307.188
306.848
306.51
306.173
305.838
305.505
305.172
304.839
304.505
304.171
303.836
303.499
303.163
302.827
302.492
302.158
301.826
301.497
301.169
300.843
300.519
300.195
299.871
299.546
299.221
298.896
298.569
298.243
297.917
297.591
297.268
296.946
296.626
296.309
295.993
295.679
295.365
295.051
294.738
294.423
294.108
293.793
293.477
293.162
292.848
292.536
292.226
291.919
291.613
291.31
291.007
290.706
290.404
290.101
289.795
289.487
289.176
288.86
318.084
317.764
317.44
317.113
316.783
316.452
316.12
315.786
315.45
315.112
314.771
314.427
314.08
313.73
313.378
313.026
312.674
312.324
311.976
311.632
311.289
310.95
310.611
310.273
309.934
309.594
309.252
308.908
308.562
308.215
307.868
307.522
307.178
306.837
306.499
306.164
305.831
305.499
305.168
304.837
304.505
304.17
303.834
303.497
303.158
302.82
302.482
302.147
301.814
301.485
301.158
300.834
300.512
300.19
299.868
299.545
299.22
298.893
298.566
298.237
297.908
297.581
297.256
296.933
296.614
296.298
295.984
295.671
295.36
295.048
294.735
294.421
294.106
293.789
293.471
293.154
292.839
292.525
292.215
291.909
291.605
291.305
291.006
290.709
290.411
290.113
289.811
289.505
289.194
288.878
318.134
317.809
317.48
317.147
316.813
316.48
316.146
315.811
315.475
315.137
314.795
314.449
314.098
313.743
313.386
313.028
312.671
312.317
311.967
311.622
311.281
310.944
310.608
310.274
309.938
309.599
309.257
308.912
308.563
308.212
307.861
307.511
307.165
306.822
306.484
306.15
305.82
305.492
305.165
304.837
304.506
304.172
303.835
303.495
303.153
302.81
302.469
302.132
301.798
301.469
301.144
300.823
300.504
300.185
299.866
299.545
299.221
298.893
298.563
298.231
297.898
297.568
297.24
296.916
296.597
296.283
295.972
295.663
295.354
295.046
294.735
294.421
294.105
293.786
293.465
293.144
292.825
292.51
292.199
291.894
291.593
291.297
291.004
290.712
290.421
290.128
289.832
289.53
289.221
288.904
318.193
317.861
317.523
317.183
316.844
316.507
316.172
315.839
315.504
315.167
314.825
314.477
314.122
313.761
313.396
313.029
312.664
312.305
311.952
311.606
311.268
310.935
310.605
310.276
309.944
309.609
309.268
308.92
308.567
308.21
307.852
307.496
307.145
306.8
306.463
306.132
305.807
305.485
305.163
304.84
304.512
304.179
303.841
303.496
303.148
302.799
302.452
302.11
301.775
301.446
301.125
300.808
300.495
300.182
299.868
299.549
299.226
298.897
298.563
298.225
297.886
297.55
297.218
296.893
296.575
296.263
295.956
295.653
295.35
295.046
294.738
294.426
294.107
293.784
293.458
293.132
292.807
292.488
292.176
291.871
291.574
291.284
290.998
290.715
290.433
290.15
289.861
289.565
289.258
288.94
318.263
317.92
317.57
317.218
316.871
316.531
316.197
315.867
315.538
315.205
314.865
314.515
314.155
313.784
313.407
313.026
312.65
312.282
311.926
311.581
311.247
310.921
310.601
310.281
309.957
309.627
309.287
308.936
308.576
308.209
307.839
307.473
307.115
306.768
306.432
306.107
305.789
305.476
305.164
304.849
304.526
304.195
303.854
303.503
303.145
302.784
302.428
302.079
301.741
301.414
301.098
300.789
300.485
300.181
299.875
299.561
299.24
298.908
298.567
298.22
297.871
297.525
297.187
296.859
296.542
296.235
295.936
295.642
295.348
295.052
294.749
294.438
294.117
293.788
293.453
293.115
292.782
292.456
292.142
291.839
291.546
291.264
290.988
290.718
290.448
290.177
289.901
289.615
289.313
288.993
318.35
317.99
317.618
317.248
316.889
316.545
316.215
315.895
315.576
315.252
314.918
314.568
314.202
313.818
313.421
313.019
312.623
312.243
311.882
311.54
311.214
310.901
310.596
310.291
309.98
309.658
309.321
308.967
308.596
308.212
307.822
307.439
307.07
306.719
306.386
306.069
305.764
305.467
305.17
304.867
304.554
304.225
303.88
303.519
303.145
302.765
302.392
302.033
301.692
301.368
301.059
300.763
300.474
300.185
299.891
299.586
299.267
298.932
298.581
298.218
297.85
297.488
297.14
296.81
296.496
296.197
295.91
295.63
295.351
295.066
294.771
294.463
294.139
293.8
293.449
293.094
292.745
292.409
292.091
291.79
291.505
291.233
290.972
290.717
290.465
290.213
289.957
289.687
289.395
289.072
318.462
318.078
317.662
317.261
316.884
316.54
316.22
315.919
315.623
315.315
314.993
314.645
314.274
313.871
313.445
312.999
312.575
312.177
311.812
311.474
311.162
310.869
310.589
310.31
310.019
309.711
309.379
309.022
308.634
308.223
307.794
307.384
306.998
306.645
306.317
306.014
305.729
305.457
305.185
304.902
304.602
304.278
303.931
303.553
303.153
302.735
302.336
301.961
301.617
301.298
301.004
300.726
300.462
300.198
299.922
299.631
299.317
298.979
298.613
298.225
297.819
297.433
297.069
296.736
296.427
296.142
295.873
295.617
295.362
295.095
294.814
294.509
294.184
293.829
293.454
293.062
292.688
292.337
292.015
291.717
291.444
291.188
290.948
290.714
290.481
290.255
290.031
289.791
289.519
289.196
318.623
318.211
317.684
317.24
316.833
316.501
316.196
315.937
315.685
315.4
315.103
314.757
314.392
313.958
313.495
312.95
312.49
312.062
311.705
311.37
311.085
310.816
310.582
310.348
310.081
309.8
309.471
309.122
308.706
308.261
307.737
307.294
306.88
306.535
306.211
305.935
305.674
305.446
305.218
304.959
304.685
304.365
304.025
303.62
303.187
302.677
302.246
301.844
301.508
301.193
300.924
300.67
300.449
300.228
299.975
299.71
299.399
299.069
298.676
298.256
297.762
297.343
296.954
296.628
296.323
296.063
295.817
295.603
295.389
295.145
294.888
294.588
294.269
293.889
293.482
293.004
292.599
292.221
291.906
291.609
291.358
291.119
290.913
290.71
290.485
290.297
290.125
289.943
289.718
289.405
318.877
318.509
317.587
317.166
316.675
316.421
316.105
315.947
315.793
315.502
315.285
314.896
314.61
314.085
313.662
312.78
312.359
311.844
311.566
311.192
310.986
310.714
310.573
310.433
310.163
309.959
309.592
309.32
308.819
308.413
307.565
307.161
306.664
306.395
306.034
305.834
305.571
305.434
305.297
305.035
304.837
304.479
304.214
303.726
303.331
302.507
302.114
301.631
301.37
301.019
300.824
300.568
300.435
300.303
300.047
299.855
299.508
299.25
298.776
298.393
297.595
297.213
296.746
296.492
296.153
295.965
295.717
295.588
295.46
295.213
295.027
294.691
294.443
293.985
293.614
292.841
292.471
292.016
291.77
291.437
291.252
291.005
290.875
290.736
290.438
290.314
290.235
290.157
290.041
289.806
288.477
288.098
287.717
287.337
286.956
286.575
286.195
285.815
285.437
285.06
284.683
284.308
283.934
283.56
283.187
288.478
288.098
287.718
287.337
286.956
286.575
286.194
285.814
285.436
285.059
284.682
284.307
283.933
283.56
283.186
288.48
288.1
287.719
287.337
286.955
286.573
286.192
285.812
285.434
285.056
284.68
284.305
283.932
283.559
283.186
288.484
288.103
287.721
287.338
286.954
286.572
286.19
285.809
285.43
285.053
284.677
284.303
283.93
283.557
283.186
288.49
288.107
287.723
287.338
286.953
286.569
286.186
285.804
285.425
285.048
284.672
284.299
283.926
283.555
283.185
288.498
288.113
287.727
287.339
286.951
286.565
286.18
285.797
285.418
285.04
284.666
284.293
283.922
283.553
283.184
288.509
288.122
287.731
287.34
286.948
286.559
286.172
285.788
285.408
285.031
284.657
284.286
283.917
283.549
283.183
288.525
288.133
287.737
287.34
286.944
286.55
286.16
285.775
285.394
285.018
284.645
284.276
283.91
283.545
283.182
288.546
288.148
287.744
287.339
286.936
286.538
286.145
285.758
285.377
285.001
284.63
284.264
283.9
283.539
283.18
288.577
288.168
287.753
287.337
286.925
286.52
286.123
285.734
285.353
284.98
284.612
284.248
283.889
283.532
283.177
288.621
288.195
287.762
287.33
286.906
286.494
286.093
285.703
285.323
284.952
284.588
284.229
283.875
283.524
283.174
288.684
288.23
287.769
287.315
286.877
286.456
286.052
285.662
285.285
284.917
284.558
284.206
283.858
283.514
283.171
288.776
288.272
287.768
287.285
286.83
286.402
285.996
285.608
285.236
284.875
284.523
284.178
283.838
283.501
283.167
288.914
288.316
287.746
287.228
286.757
286.325
285.921
285.54
285.175
284.823
284.48
284.144
283.814
283.487
283.162
289.114
288.33
287.672
287.122
286.646
286.218
285.825
285.455
285.102
284.761
284.43
284.106
283.787
283.471
283.157
322.892
322.676
322.46
322.243
322.024
321.804
321.581
321.355
321.126
320.89
320.646
320.389
320.108
319.779
319.353
322.897
322.69
322.484
322.277
322.069
321.86
321.649
321.438
321.224
321.007
320.786
320.557
320.315
320.032
319.607
322.902
322.705
322.508
322.311
322.114
321.917
321.719
321.521
321.323
321.126
320.93
320.736
320.549
320.385
320.329
322.906
322.719
322.533
322.346
322.159
321.973
321.788
321.605
321.423
321.245
321.073
320.911
320.768
320.663
320.625
322.911
322.734
322.557
322.38
322.204
322.03
321.857
321.687
321.52
321.359
321.208
321.071
320.96
320.895
320.918
322.916
322.748
322.581
322.414
322.249
322.085
321.924
321.766
321.613
321.468
321.333
321.214
321.121
321.065
321.055
322.921
322.762
322.604
322.447
322.292
322.139
321.988
321.842
321.701
321.569
321.447
321.34
321.256
321.203
321.201
322.925
322.776
322.627
322.479
322.333
322.19
322.05
321.914
321.784
321.662
321.55
321.45
321.368
321.307
321.268
322.93
322.789
322.649
322.51
322.373
322.239
322.108
321.982
321.862
321.748
321.643
321.549
321.466
321.394
321.322
322.934
322.801
322.67
322.54
322.411
322.286
322.164
322.046
321.934
321.828
321.73
321.639
321.557
321.482
321.416
322.938
322.813
322.69
322.568
322.448
322.33
322.216
322.107
322.002
321.903
321.81
321.724
321.643
321.565
321.478
322.941
322.825
322.709
322.594
322.482
322.372
322.266
322.164
322.066
321.974
321.887
321.805
321.727
321.652
321.581
322.945
322.835
322.727
322.619
322.514
322.412
322.312
322.217
322.126
322.041
321.96
321.883
321.81
321.736
321.649
322.948
322.846
322.744
322.643
322.545
322.449
322.356
322.268
322.183
322.104
322.029
321.96
321.893
321.828
321.765
322.952
322.855
322.76
322.666
322.574
322.484
322.398
322.315
322.237
322.164
322.096
322.033
321.976
321.92
321.85
322.955
322.864
322.775
322.687
322.6
322.517
322.436
322.36
322.287
322.22
322.158
322.104
322.057
322.022
322.017
322.957
322.873
322.789
322.706
322.626
322.547
322.472
322.401
322.334
322.272
322.216
322.168
322.129
322.103
322.092
322.96
322.881
322.802
322.724
322.649
322.576
322.506
322.439
322.377
322.32
322.269
322.226
322.193
322.174
322.177
322.963
322.888
322.814
322.741
322.671
322.602
322.537
322.474
322.417
322.364
322.317
322.277
322.247
322.228
322.22
322.965
322.895
322.825
322.757
322.691
322.627
322.565
322.507
322.453
322.403
322.359
322.322
322.293
322.275
322.272
322.967
322.901
322.836
322.772
322.709
322.649
322.591
322.536
322.485
322.439
322.397
322.361
322.333
322.312
322.298
322.969
322.907
322.846
322.785
322.726
322.67
322.615
322.563
322.515
322.471
322.431
322.395
322.366
322.344
322.33
322.971
322.912
322.854
322.798
322.742
322.689
322.637
322.588
322.542
322.5
322.461
322.426
322.395
322.368
322.346
322.972
322.917
322.863
322.809
322.757
322.706
322.657
322.611
322.567
322.526
322.488
322.453
322.421
322.391
322.359
322.974
322.922
322.87
322.82
322.77
322.722
322.676
322.632
322.59
322.55
322.513
322.478
322.446
322.414
322.384
322.975
322.926
322.877
322.829
322.783
322.737
322.693
322.651
322.611
322.573
322.537
322.502
322.469
322.436
322.4
322.977
322.93
322.884
322.839
322.794
322.751
322.709
322.669
322.63
322.594
322.559
322.525
322.493
322.46
322.429
322.978
322.934
322.89
322.847
322.805
322.764
322.724
322.686
322.649
322.614
322.58
322.548
322.516
322.484
322.448
322.979
322.937
322.896
322.855
322.815
322.775
322.738
322.701
322.666
322.633
322.601
322.57
322.54
322.511
322.481
322.98
322.94
322.901
322.862
322.824
322.786
322.75
322.716
322.682
322.651
322.62
322.592
322.564
322.537
322.505
322.981
322.943
322.905
322.868
322.832
322.797
322.762
322.729
322.697
322.667
322.639
322.612
322.588
322.567
322.554
322.982
322.946
322.91
322.875
322.84
322.806
322.773
322.742
322.712
322.683
322.656
322.631
322.609
322.591
322.577
322.983
322.948
322.914
322.88
322.847
322.815
322.783
322.753
322.724
322.697
322.672
322.649
322.628
322.612
322.602
322.983
322.95
322.918
322.885
322.854
322.823
322.793
322.764
322.736
322.71
322.686
322.664
322.644
322.628
322.615
322.984
322.953
322.921
322.89
322.86
322.83
322.801
322.774
322.747
322.722
322.699
322.677
322.658
322.643
322.631
322.985
322.954
322.924
322.895
322.865
322.837
322.809
322.783
322.757
322.733
322.71
322.689
322.67
322.654
322.639
322.985
322.956
322.927
322.899
322.871
322.843
322.816
322.791
322.766
322.742
322.72
322.699
322.68
322.663
322.649
322.986
322.958
322.93
322.902
322.875
322.849
322.823
322.798
322.774
322.751
322.729
322.708
322.689
322.671
322.654
322.986
322.959
322.932
322.906
322.88
322.854
322.829
322.805
322.781
322.759
322.737
322.717
322.697
322.678
322.658
322.987
322.961
322.935
322.909
322.883
322.859
322.834
322.811
322.788
322.766
322.745
322.724
322.704
322.685
322.666
322.987
322.962
322.937
322.912
322.887
322.863
322.839
322.816
322.794
322.773
322.752
322.731
322.712
322.692
322.671
322.988
322.963
322.938
322.914
322.89
322.867
322.844
322.821
322.8
322.779
322.758
322.738
322.719
322.699
322.68
322.988
322.964
322.94
322.916
322.893
322.87
322.848
322.826
322.805
322.784
322.764
322.745
322.726
322.706
322.686
322.988
322.965
322.942
322.919
322.896
322.874
322.852
322.83
322.81
322.79
322.77
322.751
322.733
322.714
322.696
322.989
322.966
322.943
322.92
322.898
322.876
322.855
322.834
322.814
322.794
322.776
322.757
322.74
322.722
322.703
322.989
322.966
322.944
322.922
322.9
322.879
322.858
322.838
322.818
322.799
322.78
322.763
322.746
322.731
322.718
322.989
322.967
322.945
322.923
322.902
322.881
322.861
322.841
322.821
322.803
322.785
322.768
322.752
322.737
322.724
322.989
322.967
322.946
322.925
322.904
322.883
322.863
322.843
322.824
322.806
322.789
322.772
322.757
322.743
322.731
322.989
322.968
322.947
322.926
322.905
322.885
322.865
322.845
322.827
322.809
322.792
322.776
322.761
322.747
322.735
322.989
322.968
322.947
322.926
322.906
322.886
322.866
322.847
322.829
322.811
322.794
322.779
322.764
322.75
322.738
322.989
322.968
322.947
322.927
322.906
322.887
322.867
322.848
322.83
322.813
322.796
322.781
322.766
322.753
322.74
322.989
322.969
322.948
322.927
322.907
322.887
322.868
322.849
322.831
322.814
322.797
322.782
322.768
322.754
322.742
322.989
322.969
322.948
322.927
322.907
322.887
322.868
322.849
322.831
322.814
322.798
322.783
322.768
322.755
322.743
322.989
322.968
322.948
322.927
322.907
322.887
322.868
322.849
322.831
322.814
322.798
322.783
322.768
322.755
322.743
322.989
322.968
322.947
322.927
322.906
322.886
322.867
322.848
322.83
322.813
322.797
322.782
322.768
322.755
322.743
322.989
322.968
322.947
322.926
322.905
322.885
322.866
322.847
322.829
322.812
322.796
322.781
322.767
322.754
322.742
322.989
322.968
322.946
322.925
322.904
322.884
322.864
322.845
322.827
322.81
322.794
322.778
322.764
322.752
322.741
322.989
322.967
322.945
322.924
322.903
322.882
322.862
322.843
322.825
322.807
322.791
322.775
322.761
322.749
322.738
322.989
322.966
322.944
322.922
322.901
322.88
322.859
322.84
322.821
322.804
322.787
322.771
322.757
322.745
322.734
322.988
322.966
322.943
322.92
322.898
322.877
322.856
322.836
322.817
322.799
322.782
322.767
322.752
322.739
322.729
322.988
322.965
322.941
322.918
322.896
322.874
322.853
322.832
322.813
322.794
322.777
322.761
322.746
322.731
322.717
322.988
322.964
322.939
322.916
322.893
322.87
322.848
322.827
322.808
322.789
322.771
322.754
322.739
322.724
322.71
322.987
322.962
322.937
322.913
322.889
322.866
322.843
322.822
322.802
322.782
322.764
322.747
322.731
322.716
322.7
322.987
322.961
322.935
322.91
322.885
322.861
322.838
322.816
322.795
322.775
322.757
322.74
322.723
322.708
322.694
322.986
322.959
322.932
322.906
322.88
322.855
322.831
322.809
322.787
322.767
322.748
322.731
322.715
322.7
322.684
322.986
322.957
322.929
322.902
322.875
322.849
322.824
322.801
322.779
322.758
322.739
322.722
322.706
322.691
322.678
322.985
322.955
322.926
322.897
322.869
322.842
322.816
322.792
322.769
322.748
322.729
322.711
322.696
322.682
322.668
322.984
322.953
322.922
322.892
322.863
322.834
322.807
322.782
322.758
322.736
322.717
322.699
322.685
322.673
322.663
322.984
322.951
322.918
322.887
322.856
322.826
322.797
322.771
322.746
322.723
322.703
322.686
322.672
322.662
322.656
322.983
322.948
322.914
322.88
322.848
322.816
322.786
322.758
322.732
322.708
322.688
322.67
322.656
322.647
322.642
322.982
322.945
322.909
322.873
322.839
322.806
322.774
322.744
322.717
322.692
322.67
322.652
322.638
322.63
322.629
322.981
322.942
322.903
322.866
322.829
322.794
322.76
322.729
322.699
322.673
322.65
322.63
322.616
322.607
322.605
322.979
322.938
322.897
322.857
322.818
322.781
322.745
322.711
322.68
322.652
322.626
322.605
322.59
322.581
322.584
322.978
322.934
322.891
322.848
322.807
322.767
322.729
322.693
322.659
322.628
322.6
322.577
322.558
322.546
322.543
322.977
322.93
322.884
322.838
322.794
322.752
322.711
322.672
322.636
322.602
322.572
322.545
322.522
322.506
322.505
322.975
322.925
322.876
322.828
322.781
322.735
322.691
322.65
322.611
322.574
322.541
322.51
322.482
322.455
322.42
322.973
322.92
322.868
322.816
322.766
322.717
322.67
322.626
322.584
322.544
322.508
322.473
322.44
322.408
322.377
322.972
322.915
322.859
322.804
322.75
322.698
322.648
322.6
322.555
322.513
322.473
322.435
322.399
322.362
322.318
322.97
322.909
322.849
322.79
322.733
322.677
322.624
322.573
322.525
322.479
322.437
322.396
322.357
322.319
322.283
322.968
322.903
322.839
322.776
322.714
322.655
322.598
322.544
322.492
322.444
322.399
322.356
322.316
322.275
322.23
322.965
322.896
322.828
322.76
322.695
322.631
322.57
322.512
322.458
322.407
322.359
322.315
322.274
322.234
322.198
322.963
322.889
322.816
322.744
322.674
322.606
322.54
322.479
322.421
322.367
322.317
322.272
322.231
322.192
322.15
322.96
322.881
322.803
322.726
322.651
322.578
322.508
322.442
322.381
322.324
322.272
322.226
322.186
322.151
322.123
322.958
322.873
322.789
322.707
322.626
322.548
322.474
322.403
322.337
322.277
322.223
322.176
322.137
322.106
322.089
322.955
322.864
322.775
322.687
322.6
322.517
322.436
322.36
322.29
322.226
322.169
322.122
322.083
322.05
322.01
322.952
322.855
322.759
322.665
322.572
322.482
322.396
322.314
322.238
322.169
322.11
322.061
322.025
321.999
321.976
322.948
322.845
322.743
322.642
322.542
322.446
322.352
322.264
322.181
322.106
322.042
321.992
321.959
321.946
321.951
322.945
322.835
322.726
322.617
322.511
322.407
322.306
322.209
322.119
322.036
321.965
321.911
321.879
321.879
321.921
322.941
322.824
322.708
322.592
322.478
322.365
322.256
322.15
322.05
321.958
321.877
321.813
321.777
321.784
321.867
322.938
322.813
322.689
322.565
322.443
322.322
322.203
322.088
321.977
321.872
321.777
321.697
321.643
321.638
321.743
289.324
288.228
287.506
286.958
286.498
286.09
285.715
285.361
285.023
284.697
284.378
284.066
283.759
283.454
283.151
288.936
287.874
287.235
286.747
286.329
285.951
285.599
285.265
284.944
284.632
284.327
284.027
283.731
283.438
283.146
287.406
287.226
286.86
286.486
286.131
285.794
285.472
285.16
284.858
284.562
284.272
283.985
283.702
283.42
283.14
286.803
286.709
286.488
286.213
285.921
285.627
285.336
285.05
284.767
284.489
284.214
283.941
283.671
283.402
283.134
286.233
286.28
286.155
285.952
285.713
285.458
285.198
284.936
284.674
284.413
284.154
283.896
283.639
283.383
283.128
285.976
285.97
285.876
285.715
285.515
285.294
285.061
284.821
284.58
284.336
284.093
283.85
283.607
283.364
283.121
285.708
285.722
285.643
285.506
285.333
285.137
284.927
284.709
284.486
284.26
284.032
283.804
283.574
283.345
283.115
285.588
285.54
285.45
285.322
285.166
284.99
284.8
284.6
284.395
284.185
283.972
283.758
283.542
283.325
283.109
285.492
285.387
285.282
285.158
285.013
284.852
284.679
284.496
284.306
284.112
283.913
283.713
283.51
283.306
283.102
285.327
285.236
285.128
285.007
284.872
284.724
284.565
284.396
284.221
284.041
283.856
283.669
283.479
283.288
283.096
285.219
285.095
284.983
284.866
284.739
284.603
284.456
284.302
284.14
283.973
283.801
283.626
283.449
283.27
283.09
285.042
284.947
284.842
284.731
284.614
284.488
284.354
284.212
284.063
283.908
283.749
283.586
283.42
283.253
283.084
284.927
284.806
284.704
284.602
284.495
284.38
284.257
284.126
283.989
283.846
283.698
283.547
283.392
283.236
283.079
284.732
284.651
284.565
284.476
284.381
284.277
284.165
284.046
283.92
283.788
283.651
283.51
283.366
283.221
283.074
284.591
284.498
284.429
284.355
284.272
284.18
284.079
283.97
283.854
283.732
283.606
283.475
283.341
283.206
283.069
284.315
284.33
284.296
284.24
284.17
284.089
283.998
283.899
283.793
283.681
283.563
283.442
283.318
283.192
283.064
284.191
284.197
284.177
284.135
284.076
284.005
283.923
283.833
283.736
283.632
283.524
283.411
283.296
283.178
283.06
284.054
284.083
284.074
284.041
283.991
283.928
283.854
283.772
283.683
283.587
283.487
283.383
283.275
283.166
283.056
283.986
283.995
283.987
283.958
283.915
283.858
283.792
283.716
283.634
283.546
283.453
283.356
283.256
283.155
283.052
283.904
283.921
283.913
283.887
283.847
283.796
283.735
283.665
283.589
283.508
283.421
283.332
283.239
283.144
283.048
283.862
283.863
283.851
283.825
283.788
283.74
283.683
283.619
283.549
283.473
283.393
283.309
283.223
283.134
283.045
283.814
283.814
283.799
283.772
283.736
283.69
283.637
283.577
283.511
283.441
283.366
283.288
283.208
283.125
283.042
283.79
283.776
283.755
283.726
283.69
283.646
283.595
283.539
283.478
283.412
283.342
283.269
283.194
283.117
283.039
283.771
283.743
283.716
283.685
283.648
283.606
283.558
283.505
283.447
283.385
283.32
283.252
283.181
283.109
283.037
283.736
283.71
283.68
283.648
283.611
283.57
283.524
283.474
283.419
283.361
283.3
283.236
283.17
283.103
283.034
283.713
283.678
283.647
283.614
283.577
283.537
283.493
283.446
283.394
283.339
283.282
283.222
283.16
283.096
283.032
283.674
283.646
283.614
283.581
283.546
283.507
283.465
283.42
283.371
283.319
283.265
283.208
283.15
283.091
283.03
283.65
283.614
283.583
283.551
283.517
283.48
283.44
283.397
283.35
283.301
283.25
283.197
283.142
283.085
283.029
283.608
283.58
283.552
283.522
283.49
283.454
283.416
283.375
283.331
283.285
283.236
283.186
283.134
283.081
283.027
283.578
283.548
283.522
283.494
283.464
283.431
283.395
283.356
283.314
283.27
283.224
283.176
283.127
283.077
283.026
283.52
283.512
283.493
283.469
283.441
283.41
283.376
283.338
283.299
283.257
283.213
283.167
283.121
283.073
283.024
283.494
283.484
283.468
283.446
283.42
283.391
283.358
283.323
283.285
283.245
283.203
283.16
283.115
283.069
283.023
283.467
283.461
283.446
283.426
283.402
283.374
283.343
283.309
283.273
283.234
283.194
283.153
283.11
283.066
283.022
283.453
283.443
283.428
283.409
283.386
283.359
283.329
283.296
283.262
283.225
283.186
283.146
283.105
283.064
283.021
283.438
283.429
283.414
283.395
283.372
283.346
283.317
283.286
283.252
283.217
283.179
283.141
283.101
283.061
283.02
283.431
283.418
283.403
283.383
283.361
283.335
283.307
283.277
283.244
283.209
283.174
283.136
283.098
283.059
283.02
283.423