/*--------------------------------*- C++ -*----------------------------------*\
| =========                 |                                                 |
| \\      /  F ield         | OpenFOAM: The Open Source CFD Toolbox           |
|  \\    /   O peration     | Version:  5.x                                   |
|   \\  /    A nd           | Web:      www.OpenFOAM.org                      |
|    \\/     M anipulation  |                                                 |
\*---------------------------------------------------------------------------*/
FoamFile
{
    version     2.0;
    format      ascii;
    class       volScalarField;
    location    "7.3";
    object      gradTy;
}
// * * * * * * * * * * * * * * * * * * * * * * * * * * * * * * * * * * * * * //

dimensions      [0 -1 0 1 0 0 0];

internalField   nonuniform List<scalar> 
3200
(
18.2488
8.6358
11.7298
8.3124
9.74978
8.03982
8.794
7.79278
8.24167
7.60085
7.87624
7.51737
7.72782
7.3175
7.52974
7.13948
7.33865
6.9801
7.16187
6.83797
7.00128
6.71236
6.85743
6.60232
6.73032
6.50618
6.62043
6.42082
6.53579
6.36668
6.23155
6.31869
6.20024
6.25788
6.16575
6.21039
6.13643
6.17233
6.11222
6.14141
6.09239
6.11617
6.07625
6.09554
6.06328
6.07871
6.05317
6.06505
6.04596
6.05413
6.04307
6.0492
6.03766
6.04303
6.03412
6.03773
6.03284
6.03386
6.03456
6.03187
6.04065
6.03229
6.05366
6.03583
6.07863
6.04276
6.12651
6.04834
6.22316
6.00073
6.29314
7.1089
6.4216
7.94773
6.7806
9.89639
9.12574
9.00788
8.98355
8.97831
17.0093
9.75174
11.3322
8.7764
9.54703
8.27002
8.67378
7.92532
8.16451
7.68505
7.8321
7.56422
7.67638
7.36898
7.48111
7.18876
7.29406
7.0255
7.12164
6.87904
6.96544
6.74904
6.82579
6.63473
6.70249
6.53466
6.5953
6.44601
6.50834
6.37048
6.25644
6.30432
6.21585
6.24658
6.17763
6.2013
6.14592
6.16494
6.11993
6.13539
6.09868
6.11127
6.08137
6.09159
6.06742
6.07559
6.05646
6.06275
6.04845
6.05279
6.04452
6.04778
6.03913
6.04196
6.03528
6.03718
6.03352
6.03404
6.03455
6.03311
6.03966
6.03519
6.05116
6.04162
6.07358
6.05428
6.11671
6.07392
6.20336
6.07615
6.35163
6.9936
6.62344
7.76504
7.15802
9.50304
9.09958
9.0041
8.98274
8.97806
16.0599
10.5141
11.1
9.10728
9.42613
8.43293
8.5996
8.01831
8.11605
7.74415
7.8045
7.59583
7.64167
7.40364
7.44859
7.22207
7.26438
7.05626
7.09491
6.9069
6.94165
6.77394
6.80483
6.65675
6.68404
6.55395
6.57852
6.4627
6.48886
6.37328
6.27481
6.29538
6.22667
6.23924
6.18577
6.19535
6.15242
6.16009
6.1252
6.13143
6.10297
6.10805
6.08487
6.08899
6.07026
6.07355
6.05872
6.06125
6.05017
6.05194
6.0455
6.04683
6.04013
6.04126
6.03609
6.03685
6.03401
6.03421
6.03461
6.03401
6.03911
6.03727
6.04967
6.04574
6.07058
6.06252
6.1111
6.0926
6.19383
6.13544
6.39546
6.91878
6.76483
7.65233
7.41738
9.21968
9.06114
8.99739
8.98131
8.97766
15.3324
11.0312
10.9709
9.3457
9.35772
8.54945
8.55534
8.08413
8.08638
7.78596
7.78766
7.61725
7.61831
7.42697
7.42694
7.24464
7.24471
7.07714
7.07725
6.92586
6.92597
6.79091
6.79102
6.67175
6.67189
6.56705
6.56736
6.47371
6.47505
6.3754
6.28843
6.29
6.23424
6.23455
6.1914
6.19149
6.15689
6.15694
6.12882
6.12886
6.10593
6.10596
6.08728
6.08731
6.07222
6.07223
6.06029
6.0603
6.05138
6.05141
6.04617
6.0462
6.04082
6.04081
6.03666
6.03665
6.03439
6.03437
6.03472
6.03469
6.03883
6.03877
6.04884
6.0487
6.06889
6.06849
6.10818
6.10649
6.19068
6.18201
6.42875
6.87106
6.86455
7.58451
7.59524
9.01475
9.01892
8.98877
8.97938
8.97711
14.777
11.3786
10.9045
9.51863
9.32211
8.6334
8.53016
8.13101
8.06881
7.81568
7.77771
7.63181
7.60265
7.44265
7.41258
7.25991
7.23174
7.09133
7.06565
6.93875
6.91569
6.80247
6.78199
6.68198
6.66394
6.57595
6.55996
6.48091
6.46528
6.37702
6.2985
6.28692
6.23957
6.23159
6.19529
6.18903
6.15997
6.15492
6.13132
6.12721
6.10796
6.10461
6.08894
6.08623
6.07357
6.07139
6.06138
6.0597
6.05224
6.0511
6.04663
6.04578
6.0413
6.04053
6.03707
6.03655
6.03467
6.03451
6.03483
6.0352
6.03872
6.03987
6.04841
6.05085
6.06803
6.07286
6.10691
6.11695
6.19124
6.21835
6.45422
6.84129
6.93521
7.54506
7.71676
8.86643
8.97806
8.97932
8.97716
8.97647
14.3575
11.6091
10.8744
9.64399
9.30619
8.69393
8.51682
8.16442
8.05888
7.83679
7.77207
7.6417
7.59222
7.45314
7.40312
7.2702
7.22327
7.10092
7.05809
6.94749
6.90902
6.81031
6.77614
6.68893
6.65878
6.58197
6.55508
6.48558
6.45841
6.37825
6.30589
6.28527
6.24331
6.22977
6.19798
6.18748
6.16209
6.15364
6.13303
6.12616
6.10936
6.10376
6.09009
6.08554
6.0745
6.07087
6.06214
6.05934
6.05284
6.05092
6.04695
6.04551
6.04163
6.04036
6.03736
6.03651
6.03488
6.03464
6.03495
6.03558
6.03871
6.04067
6.04823
6.05242
6.06766
6.07607
6.10661
6.12484
6.19369
6.24635
6.47365
6.82325
6.98524
7.52314
7.79916
8.75963
8.94163
8.97001
8.97488
8.97581
14.0479
11.759
10.8643
9.73364
9.30125
8.73706
8.51049
8.18795
8.05361
7.85161
7.76905
7.64836
7.58537
7.46006
7.39698
7.27704
7.21781
7.10732
7.05325
6.95334
6.90475
6.81558
6.77241
6.69359
6.65549
6.58599
6.55191
6.48856
6.45366
6.37916
6.31122
6.28447
6.24593
6.22867
6.19982
6.18652
6.16353
6.15284
6.1342
6.12551
6.11031
6.10323
6.09086
6.08512
6.07514
6.07054
6.06266
6.05912
6.05326
6.05082
6.04716
6.04533
6.04185
6.04026
6.03756
6.03649
6.03504
6.03474
6.03505
6.03586
6.03874
6.04125
6.04818
6.05354
6.06756
6.07838
6.10679
6.1307
6.19679
6.26735
6.48818
6.81271
7.02023
7.51169
7.85418
8.68398
8.91133
8.96164
8.97277
8.97518
13.8299
11.8532
10.8635
9.79537
9.30157
8.76668
8.50799
8.20395
8.05105
7.86165
7.76756
7.65271
7.58101
7.46449
7.39311
7.28146
7.2144
7.11147
7.05024
6.95715
6.90211
6.819
6.7701
6.69662
6.65345
6.58859
6.5499
6.4904
6.4505
6.37981
6.31489
6.28414
6.24769
6.22804
6.20104
6.18595
6.16448
6.15236
6.13496
6.12511
6.11094
6.10291
6.09138
6.08487
6.07556
6.07035
6.063
6.059
6.05354
6.05076
6.0473
6.04523
6.04199
6.0402
6.0377
6.03649
6.03515
6.03482
6.03513
6.03606
6.03878
6.04165
6.0482
6.05431
6.06759
6.07999
6.10716
6.13488
6.19971
6.28235
6.49857
6.80686
7.04386
7.5062
7.88971
8.63242
8.88812
8.95484
8.971
8.97465
13.691
11.9079
10.8659
9.83411
9.30354
8.78525
8.50731
8.21391
8.04994
7.86787
7.7669
7.65533
7.57845
7.46711
7.39085
7.28409
7.21243
7.11396
7.0485
6.95942
6.90059
6.82105
6.76878
6.69845
6.65228
6.59015
6.54872
6.49146
6.44856
6.38022
6.3172
6.28404
6.24877
6.2277
6.20179
6.18563
6.16506
6.1521
6.13543
6.12489
6.11132
6.10274
6.09169
6.08473
6.07581
6.07025
6.06321
6.05893
6.05371
6.05074
6.04739
6.04516
6.04208
6.04016
6.03778
6.0365
6.03523
6.03488
6.03519
6.03619
6.03883
6.0419
6.04823
6.0548
6.06766
6.08101
6.1075
6.13757
6.20192
6.29201
6.50527
6.80385
7.05848
7.50387
7.91087
8.60034
8.87247
8.95006
8.96974
8.97427
13.6234
11.9329
10.8679
9.85281
9.30502
8.7942
8.50725
8.21869
8.04956
7.87086
7.76667
7.65656
7.57727
7.46833
7.38982
7.28532
7.21152
7.11512
7.04771
6.96049
6.8999
6.82202
6.76818
6.6993
6.65175
6.59088
6.54818
6.49193
6.44765
6.38043
6.31831
6.28402
6.24929
6.22755
6.20214
6.18549
6.16533
6.15198
6.13565
6.1248
6.1115
6.10266
6.09183
6.08467
6.07593
6.0702
6.06331
6.0589
6.05379
6.05073
6.04743
6.04513
6.04212
6.04015
6.03782
6.0365
6.03526
6.0349
6.03522
6.03625
6.03885
6.04202
6.04825
6.05503
6.0677
6.08151
6.1077
6.13889
6.2031
6.29673
6.50856
6.8026
7.06547
7.50307
7.92073
8.58496
8.86461
8.9476
8.96908
8.97407
-13.7619
-11.9565
-10.7274
-9.38825
-8.57784
-7.68599
-7.12404
-6.47215
-6.05712
-5.57502
-5.28157
-4.95593
-4.71831
-4.38977
-4.15408
-3.84235
-3.6245
-3.34328
-3.149
-2.90083
-2.73026
-2.51338
-2.36457
-2.17557
-2.04554
-1.87956
-1.76299
-1.60897
-1.48653
-1.29884
-1.1231
-1.02447
-0.922111
-0.856762
-0.778639
-0.726504
-0.662003
-0.618466
-0.564097
-0.527276
-0.48117
-0.449936
-0.410831
-0.384403
-0.351426
-0.329312
-0.302013
-0.284121
-0.262723
-0.249517
-0.234626
-0.223659
-0.208382
-0.197375
-0.182758
-0.172517
-0.159265
-0.150099
-0.138382
-0.130342
-0.12015
-0.113239
-0.104616
-0.0990038
-0.0924486
-0.0890984
-0.0870631
-0.0905109
-0.104773
-0.138695
-0.228793
-0.374906
-0.529486
-0.815965
-1.11863
-1.62776
-1.84314
-1.90714
-1.92371
-1.92756
-13.8342
-11.9334
-10.7319
-9.36711
-8.5811
-7.6728
-7.12764
-6.46268
-6.0598
-5.56748
-5.28287
-4.95242
-4.72195
-4.38606
-4.15712
-3.8386
-3.62704
-3.3398
-3.15116
-2.89773
-2.73212
-2.51067
-2.36618
-2.17321
-2.04698
-1.87759
-1.76449
-1.60771
-1.48915
-1.29837
-1.12002
-1.02462
-0.920633
-0.857275
-0.777602
-0.727001
-0.661167
-0.618902
-0.563397
-0.52765
-0.480577
-0.450252
-0.410326
-0.384666
-0.350993
-0.329521
-0.301638
-0.284263
-0.262397
-0.249586
-0.23447
-0.223832
-0.208212
-0.19752
-0.182584
-0.172639
-0.159102
-0.150203
-0.138236
-0.130429
-0.12002
-0.113308
-0.104496
-0.0990423
-0.0923212
-0.0890465
-0.0868444
-0.0900789
-0.103987
-0.136449
-0.226553
-0.374568
-0.52421
-0.815318
-1.11037
-1.63951
-1.84919
-1.90903
-1.92421
-1.92771
-13.9824
-11.8824
-10.7428
-9.32282
-8.58926
-7.64509
-7.13604
-6.44274
-6.06607
-5.55164
-5.286
-4.94491
-4.72981
-4.37808
-4.16376
-3.83058
-3.63261
-3.33239
-3.15592
-2.89113
-2.73622
-2.50487
-2.36974
-2.16819
-2.05015
-1.87337
-1.76774
-1.60493
-1.49465
-1.2974
-1.11362
-1.02512
-0.917532
-0.858444
-0.775405
-0.728109
-0.65939
-0.619869
-0.561909
-0.528478
-0.479316
-0.450955
-0.409252
-0.385252
-0.350074
-0.329988
-0.300845
-0.284586
-0.26171
-0.249748
-0.234137
-0.224206
-0.207847
-0.197837
-0.182212
-0.172905
-0.158755
-0.150429
-0.137924
-0.130621
-0.119743
-0.113462
-0.104243
-0.0991323
-0.0920566
-0.0889525
-0.086409
-0.0892207
-0.10246
-0.131897
-0.221996
-0.374165
-0.513276
-0.814513
-1.09275
-1.66404
-1.86124
-1.91272
-1.92519
-1.92801
-14.2147
-11.793
-10.765
-9.25107
-8.60585
-7.59998
-7.15181
-6.41013
-6.07786
-5.52585
-5.29215
-4.93236
-4.74314
-4.36461
-4.17515
-3.81715
-3.64228
-3.32003
-3.16421
-2.88013
-2.74337
-2.49523
-2.37595
-2.15984
-2.05568
-1.86631
-1.77329
-1.60005
-1.50364
-1.2959
-1.10341
-1.02639
-0.912495
-0.860574
-0.77178
-0.730078
-0.656448
-0.621576
-0.559442
-0.529938
-0.477225
-0.452193
-0.407472
-0.386287
-0.348553
-0.330819
-0.299538
-0.285175
-0.260588
-0.250058
-0.233578
-0.224839
-0.207229
-0.198379
-0.181588
-0.173366
-0.158177
-0.150825
-0.137406
-0.130957
-0.119283
-0.113735
-0.103826
-0.0993018
-0.0916341
-0.0888368
-0.0857601
-0.0879461
-0.100285
-0.12492
-0.214958
-0.374284
-0.495857
-0.814627
-1.06341
-1.70353
-1.87911
-1.91796
-1.92655
-1.92841
-14.5438
-11.6478
-10.8066
-9.14459
-8.63687
-7.53256
-7.17933
-6.36115
-6.09844
-5.48733
-5.30336
-4.913
-4.76405
-4.34358
-4.19329
-3.7964
-3.65785
-3.30102
-3.17764
-2.86324
-2.75499
-2.48045
-2.38605
-2.14701
-2.06461
-1.8554
-1.78204
-1.59209
-1.51709
-1.29378
-1.08859
-1.02913
-0.904982
-0.864181
-0.766275
-0.733326
-0.651959
-0.624376
-0.555672
-0.532329
-0.474029
-0.454221
-0.404752
-0.387986
-0.346234
-0.332193
-0.297555
-0.286175
-0.258905
-0.250607
-0.23271
-0.225828
-0.206262
-0.199241
-0.180622
-0.174108
-0.157286
-0.151463
-0.136609
-0.131503
-0.118578
-0.114183
-0.103195
-0.0995979
-0.0910175
-0.0887331
-0.0849015
-0.0862661
-0.0976193
-0.115327
-0.205148
-0.375914
-0.470549
-0.817541
-1.01841
-1.7616
-1.90246
-1.92441
-1.92818
-1.92889
-14.9888
-11.4204
-10.881
-8.99194
-8.69176
-7.43511
-7.22545
-6.28996
-6.13296
-5.43173
-5.32282
-4.88398
-4.79583
-4.31175
-4.2213
-3.76532
-3.68215
-3.27268
-3.19871
-2.83811
-2.77326
-2.45846
-2.40193
-2.12791
-2.07863
-1.83906
-1.79547
-1.57955
-1.53647
-1.29095
-1.06795
-1.03446
-0.894138
-0.870076
-0.758173
-0.738513
-0.64532
-0.628823
-0.55009
-0.53612
-0.469296
-0.457438
-0.400726
-0.390685
-0.342808
-0.334393
-0.294644
-0.287811
-0.256465
-0.251542
-0.231404
-0.227326
-0.204794
-0.200567
-0.179174
-0.175262
-0.155956
-0.152465
-0.135424
-0.132363
-0.117534
-0.114896
-0.10227
-0.100094
-0.0901499
-0.0886921
-0.0838357
-0.0841872
-0.0946999
-0.10285
-0.192101
-0.380589
-0.435148
-0.826301
-0.951715
-1.84377
-1.93056
-1.93159
-1.92993
-1.9294
-15.5765
-11.0719
-11.0094
-8.77574
-8.78491
-7.29578
-7.30062
-6.18764
-6.18926
-5.35244
-5.35549
-4.84095
-4.84345
-4.26417
-4.26394
-3.71934
-3.71951
-3.23092
-3.23126
-2.80116
-2.80154
-2.42614
-2.42652
-2.09983
-2.10026
-1.81488
-1.81579
-1.56009
-1.56395
-1.28722
-1.03973
-1.04407
-0.878646
-0.879487
-0.746385
-0.746644
-0.635615
-0.635763
-0.54192
-0.542027
-0.462365
-0.46245
-0.394835
-0.394901
-0.337806
-0.337848
-0.290418
-0.29043
-0.252969
-0.253087
-0.229456
-0.229564
-0.202595
-0.202582
-0.177027
-0.177034
-0.153995
-0.154009
-0.133681
-0.133695
-0.116003
-0.116009
-0.100927
-0.100902
-0.0889436
-0.0887878
-0.0825624
-0.0817025
-0.0918757
-0.0871292
-0.175085
-0.390622
-0.386283
-0.845689
-0.854358
-1.95815
-1.96209
-1.93888
-1.93164
-1.92989
-16.3444
-10.5457
-11.2247
-8.46982
-8.938
-7.0967
-7.4205
-6.04073
-6.2791
-5.23957
-5.40886
-4.77724
-4.91435
-4.19344
-4.32835
-3.65156
-3.77643
-3.1696
-3.28103
-2.74699
-2.84485
-2.3788
-2.46419
-2.05868
-2.13333
-1.77925
-1.84638
-1.53026
-1.60266
-1.28232
-1.00143
-1.06047
-0.856506
-0.894258
-0.729265
-0.759229
-0.621467
-0.646464
-0.529994
-0.551128
-0.452247
-0.470173
-0.386239
-0.401404
-0.330519
-0.343204
-0.284296
-0.29455
-0.247972
-0.255583
-0.22656
-0.232885
-0.19932
-0.205619
-0.17386
-0.179729
-0.151112
-0.156368
-0.131125
-0.135736
-0.113765
-0.117726
-0.0989826
-0.102188
-0.0872661
-0.0891271
-0.0810751
-0.0787773
-0.0896489
-0.0677012
-0.152966
-0.40945
-0.318869
-0.883108
-0.713195
-2.11651
-1.99471
-1.94553
-1.93312
-1.9303
-17.3443
-9.76043
-11.5774
-8.03499
-9.18348
-6.81102
-7.60852
-5.82911
-6.42006
-5.07834
-5.49428
-4.68278
-5.01957
-4.08849
-4.42524
-3.55173
-3.86261
-3.07957
-3.35662
-2.66755
-2.91072
-2.30941
-2.52151
-1.99832
-2.18355
-1.72678
-1.8923
-1.48488
-1.65708
-1.27585
-0.949544
-1.0874
-0.824701
-0.917141
-0.70435
-0.778526
-0.60081
-0.662826
-0.512565
-0.565031
-0.437459
-0.481972
-0.373681
-0.411351
-0.319892
-0.351425
-0.27541
-0.300944
-0.240808
-0.259546
-0.222252
-0.237804
-0.194451
-0.21018
-0.169188
-0.183804
-0.146876
-0.159948
-0.127376
-0.138841
-0.11049
-0.120353
-0.0961612
-0.1042
-0.084918
-0.0898636
-0.0793584
-0.0753259
-0.0887355
-0.0439853
-0.123998
-0.442161
-0.225262
-0.949892
-0.509103
-2.33589
-2.02442
-1.9507
-1.93422
-1.93061
-18.6479
-8.59942
-12.1447
-7.41285
-9.57011
-6.39887
-7.89995
-5.523
-6.63865
-4.84714
-5.62912
-4.54271
-5.17582
-3.93313
-4.57086
-3.40483
-3.99287
-2.94742
-3.47115
-2.5511
-3.01065
-2.20774
-2.6085
-1.90987
-2.2597
-1.64966
-1.96138
-1.41655
-1.73386
-1.2674
-0.879279
-1.13054
-0.778864
-0.952409
-0.668116
-0.80806
-0.570713
-0.687828
-0.487166
-0.586273
-0.415914
-0.500009
-0.3554
-0.42658
-0.304451
-0.364055
-0.262559
-0.310863
-0.230581
-0.265842
-0.215916
-0.245166
-0.1873
-0.217091
-0.162367
-0.190016
-0.140709
-0.165423
-0.121929
-0.143603
-0.105745
-0.124401
-0.0921045
-0.107359
-0.08165
-0.0912675
-0.0774272
-0.0712213
-0.0901868
-0.0153173
-0.0855318
-0.496285
-0.0940051
-1.06329
-0.214302
-2.64077
-2.0446
-1.95357
-1.93478
-1.93074
18.6479
8.59942
12.1447
7.41285
9.57011
6.39887
7.89995
5.523
6.63865
4.84714
5.62912
4.54271
5.17582
3.93313
4.57086
3.40483
3.99286
2.94742
3.47115
2.5511
3.01065
2.20774
2.6085
1.90987
2.2597
1.64966
1.96138
1.41655
1.73386
1.26739
0.879277
1.13054
0.778863
0.952409
0.668115
0.808059
0.570712
0.687828
0.487165
0.586272
0.415913
0.500009
0.3554
0.42658
0.304451
0.364055
0.262559
0.310863
0.23058
0.265842
0.215916
0.245166
0.1873
0.217091
0.162367
0.190016
0.140709
0.165423
0.121929
0.143603
0.105745
0.124401
0.0921043
0.107359
0.0816499
0.0912675
0.0774271
0.0712215
0.0901866
0.0153176
0.0855318
0.496286
0.0940055
1.06329
0.214304
2.64078
2.04461
1.95358
1.93479
1.93075
17.3443
9.76044
11.5774
8.035
9.18348
6.81103
7.60853
5.82911
6.42006
5.07835
5.49429
4.68278
5.01957
4.08849
4.42525
3.55173
3.86262
3.07957
3.35662
2.66755
2.91072
2.30941
2.52151
1.99832
2.18355
1.72678
1.8923
1.48489
1.65708
1.27586
0.949546
1.0874
0.824702
0.917143
0.704351
0.778528
0.600811
0.662827
0.512567
0.565032
0.43746
0.481973
0.373682
0.411353
0.319893
0.351426
0.275411
0.300945
0.240809
0.259547
0.222253
0.237805
0.194452
0.210181
0.169189
0.183805
0.146877
0.159949
0.127376
0.138842
0.110491
0.120354
0.0961618
0.104201
0.0849186
0.0898643
0.0793589
0.0753265
0.0887358
0.0439858
0.123998
0.442161
0.225262
0.949894
0.509104
2.3359
2.02443
1.95071
1.93423
1.93062
16.3444
10.5457
11.2247
8.46983
8.93801
7.09671
7.4205
6.04074
6.2791
5.23957
5.40887
4.77724
4.91435
4.19345
4.32836
3.65157
3.77643
3.16961
3.28103
2.747
2.84485
2.37881
2.4642
2.05868
2.13333
1.77926
1.84638
1.53026
1.60266
1.28233
1.00144
1.06048
0.85651
0.894262
0.729269
0.759233
0.62147
0.646467
0.529996
0.551131
0.45225
0.470175
0.386242
0.401407
0.330521
0.343206
0.284299
0.294552
0.247974
0.255585
0.226562
0.232887
0.199322
0.205621
0.173862
0.17973
0.151114
0.15637
0.131126
0.135738
0.113766
0.117728
0.0989839
0.102189
0.0872673
0.0891283
0.0810762
0.0787783
0.0896497
0.067702
0.152966
0.40945
0.318869
0.88311
0.713197
2.11652
1.99472
1.94553
1.93313
1.93031
15.5765
11.0719
11.0095
8.77574
8.78492
7.29579
7.30062
6.18765
6.18927
5.35245
5.3555
4.84096
4.84346
4.26418
4.26395
3.71934
3.71952
3.23092
3.23127
2.80117
2.80154
2.42615
2.42653
2.09984
2.10027
1.81488
1.81579
1.5601
1.56396
1.28723
1.03973
1.04408
0.87865
0.879491
0.746389
0.746648
0.635619
0.635766
0.541923
0.542031
0.462369
0.462453
0.394838
0.394904
0.337808
0.337851
0.290421
0.290433
0.252971
0.253089
0.229458
0.229566
0.202598
0.202584
0.17703
0.177036
0.153997
0.154011
0.133683
0.133697
0.116004
0.11601
0.100928
0.100904
0.088945
0.0887892
0.0825636
0.0817038
0.0918767
0.0871301
0.175085
0.390622
0.386284
0.845691
0.85436
1.95815
1.9621
1.93889
1.93164
1.92989
14.9888
11.4204
10.881
8.99195
8.69177
7.43512
7.22546
6.28997
6.13297
5.43174
5.32283
4.88399
4.79584
4.31176
4.22131
3.76533
3.68216
3.27268
3.19872
2.83812
2.77327
2.45847
2.40194
2.12792
2.07864
1.83906
1.79547
1.57955
1.53647
1.29096
1.06795
1.03447
0.894142
0.87008
0.758178
0.738517
0.645324
0.628827
0.550094
0.536124
0.469299
0.457441
0.400729
0.390689
0.342811
0.334396
0.294647
0.287814
0.256467
0.251545
0.231406
0.227329
0.204796
0.20057
0.179176
0.175264
0.155958
0.152467
0.135426
0.132365
0.117536
0.114897
0.102271
0.100096
0.0901514
0.0886936
0.083837
0.0841885
0.094701
0.102851
0.192101
0.38059
0.435149
0.826303
0.951718
1.84378
1.93057
1.9316
1.92994
1.92941
14.5438
11.6478
10.8066
9.1446
8.63688
7.53257
7.17934
6.36116
6.09845
5.48734
5.30337
4.91301
4.76406
4.34359
4.1933
3.79641
3.65786
3.30103
3.17765
2.86325
2.755
2.48045
2.38606
2.14701
2.06462
1.85541
1.78205
1.5921
1.51709
1.29379
1.0886
1.02913
0.904987
0.864186
0.766279
0.73333
0.651963
0.62438
0.555676
0.532333
0.474033
0.454225
0.404755
0.387989
0.346237
0.332196
0.297558
0.286177
0.258907
0.25061
0.232713
0.225831
0.206264
0.199243
0.180624
0.17411
0.157288
0.151465
0.136611
0.131505
0.11858
0.114185
0.103197
0.0995995
0.091019
0.0887346
0.0849028
0.0862674
0.0976204
0.115328
0.205149
0.375915
0.47055
0.817543
1.01841
1.76161
1.90247
1.92442
1.92819
1.9289
14.2147
11.793
10.765
9.25108
8.60586
7.59998
7.15182
6.41014
6.07787
5.52585
5.29216
4.93237
4.74315
4.36462
4.17516
3.81716
3.64229
3.32004
3.16422
2.88014
2.74338
2.49524
2.37596
2.15984
2.05568
1.86632
1.77329
1.60005
1.50365
1.2959
1.10342
1.02639
0.9125
0.860579
0.771784
0.730082
0.656452
0.62158
0.559446
0.529942
0.477229
0.452197
0.407475
0.38629
0.348556
0.330821
0.29954
0.285178
0.26059
0.250061
0.23358
0.224842
0.207231
0.198382
0.18159
0.173369
0.158179
0.150827
0.137408
0.130959
0.119284
0.113737
0.103828
0.0993034
0.0916356
0.0888383
0.0857615
0.0879474
0.100286
0.124921
0.214959
0.374285
0.495857
0.814629
1.06341
1.70354
1.87912
1.91797
1.92656
1.92842
13.9824
11.8824
10.7428
9.32282
8.58927
7.6451
7.13605
6.44275
6.06608
5.55165
5.28601
4.94491
4.72982
4.37809
4.16377
3.83058
3.63262
3.3324
3.15593
2.89113
2.73622
2.50488
2.36975
2.1682
2.05016
1.87338
1.76775
1.60493
1.49466
1.29741
1.11362
1.02513
0.917537
0.858449
0.775409
0.728114
0.659394
0.619873
0.561912
0.528482
0.479319
0.450958
0.409255
0.385255
0.350077
0.32999
0.300848
0.284588
0.261712
0.249751
0.234139
0.224209
0.207849
0.197839
0.182214
0.172907
0.158757
0.150431
0.137926
0.130623
0.119745
0.113464
0.104245
0.0991339
0.0920581
0.088954
0.0864103
0.089222
0.102461
0.131898
0.221997
0.374166
0.513277
0.814514
1.09275
1.66404
1.86124
1.91272
1.92519
1.92801
13.8342
11.9334
10.7319
9.36711
8.58111
7.67281
7.12765
6.46269
6.05981
5.56749
5.28288
4.95242
4.72196
4.38607
4.15713
3.83861
3.62705
3.33981
3.15117
2.89774
2.73213
2.51067
2.36619
2.17322
2.04699
1.8776
1.7645
1.60772
1.48915
1.29837
1.12002
1.02463
0.920637
0.85728
0.777606
0.727005
0.661171
0.618905
0.5634
0.527653
0.48058
0.450255
0.410329
0.384669
0.350996
0.329523
0.301641
0.284265
0.262399
0.249588
0.234473
0.223834
0.208214
0.197522
0.182586
0.172641
0.159104
0.150204
0.138238
0.130431
0.120022
0.11331
0.104498
0.0990438
0.0923226
0.0890479
0.0868457
0.0900802
0.103988
0.13645
0.226554
0.374569
0.524211
0.81532
1.11038
1.63952
1.8492
1.90904
1.92422
1.92772
13.7619
11.9565
10.7275
9.38826
8.57785
7.686
7.12404
6.47216
6.05712
5.57503
5.28158
4.95594
4.71831
4.38978
4.15409
3.84236
3.62451
3.34328
3.14901
2.90084
2.73027
2.51339
2.36458
2.17557
2.04555
1.87957
1.763
1.60898
1.48654
1.29885
1.1231
1.02447
0.922115
0.856766
0.778643
0.726508
0.662007
0.61847
0.5641
0.527279
0.481173
0.449939
0.410834
0.384405
0.351429
0.329314
0.302016
0.284124
0.262725
0.249519
0.234628
0.223661
0.208384
0.197377
0.18276
0.172519
0.159266
0.150101
0.138384
0.130344
0.120152
0.11324
0.104617
0.0990052
0.09245
0.0890997
0.0870643
0.0905121
0.104774
0.138697
0.228794
0.374907
0.529487
0.815967
1.11863
1.62777
1.84314
1.90714
1.92371
1.92757
-13.6269
-11.9378
-10.8748
-9.86334
-9.31972
-8.81687
-8.53901
-8.26784
-8.11729
-7.96853
-7.86595
-7.73013
-7.63444
-7.50976
-7.42277
-7.31044
-7.23231
-7.13168
-7.06185
-6.97214
-6.91008
-6.83062
-6.77581
-6.70586
-6.65764
-6.596
-6.5528
-6.49595
-6.45121
-6.38336
-6.32069
-6.2861
-6.25108
-6.22917
-6.20355
-6.18678
-6.16647
-6.15302
-6.13657
-6.12564
-6.11224
-6.10334
-6.09244
-6.08522
-6.07642
-6.07065
-6.06371
-6.05927
-6.05413
-6.05104
-6.04772
-6.04541
-6.04237
-6.04038
-6.03803
-6.03669
-6.03544
-6.03507
-6.03536
-6.03639
-6.03897
-6.04213
-6.04835
-6.05513
-6.06778
-6.08158
-6.10777
-6.13895
-6.20315
-6.29678
-6.5086
-6.80264
-7.0655
-7.5031
-7.92076
-8.58498
-8.86463
-8.94762
-8.9691
-8.97409
-13.6944
-11.9128
-10.8727
-9.84462
-9.31808
-8.80787
-8.53874
-8.26302
-8.11722
-7.96668
-7.86727
-7.72853
-7.6356
-7.50825
-7.42379
-7.30907
-7.23321
-7.13045
-7.06265
-6.97104
-6.91078
-6.82963
-6.77642
-6.70499
-6.65817
-6.59526
-6.55335
-6.49546
-6.45214
-6.38316
-6.31956
-6.28611
-6.25056
-6.22931
-6.2032
-6.18692
-6.16619
-6.15313
-6.13635
-6.12573
-6.11206
-6.10342
-6.09229
-6.08528
-6.0763
-6.0707
-6.06361
-6.0593
-6.05404
-6.05105
-6.04768
-6.04543
-6.04233
-6.04039
-6.03799
-6.03669
-6.0354
-6.03504
-6.03533
-6.03632
-6.03894
-6.04201
-6.04833
-6.05489
-6.06774
-6.08109
-6.10757
-6.13763
-6.20197
-6.29206
-6.50531
-6.80389
-7.05851
-7.5039
-7.91089
-8.60036
-8.8725
-8.95008
-8.96976
-8.97429
-13.8332
-11.8581
-10.8702
-9.80585
-9.3158
-8.78923
-8.53874
-8.253
-8.11734
-7.96279
-7.87017
-7.72509
-7.63814
-7.50503
-7.42601
-7.30614
-7.23518
-7.12781
-7.06439
-6.96867
-6.91231
-6.82752
-6.77775
-6.70314
-6.65935
-6.59368
-6.55453
-6.49439
-6.45409
-6.38273
-6.31723
-6.28622
-6.24946
-6.22965
-6.20245
-6.18724
-6.16561
-6.1534
-6.13588
-6.12595
-6.11168
-6.1036
-6.09198
-6.08542
-6.07604
-6.07081
-6.0634
-6.05937
-6.05387
-6.05108
-6.04759
-6.0455
-6.04224
-6.04043
-6.0379
-6.03668
-6.03533
-6.03498
-6.03528
-6.0362
-6.0389
-6.04176
-6.04829
-6.0544
-6.06767
-6.08007
-6.10723
-6.13494
-6.19977
-6.2824
-6.49861
-6.80689
-7.04389
-7.50623
-7.88973
-8.63244
-8.88815
-8.95486
-8.97102
-8.97468
-14.0511
-11.7639
-10.8707
-9.7441
-9.31497
-8.75954
-8.54014
-8.23697
-8.11821
-7.95642
-7.87517
-7.71932
-7.64252
-7.49964
-7.42987
-7.30126
-7.23861
-7.12342
-7.06743
-6.96474
-6.91497
-6.82402
-6.78008
-6.70005
-6.66141
-6.59104
-6.55655
-6.49253
-6.45728
-6.38207
-6.31352
-6.28654
-6.24769
-6.23029
-6.20122
-6.18781
-6.16465
-6.15388
-6.1351
-6.12635
-6.11105
-6.10392
-6.09146
-6.08568
-6.07562
-6.071
-6.06305
-6.05949
-6.05359
-6.05113
-6.04745
-6.04561
-6.04209
-6.04049
-6.03777
-6.03669
-6.03521
-6.03491
-6.03519
-6.036
-6.03886
-6.04136
-6.04828
-6.05363
-6.06764
-6.07846
-6.10686
-6.13077
-6.19685
-6.2674
-6.48822
-6.81275
-7.02026
-7.51172
-7.8542
-8.684
-8.91136
-8.96166
-8.97279
-8.97521
-14.3604
-11.614
-10.8805
-9.65445
-9.3192
-8.71641
-8.54489
-8.21356
-8.1208
-7.94683
-7.88316
-7.7104
-7.64954
-7.49132
-7.43608
-7.29374
-7.24415
-7.11666
-7.07234
-6.95868
-6.91929
-6.81863
-6.78385
-6.6953
-6.66473
-6.58696
-6.55976
-6.48952
-6.46207
-6.38115
-6.30815
-6.28735
-6.24505
-6.2314
-6.19937
-6.18878
-6.1632
-6.15468
-6.13393
-6.127
-6.11009
-6.10445
-6.09068
-6.0861
-6.07498
-6.07132
-6.06253
-6.05971
-6.05317
-6.05123
-6.04723
-6.04578
-6.04187
-6.04059
-6.03756
-6.0367
-6.03505
-6.0348
-6.03509
-6.03571
-6.03882
-6.04078
-6.04833
-6.05251
-6.06774
-6.07614
-6.10667
-6.1249
-6.19375
-6.2464
-6.47369
-6.82328
-6.98527
-7.52317
-7.79918
-8.75965
-8.94165
-8.97003
-8.97491
-8.97583
-14.7796
-11.3835
-10.91
-9.52918
-9.33412
-8.65603
-8.55604
-8.18062
-8.12664
-7.93282
-7.8955
-7.69699
-7.66046
-7.47889
-7.44577
-7.28251
-7.25279
-7.10657
-7.08002
-6.94966
-6.92605
-6.8106
-6.78977
-6.68824
-6.66994
-6.58086
-6.56468
-6.48479
-6.469
-6.37991
-6.30069
-6.28901
-6.24127
-6.23323
-6.19665
-6.19034
-6.16106
-6.15597
-6.1322
-6.12806
-6.10868
-6.10531
-6.08953
-6.08679
-6.07404
-6.07185
-6.06177
-6.06008
-6.05256
-6.05141
-6.04692
-6.04606
-6.04154
-6.04077
-6.03727
-6.03675
-6.03484
-6.03468
-6.03497
-6.03533
-6.03884
-6.03998
-6.04851
-6.05095
-6.06811
-6.07294
-6.10698
-6.11702
-6.1913
-6.2184
-6.45427
-6.84133
-6.93524
-7.54509
-7.71679
-8.86645
-8.97809
-8.97934
-8.97718
-8.9765
-15.3346
-11.0361
-10.9759
-9.35646
-9.36837
-8.57252
-8.5782
-8.13481
-8.13807
-7.91255
-7.91429
-7.67711
-7.67718
-7.46051
-7.46066
-7.26594
-7.2661
-7.0917
-7.09184
-6.93636
-6.93649
-6.79879
-6.79892
-6.67784
-6.67798
-6.57184
-6.57216
-6.4775
-6.47885
-6.37827
-6.29053
-6.29212
-6.2359
-6.23621
-6.19273
-6.19282
-6.15796
-6.15801
-6.12969
-6.12973
-6.10663
-6.10666
-6.08785
-6.08788
-6.07268
-6.0727
-6.06067
-6.06068
-6.0517
-6.05173
-6.04645
-6.04648
-6.04106
-6.04105
-6.03686
-6.03685
-6.03455
-6.03454
-6.03485
-6.03482
-6.03894
-6.03888
-6.04893
-6.04879
-6.06897
-6.06857
-6.10825
-6.10656
-6.19073
-6.18206
-6.42879
-6.87109
-6.86458
-7.58454
-7.59527
-9.01477
-9.01894
-8.98879
-8.9794
-8.97713
-16.0615
-10.5192
-11.1041
-9.1185
-9.43492
-8.45695
-8.61832
-8.07114
-8.15865
-7.88319
-7.94264
-7.64773
-7.70257
-7.43347
-7.48335
-7.24157
-7.28638
-7.06984
-7.1099
-6.91684
-6.95244
-6.78147
-6.81291
-6.6626
-6.69028
-6.55856
-6.58343
-6.46637
-6.49279
-6.37612
-6.27679
-6.29753
-6.22827
-6.24094
-6.18706
-6.19671
-6.15345
-6.16118
-6.12604
-6.13231
-6.10366
-6.10877
-6.08543
-6.08957
-6.07071
-6.07402
-6.05909
-6.06164
-6.05048
-6.05226
-6.04578
-6.04711
-6.04037
-6.0415
-6.03629
-6.03705
-6.03417
-6.03438
-6.03475
-6.03415
-6.03922
-6.03738
-6.04977
-6.04583
-6.07066
-6.0626
-6.11117
-6.09267
-6.19388
-6.1355
-6.3955
-6.91881
-6.76486
-7.65235
-7.4174
-9.2197
-9.06117
-8.99741
-8.98133
-8.97768
-17.0101
-9.75727
-11.3351
-8.78846
-9.55325
-8.29581
-8.68679
-7.98208
-8.19375
-7.84044
-7.98516
-7.60436
-7.74091
-7.39366
-7.51771
-7.20573
-7.31713
-7.03772
-7.13728
-6.88817
-6.97665
-6.75605
-6.83417
-6.64023
-6.70894
-6.53902
-6.60038
-6.44949
-6.51245
-6.37327
-6.25825
-6.30655
-6.21736
-6.24834
-6.17885
-6.2027
-6.14691
-6.16607
-6.12073
-6.1363
-6.09933
-6.11201
-6.0819
-6.09219
-6.06785
-6.07608
-6.05682
-6.06314
-6.04874
-6.05312
-6.04479
-6.04807
-6.03936
-6.04221
-6.03547
-6.03739
-6.03367
-6.03422
-6.03468
-6.03325
-6.03977
-6.03531
-6.05125
-6.04172
-6.07366
-6.05436
-6.11677
-6.07398
-6.20341
-6.0762
-6.35167
-6.99362
-6.62348
-7.76507
-7.15805
-9.50306
-9.0996
-9.00412
-8.98277
-8.97808
-18.2488
-8.642
-11.731
-8.3259
-9.75242
-8.06868
-8.79903
-7.85631
-8.25139
-7.77771
-8.04865
-7.54025
-7.79855
-7.33495
-7.56946
-7.15291
-7.36345
-6.99039
-7.17855
-6.84595
-7.01318
-6.71863
-6.86628
-6.60732
-6.73711
-6.51019
-6.62577
-6.42403
-6.54015
-6.36942
-6.23314
-6.32103
-6.20162
-6.25972
-6.16688
-6.21186
-6.13735
-6.17351
-6.11297
-6.14237
-6.093
-6.11695
-6.07674
-6.09617
-6.06368
-6.07922
-6.0535
-6.06547
-6.04624
-6.05447
-6.04333
-6.0495
-6.03787
-6.04328
-6.0343
-6.03794
-6.03299
-6.03405
-6.03468
-6.03202
-6.04075
-6.03242
-6.05375
-6.03593
-6.0787
-6.04285
-6.12657
-6.04841
-6.2232
-6.00079
-6.29318
-7.10892
-6.42163
-7.94775
-6.78063
-9.89641
-9.12576
-9.00791
-8.98358
-8.97834
)
;

boundaryField
{
    F1_1
    {
        type            calculated;
        value           nonuniform List<scalar> 
80
(
18.951
7.97349
11.9794
8.04101
9.87601
7.90476
8.86803
7.71475
8.2889
7.55129
7.90332
7.48936
7.75853
7.28672
7.55888
7.11008
7.3654
6.95303
7.18601
6.81348
7.02281
6.6905
6.87643
6.583
6.74704
6.4892
6.63549
6.40567
6.55184
6.36449
6.21723
6.3275
6.191
6.26471
6.1587
6.21587
6.13079
6.17678
6.10764
6.14504
6.08865
6.11912
6.0732
6.09792
6.06081
6.08059
6.05121
6.06644
6.04449
6.05495
6.0422
6.05004
6.03678
6.04367
6.03343
6.03806
6.03245
6.03377
6.03458
6.03116
6.04127
6.0306
6.05522
6.03244
6.08177
6.03603
6.13269
6.0335
6.23619
5.95852
6.25961
7.17867
6.30275
8.06033
6.55696
10.1252
9.13444
9.00893
8.9838
8.97841
)
;
    }
    F1_2
    {
        type            calculated;
        value           nonuniform List<scalar> 
80
(
-19.386
-7.90784
-12.4938
-7.04623
-9.80605
-6.15524
-8.07683
-5.3419
-6.77135
-4.71084
-5.71154
-4.45908
-5.26924
-3.84047
-4.65831
-3.3174
-4.07125
-2.86884
-3.54014
-2.4819
-3.07088
-2.14734
-2.66095
-1.85733
-2.3056
-1.60379
-2.0029
-1.37556
-1.77885
-1.26263
-0.838871
-1.15703
-0.7518
-0.973795
-0.646659
-0.82593
-0.55288
-0.70295
-0.472117
-0.599122
-0.403153
-0.510924
-0.344578
-0.435802
-0.295319
-0.371714
-0.254974
-0.316901
-0.224577
-0.269712
-0.212158