/*--------------------------------*- C++ -*----------------------------------*\
| =========                 |                                                 |
| \\      /  F ield         | OpenFOAM: The Open Source CFD Toolbox           |
|  \\    /   O peration     | Version:  5.x                                   |
|   \\  /    A nd           | Web:      www.OpenFOAM.org                      |
|    \\/     M anipulation  |                                                 |
\*---------------------------------------------------------------------------*/
FoamFile
{
    version     2.0;
    format      ascii;
    class       volScalarField;
    location    "7.3";
    object      T;
}
// * * * * * * * * * * * * * * * * * * * * * * * * * * * * * * * * * * * * * //

dimensions      [0 0 0 1 0 0 0];

internalField   nonuniform List<scalar> 
3200
(
2.08498
2.43613
2.45616
2.601
2.61018
2.6825
2.68731
2.72917
2.73204
2.75855
2.76031
2.77564
2.77698
2.79371
2.79507
2.81102
2.8123
2.82697
2.82814
2.8414
2.84245
2.85429
2.85522
2.86567
2.86649
2.87569
2.87642
2.88471
2.88544
2.89422
2.90191
2.90247
2.90744
2.90781
2.91161
2.91189
2.91493
2.91516
2.91763
2.91782
2.91983
2.91998
2.92162
2.92174
2.92307
2.92317
2.92421
2.92429
2.92507
2.92512
2.92559
2.92563
2.9261
2.92613
2.92649
2.92652
2.92671
2.92672
2.92668
2.92667
2.9263
2.92624
2.92535
2.92523
2.92343
2.9232
2.91961
2.91912
2.91121
2.90982
2.88732
2.84806
2.84368
2.77988
2.77236
2.65301
2.64806
2.64743
2.6473
2.64728
2.26045
2.52911
2.57096
2.68684
2.70641
2.76425
2.77451
2.80788
2.81398
2.83506
2.8388
2.85109
2.85395
2.86719
2.87007
2.88271
2.88542
2.89705
2.89952
2.91003
2.91225
2.92163
2.9236
2.93189
2.93363
2.94092
2.94248
2.94907
2.95064
2.9579
2.96437
2.96556
2.96953
2.97032
2.97334
2.97394
2.97635
2.97684
2.9788
2.9792
2.98079
2.98111
2.98241
2.98268
2.98372
2.98393
2.98476
2.98493
2.98554
2.98565
2.98603
2.98611
2.98648
2.98656
2.98684
2.98689
2.98704
2.98706
2.98703
2.98699
2.9867
2.98658
2.98587
2.98563
2.98418
2.9837
2.98081
2.97975
2.97331
2.97025
2.95059
2.91846
2.90909
2.85823
2.8424
2.74969
2.73923
2.7375
2.73714
2.73706
2.42517
2.63117
2.68281
2.77653
2.80112
2.8479
2.86079
2.88768
2.89533
2.91225
2.91695
2.92692
2.93051
2.94108
2.94469
2.9548
2.95818
2.96748
2.97057
2.97898
2.98176
2.98927
2.99173
2.99837
3.00054
3.00639
3.00833
3.01363
3.01561
3.02162
3.02704
3.02855
3.03176
3.03274
3.03516
3.03592
3.03785
3.03846
3.04003
3.04053
3.0418
3.04221
3.04325
3.04358
3.04442
3.04468
3.04534
3.04554
3.04604
3.04618
3.04648
3.04658
3.04688
3.04697
3.0472
3.04726
3.04738
3.0474
3.04738
3.04733
3.04709
3.04695
3.04637
3.04607
3.0449
3.04429
3.04195
3.04059
3.03527
3.03134
3.01436
2.98794
2.97615
2.93518
2.91552
2.84307
2.83005
2.82751
2.82696
2.82684
2.58165
2.7394
2.79296
2.86899
2.89493
2.9329
2.9465
2.96824
2.97631
2.98994
2.99489
3.00301
3.00679
3.01526
3.01904
3.02715
3.0307
3.03817
3.04141
3.04817
3.05108
3.05711
3.0597
3.06502
3.06731
3.072
3.07405
3.07832
3.08041
3.08537
3.08987
3.09147
3.09407
3.0951
3.09705
3.09785
3.0994
3.10004
3.1013
3.10182
3.10285
3.10328
3.10411
3.10446
3.10513
3.10541
3.10594
3.10615
3.10655
3.10669
3.10694
3.10705
3.10728
3.10738
3.10756
3.10763
3.10772
3.10774
3.10772
3.10767
3.10748
3.10733
3.10686
3.10654
3.1056
3.10495
3.10304
3.1016
3.09718
3.09296
3.0785
3.05683
3.04439
3.01127
2.99075
2.93408
2.92045
2.91744
2.91676
2.91661
2.73182
2.85179
2.90222
2.96344
2.98827
3.01889
3.0319
3.04936
3.05706
3.06797
3.07271
3.07926
3.08287
3.08962
3.09323
3.09969
3.10307
3.10903
3.11212
3.1175
3.12028
3.12508
3.12755
3.1318
3.13398
3.13773
3.13968
3.1431
3.14511
3.14913
3.15281
3.15435
3.15644
3.15743
3.15899
3.15975
3.16099
3.1616
3.16261
3.1631
3.16392
3.16433
3.16499
3.16532
3.16586
3.16612
3.16655
3.16675
3.16707
3.16721
3.1674
3.16751
3.1677
3.16779
3.16793
3.16799
3.16807
3.16809
3.16807
3.16802
3.16787
3.16772
3.16735
3.16704
3.16628
3.16566
3.16411
3.16272
3.15909
3.15498
3.14293
3.12536
3.11344
3.08687
3.06742
3.02337
3.01043
3.00729
3.00655
3.00638
2.87719
2.96697
3.01105
3.05936
3.08138
3.10557
3.11711
3.13086
3.13768
3.14625
3.15045
3.15564
3.15884
3.16411
3.1673
3.17235
3.17534
3.18
3.18273
3.18694
3.18939
3.19316
3.19534
3.19866
3.20059
3.20352
3.20525
3.20794
3.20972
3.21291
3.21584
3.21721
3.21886
3.21974
3.22096
3.22163
3.2226
3.22314
3.22393
3.22437
3.22501
3.22537
3.22589
3.22618
3.2266
3.22683
3.22717
3.22734
3.22759
3.22772
3.22787
3.22796
3.22811
3.22819
3.2283
3.22836
3.22842
3.22843
3.22842
3.22838
3.22825
3.22813
3.22783
3.22756
3.22696
3.2264
3.22518
3.22394
3.22101
3.21732
3.20758
3.19366
3.18309
3.16217
3.14508
3.11141
3.10001
3.09703
3.09631
3.09614
3.01897
3.08397
3.11971
3.15632
3.1744
3.19276
3.20223
3.21265
3.21824
3.22471
3.22815
3.2321
3.23472
3.23869
3.24129
3.24509
3.24754
3.25105
3.25328
3.25645
3.25846
3.26129
3.26307
3.26558
3.26715
3.26937
3.27078
3.27281
3.27427
3.2767
3.27893
3.28006
3.28131
3.28203
3.28295
3.2835
3.28423
3.28467
3.28527
3.28563
3.28611
3.2864
3.2868
3.28703
3.28735
3.28754
3.28779
3.28794
3.28812
3.28822
3.28834
3.28842
3.28853
3.28859
3.28868
3.28872
3.28877
3.28878
3.28877
3.28874
3.28864
3.28854
3.28831
3.28809
3.28763
3.28718
3.28624
3.28522
3.28296
3.27991
3.2724
3.26182
3.25315
3.23733
3.22341
3.19856
3.18926
3.18669
3.18604
3.1859
3.15815
3.20215
3.22834
3.25403
3.2674
3.28031
3.28732
3.29462
3.29875
3.30328
3.30583
3.30861
3.31055
3.31331
3.31524
3.31789
3.31969
3.32214
3.32379
3.32601
3.32749
3.32947
3.33078
3.33253
3.3337
3.33524
3.33629
3.33771
3.33879
3.34049
3.34206
3.3429
3.34378
3.34431
3.34495
3.34536
3.34587
3.3462
3.34661
3.34688
3.34722
3.34743
3.34771
3.34788
3.3481
3.34824
3.34842
3.34853
3.34866
3.34873
3.34882
3.34887
3.34895
3.349
3.34906
3.34909
3.34912
3.34913
3.34912
3.34909
3.34903
3.34895
3.34879
3.34863
3.34831
3.34797
3.34731
3.34655
3.34494
3.34267
3.33735
3.32991
3.32349
3.31241
3.30217
3.28509
3.27824
3.27626
3.27576
3.27564
3.29557
3.32104
3.33698
3.35223
3.36043
3.3681
3.37239
3.37673
3.37926
3.38194
3.3835
3.38515
3.38634
3.38798
3.38915
3.39072
3.39183
3.39327
3.39428
3.39559
3.3965
3.39767
3.39848
3.39951
3.40022
3.40114
3.40178
3.40262
3.40328
3.40429
3.40523
3.40574
3.40626
3.40659
3.40697
3.40722
3.40752
3.40772
3.40797
3.40813
3.40833
3.40846
3.40862
3.40873
3.40886
3.40895
3.40905
3.40912
3.40919
3.40924
3.40929
3.40932
3.40937
3.4094
3.40943
3.40945
3.40947
3.40948
3.40947
3.40946
3.40942
3.40937
3.40928
3.40917
3.40898
3.40878
3.40838
3.40792
3.40696
3.40555
3.40238
3.39796
3.39403
3.38745
3.3812
3.37121
3.36702
3.36578
3.36546
3.36539
3.43197
3.44031
3.44566
3.45071
3.45347
3.45602
3.45746
3.4589
3.45975
3.46064
3.46117
3.46172
3.46212
3.46266
3.46305
3.46357
3.46394
3.46442
3.46476
3.4652
3.4655
3.46589
3.46616
3.4665
3.46674
3.46704
3.46726
3.46754
3.46776
3.4681
3.46841
3.46858
3.46875
3.46886
3.46899
3.46907
3.46917
3.46924
3.46932
3.46938
3.46944
3.46949
3.46954
3.46958
3.46962
3.46965
3.46968
3.46971
3.46973
3.46975
3.46976
3.46977
3.46979
3.4698
3.46981
3.46982
3.46982
3.46983
3.46982
3.46982
3.46981
3.46979
3.46976
3.46972
3.46966
3.46959
3.46946
3.4693
3.46898
3.46851
3.46745
3.46599
3.46466
3.46249
3.46038
3.45709
3.45569
3.45527
3.45516
3.45513
3.43128
3.44019
3.44637
3.45303
3.45711
3.46155
3.46438
3.46763
3.46972
3.47212
3.47359
3.47522
3.47641
3.47805
3.47923
3.48078
3.48188
3.48328
3.48426
3.48549
3.48635
3.48743
3.48818
3.48912
3.48977
3.4906
3.49119
3.49195
3.49257
3.49351
3.49438
3.49488
3.49539
3.49572
3.49611
3.49637
3.49669
3.49691
3.49718
3.49736
3.49759
3.49775
3.49795
3.49808
3.49824
3.49835
3.49849
3.49858
3.49869
3.49875
3.49883
3.49888
3.49896
3.49901
3.49909
3.49914
3.4992
3.49925
3.49931
3.49935
3.4994
3.49943
3.49948
3.49951
3.49954
3.49955
3.49956
3.49955
3.49948
3.4993
3.49885
3.49812
3.49735
3.49592
3.4944
3.49188
3.49079
3.49047
3.49038
3.49036
3.29348
3.32068
3.33908
3.3592
3.37133
3.38473
3.39314
3.40293
3.40914
3.41638
3.42077
3.42567
3.42922
3.43416
3.43769
3.44237
3.44563
3.44986
3.45276
3.45649
3.45904
3.4623
3.46453
3.46737
3.46932
3.47181
3.47355
3.47587
3.4777
3.48052
3.48316
3.48463
3.48617
3.48715
3.48832
3.4891
3.49007
3.49072
3.49154
3.49209
3.49278
3.49325
3.49384
3.49423
3.49473
3.49506
3.49547
3.49574
3.49606
3.49626
3.49648
3.49664
3.49687
3.49704
3.49726
3.49741
3.49761
3.49775
3.49792
3.49804
3.4982
3.4983
3.49843
3.49851
3.49861
3.49866
3.49869
3.49864
3.49843
3.49792
3.49657
3.49438
3.49206
3.48776
3.48323
3.47557
3.47235
3.47139
3.47114
3.47109
3.1546
3.20152
3.23173
3.26569
3.28549
3.3081
3.32183
3.33837
3.34852
3.36077
3.36794
3.37617
3.38197
3.39033
3.39609
3.40401
3.40934
3.41648
3.42123
3.42754
3.43171
3.43722
3.44086
3.44566
3.44883
3.45305
3.4559
3.4598
3.46279
3.46754
3.47198
3.47439
3.47697
3.47857
3.48055
3.48183
3.48347
3.48453
3.48591
3.48681
3.48798
3.48875
3.48974
3.49038
3.49122
3.49176
3.49246
3.49289
3.49344
3.49376
3.49414
3.49441
3.49479
3.49506
3.49543
3.49568
3.49602
3.49625
3.49654
3.49674
3.497
3.49717
3.49739
3.49752
3.49769
3.49777
3.49783
3.49775
3.4974
3.49657
3.49432
3.49063
3.48686
3.47961
3.47219
3.45909
3.45381
3.45229
3.4519
3.45181
3.01383
3.08303
3.12423
3.17275
3.19954
3.23182
3.25041
3.27407
3.28782
3.30535
3.31505
3.32677
3.33462
3.3466
3.35441
3.36576
3.37298
3.38321
3.38964
3.39867
3.40432
3.41221
3.41713
3.42401
3.42831
3.43434
3.4382
3.44377
3.44781
3.45457
3.46088
3.46413
3.46782
3.46998
3.47281
3.47454
3.47688
3.47833
3.4803
3.48152
3.4832
3.48423
3.48565
3.48653
3.48773
3.48846
3.48945
3.49005
3.49083
3.49126
3.4918
3.49216
3.49272
3.49308
3.49361
3.49395
3.49444
3.49474
3.49517
3.49543
3.4958
3.49603
3.49635
3.49653
3.49677
3.49688
3.49697
3.49686
3.49638
3.49528
3.49213
3.48689
3.4818
3.47147
3.46138
3.44229
3.43512
3.43314
3.43264
3.43253
2.8703
2.96566
3.01643
3.08067
3.11338
3.1561
3.17879
3.21017
3.22696
3.25025
3.26209
3.27752
3.28711
3.30303
3.31259
3.32767
3.33649
3.35008
3.35795
3.36993
3.37684
3.38731
3.39334
3.40246
3.40772
3.41572
3.42043
3.4278
3.43271
3.44162
3.44991
3.45386
3.45873
3.46136
3.46512
3.46723
3.47034
3.4721
3.47472
3.47621
3.47844
3.4797
3.48159
3.48266
3.48425
3.48515
3.48647
3.48719
3.48823
3.48876
3.48947
3.48991
3.49065
3.4911
3.4918
3.49222
3.49286
3.49323
3.4938
3.49412
3.49461
3.49489
3.49531
3.49554
3.49586
3.496
3.49611
3.49599
3.49539
3.49408
3.49002
3.48315
3.47694
3.46332
3.45092
3.42501
3.41623
3.41393
3.41337
3.41324
2.72296
2.85008
2.9081
2.98985
3.02681
3.08117
3.10683
3.14685
3.16585
3.1956
3.20899
3.22851
3.23934
3.25972
3.27054
3.28983
3.29982
3.31719
3.32609
3.3414
3.34922
3.3626
3.36941
3.38107
3.38702
3.39723
3.40256
3.41193
3.41746
3.42869
3.43911
3.44355
3.44972
3.4527
3.45749
3.45987
3.46384
3.46584
3.46919
3.47087
3.47372
3.47515
3.47756
3.47877
3.4808
3.48182
3.4835
3.48432
3.48565
3.48625
3.48714
3.48764
3.48859
3.4891
3.49
3.49047
3.49129
3.49171
3.49243
3.4928
3.49343
3.49375
3.49428
3.49454
3.49495
3.49511
3.49527
3.49513
3.49443
3.49298
3.48803
3.47938
3.47239
3.45512
3.44101
3.40706
3.39707
3.39465
3.39408
3.39395
2.57053
2.73725
2.79881
2.90083
2.93954
3.0074
3.03429
3.08437
3.10431
3.14161
3.15564
3.17984
3.19119
3.2168
3.22816
3.25236
3.26285
3.28463
3.29398
3.31317
3.32138
3.33814
3.3453
3.3599
3.36615
3.37894
3.38452
3.39621
3.40199
3.4158
3.42855
3.43317
3.44084
3.44396
3.44995
3.45246
3.45743
3.45952
3.46372
3.46549
3.46905
3.47055
3.47357
3.47485
3.4774
3.47846
3.48057
3.48143
3.4831
3.48373
3.48484
3.48536
3.48655
3.48708
3.48822
3.48871
3.48974
3.49018
3.49109
3.49147
3.49226
3.4926
3.49326
3.49354
3.49406
3.49422
3.49444
3.4943
3.4935
3.49202
3.48618
3.47554
3.46824
3.44679
3.43189
3.38814
3.37761
3.3753
3.37477
3.37465
2.41143
2.62864
2.68791
2.81434
2.85111
2.93526
2.96082
3.0231
3.04206
3.08856
3.10188
3.13169
3.14247
3.17444
3.18527
3.21544
3.22543
3.25257
3.26147
3.28538
3.29319
3.31407
3.32088
3.33907
3.34501
3.36094
3.36624
3.38072
3.38619
3.40295
3.41832
3.42267
3.43215
3.43511
3.44256
3.44494
3.45113
3.45312
3.45835
3.46003
3.46447
3.4659
3.46966
3.47087
3.47405
3.47506
3.47769
3.47851
3.48059
3.48119
3.48255
3.48305
3.48454
3.48505
3.48646
3.48693
3.48821
3.48863
3.48976
3.49013
3.49111
3.49143
3.49226
3.49252
3.49317
3.49333
3.49362
3.4935
3.49259
3.49124
3.48453
3.47156
3.46466
3.43821
3.42392
3.36789
3.35783
3.35587
3.35544
3.35535
2.24364
2.52634
2.57432
2.73143
2.76078
2.86546
2.88588
2.96356
2.97872
3.03682
3.04746
3.0843
3.09291
3.13293
3.14159
3.17933
3.18732
3.22124
3.22836
3.25823
3.26448
3.29057
3.29601
3.31873
3.32348
3.34336
3.34759
3.3656
3.36993
3.39015
3.40852
3.41196
3.42371
3.42607
3.43537
3.43727
3.445
3.44659
3.45312
3.45447
3.46001
3.46115
3.46585
3.46682
3.47078
3.47159
3.47489
3.47554
3.47814
3.47862
3.48031
3.4807
3.48257
3.48297
3.48474
3.48512
3.48672
3.48705
3.48846
3.48876
3.48999
3.49024
3.49129
3.49149
3.49231
3.49244
3.49281
3.49273
3.4917
3.49067
3.48312
3.46735
3.46186
3.42913
3.41762
3.34581
3.33772
3.33638
3.33611
3.33605
2.06454
2.43343
2.45636
2.65364
2.66744
2.79904
2.80865
2.90652
2.91366
2.98699
2.99199
3.03803
3.04208
3.09267
3.09676
3.14441
3.14818
3.19098
3.19433
3.23203
3.23497
3.26789
3.27045
3.2991
3.30134
3.3264
3.3284
3.35103
3.35304
3.37743
3.39933
3.40092
3.41565
3.41676
3.42847
3.42937
3.43912
3.43987
3.4481
3.44873
3.45572
3.45626
3.46219
3.46264
3.46765
3.46803
3.47219
3.4725
3.47577
3.476
3.47811
3.4783
3.48065
3.48084
3.48308
3.48326
3.48527
3.48543
3.48721
3.48735
3.4889
3.48902
3.49034
3.49044
3.49147
3.49154
3.49203
3.49199
3.49082
3.49036
3.48205
3.46272
3.46016
3.41921
3.41374
3.32118
3.31734
3.31686
3.31676
3.31674
2.06454
2.43343
2.45636
2.65364
2.66744
2.79904
2.80864
2.90652
2.91366
2.98699
2.99199
3.03803
3.04208
3.09267
3.09676
3.14441
3.14818
3.19098
3.19433
3.23203
3.23497
3.26788
3.27045
3.2991
3.30134
3.3264
3.3284
3.35103
3.35304
3.37743
3.39933
3.40092
3.41565
3.41676
3.42847
3.42937
3.43912
3.43987
3.4481
3.44873
3.45572
3.45626
3.46219
3.46264
3.46765
3.46803
3.47219
3.4725
3.47577
3.476
3.47811
3.4783
3.48065
3.48084
3.48308
3.48325
3.48527
3.48543
3.48721
3.48735
3.4889
3.48902
3.49034
3.49044
3.49147
3.49154
3.49203
3.49199
3.49082
3.49036
3.48205
3.46272
3.46016
3.41921
3.41374
3.32118
3.31734
3.31686
3.31676
3.31674
2.24364
2.52634
2.57432
2.73143
2.76078
2.86546
2.88588
2.96356
2.97872
3.03682
3.04746
3.0843
3.09291
3.13293
3.14159
3.17933
3.18732
3.22124
3.22835
3.25823
3.26448
3.29057
3.29601
3.31873
3.32348
3.34336
3.34759
3.3656
3.36993
3.39015
3.40852
3.41196
3.42371
3.42607
3.43537
3.43727
3.445
3.44659
3.45312
3.45447
3.46001
3.46115
3.46585
3.46682
3.47078
3.47159
3.47489
3.47554
3.47814
3.47862
3.48031
3.4807
3.48257
3.48297
3.48474
3.48512
3.48672
3.48705
3.48846
3.48876
3.48999
3.49024
3.49129
3.49149
3.49231
3.49244
3.49281
3.49273
3.4917
3.49067
3.48312
3.46735
3.46186
3.42913
3.41762
3.34581
3.33772
3.33638
3.33611
3.33605
2.41143
2.62864
2.68791
2.81434
2.85111
2.93526
2.96081
3.0231
3.04206
3.08856
3.10188
3.13169
3.14247
3.17444
3.18526
3.21544
3.22543
3.25257
3.26147
3.28538
3.29319
3.31407
3.32088
3.33907
3.34501
3.36094
3.36624
3.38072
3.38618
3.40295
3.41832
3.42267
3.43215
3.43511
3.44256
3.44494
3.45113
3.45312
3.45835
3.46003
3.46447
3.4659
3.46966
3.47087
3.47405
3.47506
3.47769
3.47851
3.48059
3.48119
3.48255
3.48305
3.48454
3.48505
3.48646
3.48693
3.48821
3.48863
3.48976
3.49013
3.49111
3.49143
3.49226
3.49252
3.49317
3.49333
3.49362
3.4935
3.49259
3.49124
3.48453
3.47156
3.46466
3.43821
3.42392
3.36789
3.35783
3.35587
3.35544
3.35535
2.57053
2.73725
2.79881
2.90083
2.93954
3.0074
3.03429
3.08437
3.1043
3.14161
3.15564
3.17984
3.19119
3.2168
3.22816
3.25236
3.26285
3.28463
3.29398
3.31317
3.32138
3.33814
3.3453
3.3599
3.36615
3.37894
3.38452
3.39621
3.40198
3.4158
3.42855
3.43317
3.44084
3.44396
3.44995
3.45246
3.45743
3.45952
3.46372
3.46549
3.46905
3.47055
3.47357
3.47485
3.4774
3.47846
3.48057
3.48143
3.4831
3.48373
3.48484
3.48536
3.48655
3.48708
3.48822
3.48871
3.48974
3.49018
3.49109
3.49147
3.49226
3.4926
3.49326
3.49354
3.49406
3.49422
3.49444
3.4943
3.4935
3.49202
3.48618
3.47554
3.46824
3.44679
3.43189
3.38814
3.37761
3.37529
3.37477
3.37465
2.72296
2.85008
2.9081
2.98985
3.02681
3.08117
3.10683
3.14685
3.16585
3.1956
3.20899
3.22851
3.23934
3.25972
3.27054
3.28983
3.29982
3.31719
3.32609
3.3414
3.34922
3.3626
3.36941
3.38106
3.38702
3.39723
3.40256
3.41193
3.41746
3.42869
3.43911
3.44355
3.44972
3.4527
3.45749
3.45987
3.46384
3.46584
3.46919
3.47087
3.47372
3.47515
3.47756
3.47877
3.4808
3.48182
3.4835
3.48432
3.48565
3.48625
3.48714
3.48764
3.48859
3.4891
3.49
3.49047
3.49129
3.49171
3.49243
3.4928
3.49343
3.49375
3.49428
3.49454
3.49495
3.49511
3.49527
3.49513
3.49443
3.49298
3.48803
3.47938
3.47239
3.45512
3.44101
3.40706
3.39707
3.39465
3.39408
3.39395
2.8703
2.96566
3.01643
3.08067
3.11338
3.1561
3.17879
3.21017
3.22696
3.25025
3.26209
3.27752
3.28711
3.30303
3.31259
3.32767
3.33649
3.35008
3.35795
3.36993
3.37684
3.38731
3.39334
3.40246
3.40772
3.41572
3.42043
3.4278
3.43271
3.44162
3.44991
3.45386
3.45872
3.46136
3.46512
3.46723
3.47034
3.4721
3.47472
3.47621
3.47844
3.4797
3.48159
3.48266
3.48425
3.48515
3.48647
3.48719
3.48823
3.48876
3.48947
3.48991
3.49065
3.4911
3.4918
3.49222
3.49286
3.49323
3.4938
3.49412
3.49461
3.49489
3.49531
3.49554
3.49586
3.496
3.49611
3.49599
3.49539
3.49408
3.49002
3.48315
3.47694
3.46332
3.45092
3.42501
3.41623
3.41393
3.41337
3.41324
3.01383
3.08303
3.12423
3.17275
3.19954
3.23182
3.25041
3.27407
3.28782
3.30535
3.31505
3.32677
3.33462
3.3466
3.35441
3.36576
3.37298
3.38321
3.38964
3.39867
3.40432
3.4122
3.41713
3.42401
3.42831
3.43434
3.4382
3.44377
3.44781
3.45457
3.46088
3.46413
3.46782
3.46998
3.47281
3.47454
3.47688
3.47832
3.4803
3.48152
3.4832
3.48423
3.48565
3.48653
3.48773
3.48846
3.48945
3.49005
3.49083
3.49126
3.4918
3.49216
3.49272
3.49308
3.49361
3.49395
3.49444
3.49474
3.49517
3.49543
3.4958
3.49603
3.49635
3.49653
3.49677
3.49688
3.49697
3.49686
3.49638
3.49528
3.49213
3.48689
3.4818
3.47147
3.46138
3.44229
3.43512
3.43314
3.43264
3.43253
3.1546
3.20152
3.23173
3.26569
3.28549
3.3081
3.32183
3.33837
3.34852
3.36077
3.36794
3.37617
3.38197
3.39033
3.39609
3.40401
3.40934
3.41648
3.42123
3.42754
3.43171
3.43722
3.44086
3.44565
3.44883
3.45305
3.4559
3.4598
3.46279
3.46754
3.47198
3.47439
3.47697
3.47857
3.48055
3.48183
3.48347
3.48453
3.48591
3.48681
3.48798
3.48875
3.48974
3.49038
3.49122
3.49176
3.49246
3.49289
3.49344
3.49376
3.49414
3.49441
3.49479
3.49506
3.49543
3.49568
3.49602
3.49625
3.49654
3.49674
3.497
3.49717
3.49739
3.49752
3.49769
3.49777
3.49783
3.49775
3.4974
3.49657
3.49432
3.49063
3.48686
3.47961
3.47219
3.45909
3.45381
3.45229
3.4519
3.45181
3.29348
3.32068
3.33908
3.3592
3.37133
3.38473
3.39314
3.40293
3.40914
3.41638
3.42077
3.42567
3.42922
3.43416
3.43769
3.44237
3.44563
3.44985
3.45276
3.45649
3.45904
3.4623
3.46453
3.46737
3.46932
3.47181
3.47355
3.47587
3.4777
3.48052
3.48316
3.48463
3.48617
3.48715
3.48832
3.4891
3.49007
3.49072
3.49154
3.49209
3.49278
3.49325
3.49384
3.49423
3.49473
3.49506
3.49547
3.49574
3.49606
3.49626
3.49648
3.49664
3.49687
3.49704
3.49726
3.49741
3.49761
3.49775
3.49792
3.49804
3.4982
3.4983
3.49843
3.49851
3.49861
3.49866
3.49869
3.49864
3.49843
3.49792
3.49657
3.49438
3.49206
3.48776
3.48323
3.47557
3.47235
3.47139
3.47114
3.47109
3.43128
3.44019
3.44637
3.45303
3.45711
3.46155
3.46438
3.46763
3.46972
3.47212
3.47359
3.47522
3.47641
3.47805
3.47923
3.48078
3.48188
3.48328
3.48426
3.48549
3.48635
3.48743
3.48818
3.48912
3.48977
3.4906
3.49119
3.49195
3.49257
3.49351
3.49438
3.49488
3.49539
3.49572
3.49611
3.49637
3.49669
3.49691
3.49718
3.49736
3.49759
3.49775
3.49795
3.49808
3.49824
3.49835
3.49849
3.49858
3.49869
3.49875
3.49883
3.49888
3.49896
3.49901
3.49909
3.49914
3.4992
3.49925
3.49931
3.49935
3.4994
3.49943
3.49948
3.49951
3.49954
3.49955
3.49956
3.49955
3.49948
3.4993
3.49885
3.49812
3.49735
3.49592
3.4944
3.49188
3.49079
3.49047
3.49038
3.49036
3.43195
3.44028
3.44562
3.45066
3.4534
3.4559
3.4573
3.45865
3.45941
3.46016
3.46067
3.46135
3.46183
3.46245
3.46289
3.46345
3.46384
3.46434
3.46469
3.46514
3.46545
3.46585
3.46612
3.46647
3.46671
3.46702
3.46724
3.46752
3.46775
3.46808
3.4684
3.46857
3.46874
3.46885
3.46898
3.46907
3.46917
3.46924
3.46932
3.46937
3.46944
3.46948
3.46954
3.46957
3.46962
3.46965
3.46968
3.4697
3.46973
3.46974
3.46976
3.46977
3.46979
3.4698
3.46981
3.46982
3.46982
3.46982
3.46982
3.46982
3.46981
3.46979
3.46976
3.46972
3.46966
3.46959
3.46946
3.4693
3.46898
3.46851
3.46745
3.46599
3.46466
3.46249
3.46038
3.45709
3.45569
3.45527
3.45516
3.45513
3.29551
3.32096
3.33688
3.35207
3.36021
3.36776
3.37192
3.37599
3.37824
3.38047
3.38201
3.38405
3.38548
3.38736
3.38866
3.39035
3.39151
3.39303
3.39407
3.39542
3.39635
3.39754
3.39836
3.39941
3.40013
3.40106
3.40171
3.40256
3.40323
3.40425
3.40519
3.40571
3.40623
3.40656
3.40695
3.4072
3.4075
3.4077
3.40795
3.40812
3.40832
3.40845
3.40861
3.40872
3.40885
3.40894
3.40904
3.40911
3.40919
3.40923
3.40928
3.40932
3.40936
3.40939
3.40943
3.40945
3.40947
3.40947
3.40947
3.40945
3.40942
3.40937
3.40927
3.40917
3.40898
3.40878
3.40838
3.40792
3.40695
3.40555
3.40238
3.39796
3.39403
3.38745
3.3812
3.37121
3.36702
3.36578
3.36546
3.36539
3.15806
3.20202
3.22817
3.25377
3.26704
3.27975
3.28653
3.29339
3.29707
3.30082
3.30333
3.30678
3.30912
3.31228
3.31441
3.31726
3.31918
3.32173
3.32344
3.32572
3.32723
3.32925
3.33059
3.33237
3.33355
3.33511
3.33617
3.33761
3.3387
3.34042
3.342
3.34285
3.34373
3.34427
3.34492
3.34533
3.34584
3.34617
3.34659
3.34686
3.3472
3.34742
3.34769
3.34787
3.34809
3.34823
3.34841
3.34852
3.34865
3.34872
3.34881
3.34886
3.34894
3.34899
3.34905
3.34908
3.34911
3.34912
3.34912
3.34909
3.34903
3.34895
3.34879
3.34863
3.34831
3.34797
3.34731
3.34655
3.34494
3.34267
3.33735
3.32991
3.32349
3.31241
3.30217
3.28509
3.27824
3.27626
3.27576
3.27564
3.01885
3.0838
3.11948
3.15596
3.17389
3.19197
3.20114
3.21093
3.21589
3.22122
3.22461
3.22955
3.23272
3.23725
3.24014
3.24422
3.24681
3.25047
3.25278
3.25605
3.2581
3.26099
3.26281
3.26535
3.26695
3.26919
3.27062
3.27267
3.27415
3.2766
3.27885
3.27998
3.28125
3.28197
3.2829
3.28345
3.28419
3.28464
3.28523
3.2856
3.28608
3.28638
3.28677
3.28701
3.28733
3.28752
3.28778
3.28792
3.28811
3.28821
3.28833
3.28841
3.28852
3.28859
3.28867
3.28872
3.28876
3.28877
3.28876
3.28873
3.28864
3.28853
3.28831
3.28809
3.28763
3.28718
3.28624
3.28522
3.28296
3.27991
3.2724
3.26182
3.25315
3.23733
3.22341
3.19856
3.18926
3.18669
3.18604
3.18589
2.87704
2.96675
3.01076
3.05889
3.08074
3.10456
3.11573
3.12866
3.1347
3.14169
3.14582
3.15239
3.15627
3.16229
3.16581
3.17124
3.1744
3.17926
3.18209
3.18642
3.18894
3.19277
3.19499
3.19837
3.20032
3.20329
3.20504
3.20776
3.20956
3.21278
3.21573
3.21712
3.21878
3.21966
3.22089
3.22157
3.22255
3.22309
3.22389
3.22433
3.22498
3.22534
3.22586
3.22615
3.22658
3.22681
3.22715
3.22733
3.22758
3.2277
3.22786
3.22795
3.2281
3.22818
3.22829
3.22835
3.22841
3.22843
3.22841
3.22837
3.22825
3.22812
3.22783
3.22755
3.22695
3.2264
3.22517
3.22394
3.22101
3.21732
3.20758
3.19366
3.18309
3.16217
3.14508
3.11141
3.10001
3.09703
3.0963
3.09614
2.73164
2.85152
2.90187
2.96287
2.98751
3.01765
3.03024
3.04666
3.05348
3.06228
3.06694
3.07534
3.07973
3.08743
3.09142
3.09835
3.10193
3.10814
3.11134
3.11687
3.11972
3.12462
3.12713
3.13144
3.13365
3.13745
3.13942
3.14288
3.14491
3.14897
3.15268
3.15424
3.15634
3.15734
3.15891
3.15968
3.16093
3.16154
3.16256
3.16306
3.16388
3.16429
3.16496
3.16529
3.16583
3.1661
3.16653
3.16673
3.16705
3.16719
3.16739
3.16749
3.16768
3.16777
3.16792
3.16798
3.16806
3.16808
3.16806
3.16802
3.16786
3.16772
3.16734
3.16704
3.16628
3.16565
3.16411
3.16272
3.15908
3.15498
3.14293
3.12536
3.11344
3.08686
3.06742
3.02336
3.01042
3.00728
3.00654
3.00638
2.58145
2.73908
2.79256
2.8683
2.89406
2.93144
2.94461
2.96504
2.97217
2.98304
2.98791
2.99845
3.00306
3.01271
3.0169
3.02559
3.02935
3.03713
3.04049
3.04743
3.05041
3.05656
3.0592
3.0646
3.06692
3.07168
3.07374
3.07806
3.08018
3.08518
3.08972
3.09134
3.09395
3.095
3.09696
3.09776
3.09933
3.09998
3.10124
3.10177
3.1028
3.10323
3.10407
3.10442
3.1051
3.10538
3.10591
3.10613
3.10653
3.10667
3.10692
3.10703
3.10727
3.10737
3.10755
3.10761
3.10771
3.10773
3.10771
3.10766
3.10747
3.10732
3.10686
3.10653
3.10559
3.10494
3.10303
3.1016
3.09718
3.09295
3.0785
3.05683
3.04438
3.01127
2.99075
2.93408
2.92045
2.91744
2.91676
2.91661
2.42495
2.6308
2.68235
2.77574
2.80014
2.84619
2.85868
2.88396
2.89072
2.90403
2.90866
2.9218
2.92618
2.93822
2.9422
2.95303
2.95661
2.9663
2.9695
2.97814
2.98099
2.98864
2.99115
2.99789
3.00009
3.00601
3.00798
3.01333
3.01533
3.02141
3.02687
3.02839
3.03163
3.03262
3.03506
3.03582
3.03777
3.03838
3.03996
3.04046
3.04175
3.04216
3.0432
3.04353
3.04438
3.04464
3.04531
3.04552
3.04601
3.04615
3.04646
3.04656
3.04686
3.04695
3.04718
3.04724
3.04737
3.04739
3.04737
3.04732
3.04708
3.04694
3.04636
3.04606
3.0449
3.04428
3.04194
3.04059
3.03527
3.03134
3.01435
2.98793
2.97615
2.93517
2.91552
2.84307
2.83005
2.82751
2.82696
2.82684
2.26022
2.52869
2.57047
2.68593
2.70536
2.7623
2.77224
2.80362
2.809
2.82537
2.82906
2.8455
2.84901
2.86404
2.86723
2.88076
2.88362
2.89573
2.89829
2.90909
2.91137
2.92093
2.92294
2.93135
2.93312
2.9405
2.94208
2.94874
2.95032
2.95766
2.96418
2.96539
2.96939
2.97018
2.97322
2.97383
2.97626
2.97675
2.97872
2.97912
2.98073
2.98106
2.98236
2.98263
2.98368
2.9839
2.98473
2.98489
2.98552
2.98563
2.986
2.98609
2.98646
2.98654
2.98682
2.98687
2.98703
2.98704
2.98702
2.98698
2.98669
2.98657
2.98586
2.98562
2.98418
2.98369
2.98081
2.97974
2.9733
2.97024
2.95059
2.91845
2.90909
2.85822
2.8424
2.74968
2.73922
2.7375
2.73713
2.73706
2.08475
2.43565
2.45565
2.59997
2.60907
2.68028
2.68494
2.72432
2.72684
2.74722
2.74895
2.76971
2.77137
2.79034
2.79185
2.80891
2.81026
2.82555
2.82675
2.84038
2.84145
2.85352
2.85447
2.86508
2.86591
2.87523
2.87597
2.88434
2.88508
2.89394
2.90171
2.90226
2.90728
2.90765
2.91148
2.91177
2.91483
2.91506
2.91755
2.91774
2.91976
2.91992
2.92157
2.92169
2.92302
2.92312
2.92418
2.92425
2.92504
2.92509
2.92556
2.9256
2.92607
2.92611
2.92647
2.9265
2.9267
2.9267
2.92667
2.92665
2.92629
2.92623
2.92534
2.92522
2.92342
2.92319
2.91961
2.91911
2.9112
2.90981
2.88732
2.84806
2.84368
2.77987
2.77236
2.65301
2.64805
2.64743
2.6473
2.64727
)
;

boundaryField
{
    F1_1
    {
        type            fixedValue;
        value           nonuniform List<scalar> 
80
(
1.99023
2.39627
2.39627
2.5608
2.5608
2.64297
2.64297
2.6906
2.6906
2.7208
2.7208
2.73819
2.73819
2.75727
2.75727
2.77547
2.77547
2.79221
2.79221
2.80734
2.80734
2.82083
2.82083
2.83276
2.83276
2.84325
2.84325
2.85268
2.85268
2.86239
2.87083
2.87083
2.87648
2.87648
2.88081
2.88081
2.88428
2.88428
2.88709
2.88709
2.88939
2.88939
2.89125
2.89125
2.89276
2.89276
2.89396
2.89396
2.89485
2.89485
2.89538
2.89538
2.89591
2.89591
2.89633
2.89633
2.89655
2.89655
2.89651
2.89651
2.89609
2.89609
2.89507
2.89507
2.89302
2.89302
2.88895
2.88895
2.88003
2.88003
2.85603
2.81217
2.81217
2.73957
2.73957
2.60238
2.60238
2.60238
2.60238
2.60238
)
;
    }
    F1_2
    {
        type            fixedValue;
        value           nonuniform List<scalar> 
80
(
1.96761
2.39389
2.39389
2.61841
2.61841
2.76826
2.76826
2.87981
2.87981
2.96343
2.96343
3.01574
3.01574
3.07347
3.07347
3.12782
3.12782
3.17663
3.17663
3.21962
3.21962
3.25715
3.25715
3.28982
3.28982
3.31838
3.31838
3.34415
3.34415
3.37112
3.39513
3.39513
3.41189
3.41189
3.42524
3.42524
3.43635
3.43635
3.44574
3.44574
3.4537
3.4537
3.46046
3.46046
3.46617
3.46617
3.47091
3.47091
3.47465
3.47465
3.47705
3.47705
3.47974
3.47974
3.48229
3.48229
3.48459
3.48459
3.48662
3.48662
3.48839
3.48839
3.48989
3.48989
3.49108
3.49108
3.49165
3.49165
3.49036
3.49036
3.48173
3.46007
3.46007
3.41354
3.41354
3.30708
3.30708
3.30708
3.30708
3.30708
)
;
    }
    F1_3
    {
        type            fixedValue;
        value           nonuniform List<scalar> 
80
(
1.96761
2.39389
2.39389
2.61841
2.61841
2.76826
2.76826
2.87981
2.87981
2.96343
2.96343
3.01574
3.01574
3.07347
3.07347
3.12782
3.12782
3.17663
3.17663
3.21962
3.21962
3.25715
3.25715
3.28982
3.28982
3.31838
3.31838
3.34415
3.34415
3.37112
3.39513
3.39513
3.41189
3.41189
3.42524
3.42524
3.43635
3.43635
3.44574
3.44574
3.4537
3.4537
3.46046
3.46046
3.46617
3.46617
3.47091
3.47091
3.47465
3.47465
3.47705
3.47705
3.47974
3.47974
3.48229
3.48229
3.48459
3.48459
3.48662
3.48662
3.48839
3.48839
3.48989
3.48989
3.49108
3.49108
3.49165
3.49165
3.49036
3.49036
3.48173
3.46007
3.46007
3.41354
3.41354
3.30708
3.30708
3.30708
3.30708
3.30708
)
;
    }
    F1_4
    {
        type            fixedValue;
        value           nonuniform List<scalar> 
80
(
1.98999
2.39575
2.39575
2.55969
2.55969
2.6406
2.6406
2.68541
2.68541
2.70852
2.70852
2.7322
2.7322
2.75385
2.75385
2.77331
2.77331
2.79074
2.79074
2.80628
2.80628
2.82004
2.82004
2.83214
2.83214
2.84277
2.84277
2.8523
2.8523
2.86211
2.87061
2.87061
2.87632
2.87632
2.88068
2.88068
2.88417
2.88417
2.88701
2.88701
2.88932
2.88932
2.8912
2.8912
2.89272
2.89272
2.89392
2.89392
2.89481
2.89481
2.89535
2.89535
2.89589
2.89589
2.89631
2.89631
2.89653
2.89653
2.8965
2.8965
2.89608
2.89608
2.89506
2.89506
2.89301
2.89301
2.88894
2.88894
2.88002
2.88002
2.85602
2.81217
2.81217
2.73957
2.73957
2.60238
2.60238
2.60238
2.60238
2.60238
)
;
    }
    F2_1
    {
        type            fixedValue;
        value           uniform 3.5;
    }
    F2_2
    {
        type            fixedValue;
        value           uniform 3.5;
    }
    F2_3
    {
        type            fixedValue;
        value           uniform 3.5;
    }
    F2_4
    {
        type            fixedValue;
        value           uniform 3.5;
    }
    defaultFaces
    {
        type            empty;
    }
}


// ************************************************************************* //
