/*--------------------------------*- C++ -*----------------------------------*\
| =========                 |                                                 |
| \\      /  F ield         | OpenFOAM: The Open Source CFD Toolbox           |
|  \\    /   O peration     | Version:  5.x                                   |
|   \\  /    A nd           | Web:      www.OpenFOAM.org                      |
|    \\/     M anipulation  |                                                 |
\*---------------------------------------------------------------------------*/
FoamFile
{
    version     2.0;
    format      ascii;
    class       volScalarField;
    location    "11.4999";
    object      T;
}
// * * * * * * * * * * * * * * * * * * * * * * * * * * * * * * * * * * * * * //

dimensions      [0 0 0 1 0 0 0];

internalField   nonuniform List<scalar> 
6300
(
322.841
322.521
322.201
321.879
321.555
321.227
320.896
320.56
320.22
319.875
319.524
319.167
318.804
318.435
318.061
322.841
322.522
322.203
321.882
321.558
321.231
320.9
320.565
320.225
319.88
319.529
319.173
318.81
318.441
318.066
322.842
322.525
322.206
321.886
321.564
321.238
320.909
320.575
320.236
319.891
319.541
319.185
318.822
318.453
318.078
322.843
322.528
322.212
321.894
321.573
321.25
320.922
320.589
320.252
319.908
319.559
319.203
318.84
318.471
318.095
322.844
322.532
322.219
321.904
321.586
321.265
320.939
320.609
320.273
319.932
319.583
319.228
318.865
318.495
318.119
322.846
322.538
322.228
321.917
321.602
321.284
320.962
320.635
320.301
319.961
319.614
319.26
318.897
318.527
318.149
322.848
322.544
322.239
321.932
321.622
321.308
320.99
320.666
320.336
319.998
319.653
319.3
318.937
318.566
318.186
322.851
322.552
322.252
321.95
321.645
321.336
321.023
320.703
320.377
320.043
319.7
319.348
318.986
318.614
318.232
322.854
322.561
322.268
321.972
321.673
321.37
321.062
320.748
320.426
320.096
319.757
319.407
319.046
318.672
318.286
322.857
322.572
322.285
321.996
321.704
321.408
321.107
320.799
320.484
320.159
319.824
319.477
319.117
318.742
318.352
322.861
322.584
322.305
322.024
321.739
321.451
321.158
320.858
320.55
320.233
319.904
319.561
319.203
318.827
318.432
322.866
322.597
322.326
322.054
321.779
321.5
321.216
320.925
320.627
320.318
319.997
319.66
319.306
318.93
318.531
322.87
322.611
322.35
322.088
321.822
321.554
321.28
321.001
320.713
320.415
320.105
319.778
319.43
319.058
318.656
322.875
322.626
322.376
322.124
321.869
321.612
321.351
321.084
320.81
320.526
320.23
319.916
319.58
319.215
318.817
322.881
322.642
322.403
322.162
321.919
321.675
321.426
321.174
320.916
320.649
320.371
320.077
319.758
319.404
319.014
317.712
317.392
317.067
316.74
316.409
316.075
315.739
315.4
315.059
314.716
314.371
314.025
313.677
313.328
312.978
312.628
312.277
311.926
311.575
311.225
310.874
310.524
310.174
309.825
309.476
309.127
308.779
308.432
308.085
307.739
307.394
307.049
306.705
306.363
306.021
305.681
305.341
305.003
304.666
304.329
303.994
303.659
303.326
302.993
302.661
302.33
302
301.672
301.344
301.018
300.693
300.369
300.046
299.724
299.403
299.083
298.764
298.445
298.128
297.811
297.496
297.181
296.868
296.555
296.243
295.933
295.623
295.315
295.007
294.7
294.393
294.088
293.783
293.478
293.174
292.871
292.569
292.267
291.965
291.664
291.364
291.063
290.763
290.463
290.162
289.861
289.559
289.256
288.953
288.648
317.718
317.397
317.072
316.744
316.413
316.079
315.743
315.404
315.062
314.719
314.374
314.027
313.679
313.33
312.979
312.629
312.278
311.926
311.575
311.224
310.873
310.523
310.173
309.824
309.475
309.127
308.778
308.431
308.084
307.738
307.392
307.048
306.704
306.361
306.02
305.679
305.34
305.002
304.664
304.328
303.993
303.658
303.324
302.991
302.659
302.329
301.999
301.67
301.343
301.016
300.691
300.367
300.044
299.722
299.401
299.081
298.762
298.444
298.127
297.81
297.494
297.18
296.866
296.553
296.242
295.931
295.622
295.313
295.006
294.699
294.392
294.087
293.782
293.477
293.174
292.87
292.568
292.266
291.965
291.664
291.363
291.063
290.763
290.463
290.163
289.862
289.56
289.258
288.954
288.649
317.728
317.407
317.082
316.753
316.422
316.087
315.75
315.41
315.068
314.724
314.378
314.031
313.682
313.332
312.981
312.63
312.278
311.926
311.575
311.223
310.872
310.522
310.172
309.823
309.474
309.125
308.777
308.429
308.082
307.736
307.39
307.045
306.701
306.358
306.017
305.676
305.337
304.999
304.662
304.325
303.99
303.655
303.322
302.989
302.657
302.326
301.996
301.667
301.339
301.013
300.688
300.364
300.041
299.72
299.399
299.079
298.76
298.442
298.124
297.807
297.492
297.177
296.863
296.55
296.239
295.929
295.619
295.311
295.003
294.697
294.39
294.085
293.78
293.476
293.172
292.869
292.566
292.264
291.963
291.663
291.363
291.063
290.764
290.464
290.164
289.864
289.563
289.26
288.957
288.652
317.745
317.423
317.096
316.767
316.434
316.099
315.76
315.42
315.077
314.732
314.385
314.037
313.687
313.336
312.984
312.631
312.278
311.926
311.574
311.222
310.871
310.52
310.17
309.821
309.472
309.123
308.775
308.427
308.079
307.732
307.386
307.041
306.697
306.354
306.012
305.672
305.332
304.994
304.658
304.321
303.986
303.652
303.318
302.985
302.652
302.321
301.991
301.662
301.334
301.008
300.683
300.359
300.037
299.715
299.395
299.075
298.756
298.438
298.12
297.803
297.487
297.172
296.859
296.546
296.234
295.924
295.615
295.307
295
294.694
294.388
294.082
293.777
293.473
293.169
292.866
292.563
292.262
291.961
291.661
291.361
291.063
290.764
290.466
290.167
289.867
289.566
289.265
288.961
288.656
317.767
317.444
317.116
316.785
316.451
316.114
315.774
315.433
315.089
314.743
314.395
314.045
313.693
313.341
312.987
312.633
312.279
311.925
311.572
311.219
310.868
310.517
310.168
309.818
309.469
309.121
308.772
308.424
308.076
307.728
307.381
307.035
306.69
306.347
306.005
305.665
305.326
304.989
304.652
304.316
303.981
303.647
303.313
302.979
302.647
302.315
301.984
301.655
301.327
301.001
300.676
300.353
300.031
299.71
299.39
299.071
298.752
298.433
298.115
297.798
297.482
297.166
296.852
296.539
296.228
295.918
295.61
295.302
294.996
294.69
294.384
294.079
293.774
293.47
293.165
292.862
292.559
292.258
291.957
291.658
291.359
291.062
290.765
290.467
290.17
289.872
289.572
289.271
288.968
288.663
317.796
317.47
317.141
316.808
316.471
316.133
315.792
315.449
315.104
314.756
314.407
314.055
313.702
313.347
312.991
312.635
312.279
311.923
311.569
311.216
310.864
310.514
310.164
309.815
309.467
309.118
308.769
308.42
308.071
307.722
307.374
307.027
306.682
306.338
305.996
305.656
305.318
304.981
304.646
304.311
303.976
303.641
303.307
302.973
302.639
302.307
301.975
301.645
301.317
300.991
300.667
300.344
300.023
299.703
299.384
299.065
298.746
298.428
298.11
297.792
297.474
297.158
296.844
296.531
296.22
295.911
295.603
295.296
294.99
294.685
294.38
294.075
293.77
293.466
293.161
292.857
292.554
292.252
291.952
291.653
291.356
291.06
290.765
290.47
290.175
289.878
289.58
289.28
288.977
288.672
317.831
317.503
317.17
316.834
316.496
316.155
315.812
315.468
315.121
314.773
314.422
314.068
313.712
313.355
312.996
312.636
312.278
311.92
311.564
311.21
310.858
310.508
310.16
309.812
309.464
309.115
308.766
308.417
308.066
307.716
307.366
307.018
306.671
306.327
305.985
305.645
305.308
304.973
304.638
304.304
303.97
303.636
303.301
302.966
302.631
302.297
301.964
301.633
301.305
300.979
300.656
300.334
300.014
299.696
299.378
299.059
298.741
298.422
298.103
297.784
297.466
297.149
296.833
296.52
296.209
295.9
295.594
295.289
294.984
294.68
294.376
294.072
293.766
293.461
293.156
292.851
292.547
292.245
291.945
291.647
291.351
291.058
290.765
290.473
290.181
289.887
289.591
289.293
288.991
288.685
317.873
317.541
317.205
316.865
316.523
316.18
315.836
315.49
315.143
314.793
314.44
314.084
313.725
313.364
313.001
312.637
312.275
311.914
311.556
311.202
310.85
310.501
310.154
309.808
309.461
309.114
308.765
308.414
308.062
307.709
307.356
307.005
306.657
306.311
305.97
305.631
305.296
304.962
304.63
304.298
303.965
303.631
303.295
302.959
302.622
302.285
301.951
301.618
301.289
300.963
300.641
300.321
300.004
299.687
299.371
299.054
298.736
298.417
298.096
297.775
297.455
297.136
296.819
296.506
296.195
295.888
295.583
295.28
294.978
294.676
294.373
294.069
293.763
293.457
293.149
292.843
292.537
292.234
291.934
291.637
291.344
291.053
290.764
290.476
290.188
289.899
289.607
289.31
289.009
288.703
317.923
317.586
317.244
316.899
316.553
316.207
315.861
315.515
315.167
314.817
314.463
314.105
313.742
313.376
313.007
312.637
312.269
311.904
311.544
311.189
310.838
310.492
310.148
309.805
309.461
309.115
308.766
308.413
308.058
307.701
307.344
306.989
306.638
306.291
305.949
305.613
305.28
304.95
304.622
304.292
303.961
303.628
303.291
302.952
302.612
302.271
301.933
301.598
301.268
300.943
300.622
300.306
299.992
299.679
299.366
299.051
298.733
298.413
298.09
297.766
297.442
297.12
296.801
296.487
296.177
295.871
295.569
295.27
294.971
294.672
294.371
294.068
293.761
293.453
293.143
292.833
292.525
292.22
291.919
291.623
291.332
291.046
290.762
290.48
290.198
289.915
289.627
289.335
289.035
288.728
317.982
317.637
317.287
316.935
316.583
316.233
315.887
315.541
315.195
314.846
314.492
314.132
313.765
313.391
313.014
312.635
312.259
311.888
311.524
311.169
310.821
310.478
310.14
309.802
309.463
309.12
308.771
308.417
308.057
307.694
307.33
306.968
306.612
306.263
305.922
305.589
305.261
304.937
304.614
304.289
303.962
303.629
303.291
302.948
302.601
302.255
301.911
301.572
301.24
300.916
300.598
300.286
299.978
299.671
299.362
299.051
298.734
298.413
298.086
297.757
297.427
297.1
296.777
296.461
296.152
295.85
295.552
295.258
294.965
294.671
294.373
294.071
293.763
293.451
293.136
292.82
292.507
292.199
291.897
291.602
291.315
291.034
290.757
290.484
290.211
289.936
289.656
289.369
289.072
288.764
318.053
317.697
317.334
316.969
316.609
316.256
315.91
315.568
315.227
314.883
314.531
314.169
313.796
313.413
313.022
312.629
312.241
311.861
311.493
311.138
310.794
310.46
310.131
309.802
309.471
309.133
308.786
308.428
308.061
307.687
307.311
306.939
306.576
306.224
305.885
305.556
305.236
304.921
304.608
304.292
303.969
303.638
303.297
302.948
302.592
302.234
301.881
301.535
301.201
300.878
300.566
300.262
299.963
299.665
299.364
299.057
298.743
298.419
298.087
297.748
297.408
297.072
296.743
296.425
296.118
295.82
295.531
295.245
294.961
294.674
294.382
294.081
293.771
293.454
293.13
292.804
292.482
292.168
291.864
291.571
291.289
291.015
290.749
290.486
290.226
289.963
289.696
289.418
289.126
288.816
318.141
317.767
317.381
316.998
316.626
316.269
315.927
315.595
315.265
314.93
314.583
314.221
313.842
313.445
313.034
312.618
312.209
311.817
311.444
311.091
310.755
310.433
310.12
309.807
309.489
309.159
308.814
308.453
308.075
307.684
307.287
306.897
306.523
306.168
305.831
305.511
305.204
304.904
304.606
304.303
303.989
303.66
303.317
302.957
302.585
302.208
301.838
301.483
301.146
300.826
300.522
300.23
299.946
299.663
299.374
299.076
298.764
298.438
298.096
297.742
297.384
297.033
296.695
296.374
296.07
295.78
295.502
295.231
294.961
294.686
294.402
294.104
293.792
293.465
293.127
292.783
292.447
292.123
291.815
291.524
291.249
290.987
290.734
290.487
290.243
289.999
289.75
289.489
289.206
288.893
318.255
317.856
317.425
317.01
316.619
316.262
315.93
315.618
315.311
314.992
314.658
314.298
313.914
313.496
313.055
312.594
312.155
311.744
311.367
311.018
310.697
310.394
310.107
309.821
309.522
309.207
308.867
308.503
308.107
307.688
307.251
306.834
306.443
306.085
305.753
305.447
305.16
304.886
304.613
304.329
304.029
303.705
303.359
302.983
302.585
302.171
301.776
301.405
301.065
300.75
300.46
300.187
299.927
299.669
299.399
299.114
298.807
298.478
298.121
297.744
297.35
296.974
296.622
296.299
295.999
295.723
295.463
295.216
294.969
294.712
294.44
294.147
293.833
293.492
293.13
292.753
292.392
292.054
291.743
291.455
291.191
290.944
290.711
290.485
290.259
290.04
289.823
289.591
289.327
289.014
318.42
317.992
317.446
316.986
316.564
316.22
315.903
315.635
315.373
315.078
314.77
314.411
314.033
313.582
313.103
312.539
312.063
311.62
311.251
310.905
310.611
310.334
310.093
309.853
309.579
309.291
308.954
308.598
308.173
307.719
307.186
306.735
306.315
305.965
305.637
305.358
305.095
304.866
304.637
304.377
304.103
303.783
303.444
303.04
302.61
302.105
301.678
301.281
300.95
300.639
300.375
300.125
299.908
299.691
299.444
299.184
298.881
298.559
298.176
297.768
297.289
296.883
296.506
296.191
295.895
295.644
295.406
295.199
294.993
294.758
294.51
294.221
293.914
293.549
293.158
292.697
292.307
291.943
291.639
291.353
291.109
290.879
290.679
290.482
290.264
290.081
289.915
289.738
289.52
289.217
318.681
318.301
317.345
316.908
316.399
316.136
315.807
315.643
315.483
315.181
314.955
314.552
314.255
313.711
313.272
312.358
311.923
311.389
311.101
310.716
310.503
310.222
310.077
309.933
309.655
309.446
309.07
308.792
308.279
307.865
307.002
306.591
306.087
305.814
305.449
305.248
304.982
304.844
304.707
304.443
304.245
303.887
303.623
303.136
302.744
301.927
301.538
301.062
300.805
300.459
300.268
300.017
299.886
299.756
299.507
299.318
298.98
298.729
298.268
297.896
297.121
296.752
296.3
296.055
295.727
295.545
295.306
295.182
295.058
294.821
294.641
294.319
294.081
293.641
293.285
292.541
292.185
291.747
291.509
291.188
291.009
290.769
290.643
290.508
290.219
290.099
290.022
289.946
289.835
289.607
288.312
287.945
287.576
287.207
286.838
286.468
286.1
285.732
285.365
284.999
284.633
284.269
283.906
283.543
283.181
288.313
287.945
287.577
287.207
286.837
286.468
286.099
285.731
285.364
284.997
284.632
284.269
283.905
283.543
283.181
288.316
287.947
287.578
287.208
286.837
286.467
286.097
285.729
285.361
284.995
284.631
284.267
283.904
283.542
283.181
288.32
287.95
287.58
287.208
286.837
286.465
286.095
285.726
285.358
284.992
284.627
284.264
283.902
283.541
283.18
288.325
287.955
287.582
287.209
286.836
286.463
286.091
285.721
285.353
284.987
284.623
284.26
283.899
283.539
283.18
288.333
287.961
287.586
287.21
286.834
286.459
286.086
285.715
285.346
284.98
284.617
284.255
283.895
283.537
283.179
288.345
287.969
287.591
287.211
286.832
286.454
286.078
285.706
285.337
284.971
284.608
284.248
283.89
283.533
283.178
288.36
287.98
287.597
287.212
286.828
286.446
286.068
285.694
285.324
284.959
284.597
284.239
283.883
283.529
283.176
288.382
287.996
287.604
287.212
286.821
286.434
286.053
285.677
285.308
284.943
284.583
284.227
283.874
283.524
283.174
288.412
288.016
287.613
287.21
286.81
286.417
286.032
285.655
285.285
284.922
284.565
284.213
283.864
283.517
283.172
288.455
288.043
287.622
287.204
286.793
286.393
286.004
285.625
285.257
284.896
284.542
284.194
283.85
283.509
283.169
288.517
288.077
287.63
287.19
286.765
286.357
285.964
285.586
285.22
284.863
284.514
284.172
283.834
283.499
283.166
288.607
288.119
287.63
287.162
286.721
286.305
285.911
285.535
285.173
284.822
284.48
284.145
283.814
283.487
283.162
288.741
288.162
287.61
287.107
286.651
286.231
285.839
285.469
285.115
284.772
284.439
284.113
283.792
283.474
283.158
288.936
288.177
287.54
287.006
286.544
286.129
285.747
285.387
285.044
284.713
284.391
284.076
283.765
283.458
283.152
322.886
322.657
322.428
322.199
321.968
321.735
321.5
321.262
321.02
320.773
320.517
320.247
319.953
319.612
319.172
322.891
322.672
322.453
322.233
322.013
321.791
321.569
321.345
321.119
320.891
320.658
320.419
320.164
319.87
319.432
322.895
322.686
322.477
322.268
322.058
321.849
321.639
321.429
321.22
321.012
320.804
320.6
320.403
320.23
320.17
322.9
322.701
322.502
322.302
322.104
321.906
321.709
321.514
321.321
321.131
320.949
320.777
320.626
320.513
320.471
322.905
322.715
322.526
322.337
322.149
321.962
321.778
321.596
321.418
321.247
321.085
320.939
320.82
320.749
320.768
322.91
322.73
322.55
322.371
322.193
322.018
321.845
321.676
321.512
321.356
321.211
321.083
320.982
320.92
320.906
322.914
322.743
322.573
322.404
322.236
322.071
321.909
321.751
321.6
321.456
321.325
321.209
321.117
321.058
321.051
322.919
322.757
322.596
322.436
322.278
322.122
321.97
321.823
321.682
321.549
321.427
321.319
321.229
321.161
321.116
322.923
322.77
322.617
322.466
322.317
322.171
322.028
321.89
321.759
321.634
321.52
321.416
321.325
321.247
321.169
322.927
322.782
322.638
322.495
322.355
322.217
322.083
321.953
321.83
321.713
321.604
321.504
321.414
321.331
321.259
322.931
322.794
322.658
322.523
322.39
322.26
322.134
322.013
321.896
321.786
321.683
321.586
321.496
321.41
321.317
322.935
322.805
322.676
322.549
322.424
322.301
322.183
322.068
321.959
321.855
321.756
321.664
321.576
321.492
321.413
322.938
322.816
322.694
322.574
322.455
322.34
322.228
322.12
322.017
321.919
321.826
321.738
321.654
321.57
321.476
322.942
322.826
322.711
322.597
322.485
322.376
322.27
322.169
322.072
321.979
321.892
321.81
321.732
321.656
321.581
322.945
322.835
322.726
322.618
322.513
322.41
322.31
322.214
322.123
322.036
321.955
321.879
321.809
321.74
321.659
322.948
322.844
322.741
322.639
322.539
322.442
322.347
322.257
322.171
322.09
322.014
321.945
321.884
321.834
321.811
322.951
322.852
322.754
322.658
322.563
322.471
322.382
322.296
322.215
322.139
322.069
322.005
321.951
321.908
321.88
322.953
322.86
322.767
322.675
322.586
322.498
322.414
322.333
322.256
322.184
322.118
322.059
322.01
321.973
321.956
322.955
322.867
322.779
322.692
322.607
322.524
322.443
322.367
322.294
322.226
322.163
322.107
322.06
322.023
321.995
322.958
322.873
322.79
322.707
322.626
322.547
322.471
322.398
322.328
322.263
322.203
322.149
322.103
322.066
322.043
322.96
322.879
322.8
322.721
322.644
322.569
322.496
322.426
322.359
322.297
322.239
322.186
322.14
322.1
322.068
322.962
322.885
322.809
322.734
322.66
322.589
322.519
322.452
322.388
322.327
322.271
322.218
322.171
322.13
322.097
322.963
322.89
322.818
322.746
322.676
322.607
322.54
322.476
322.414
322.355
322.299
322.247
322.199
322.154
322.112
322.965
322.895
322.826
322.757
322.69
322.624
322.56
322.498
322.438
322.381
322.326
322.274
322.224
322.175
322.125
322.967
322.9
322.833
322.768
322.703
322.64
322.578
322.518
322.46
322.404
322.35
322.298
322.248
322.198
322.148
322.968
322.904
322.84
322.777
322.715
322.655
322.595
322.537
322.481
322.427
322.374
322.322
322.271
322.22
322.165
322.969
322.908
322.847
322.786
322.727
322.668
322.611
322.555
322.501
322.448
322.396
322.345
322.295
322.244
322.193
322.97
322.912
322.853
322.795
322.738
322.681
322.626
322.572
322.519
322.468
322.418
322.369
322.319
322.269
322.213
322.972
322.915
322.859
322.803
322.748
322.693
322.64
322.588
322.537
322.488
322.439
322.392
322.344
322.297
322.248
322.973
322.918
322.864
322.81
322.757
322.705
322.653
322.603
322.554
322.506
322.46
322.414
322.37
322.325
322.274
322.974
322.921
322.869
322.817
322.766
322.716
322.666
322.618
322.57
322.524
322.48
322.437
322.396
322.358
322.328
322.975
322.924
322.874
322.824
322.774
322.726
322.678
322.631
322.585
322.541
322.498
322.458
322.419
322.384
322.353
322.976
322.927
322.878
322.83
322.782
322.735
322.689
322.644
322.6
322.557
322.516
322.477
322.441
322.408
322.383
322.976
322.929
322.882
322.836
322.789
322.744
322.699
322.656
322.613
322.572
322.532
322.494
322.459
322.427
322.398
322.977
322.932
322.886
322.841
322.796
322.752
322.709
322.667
322.625
322.585
322.547
322.51
322.475
322.444
322.418
322.978
322.934
322.89
322.846
322.803
322.76
322.718
322.677
322.637
322.598
322.56
322.524
322.49
322.458
322.428
322.979
322.936
322.893
322.851
322.809
322.768
322.727
322.687
322.648
322.609
322.572
322.537
322.502
322.47
322.441
322.979
322.938
322.896
322.855
322.815
322.775
322.735
322.696
322.658
322.62
322.584
322.548
322.514
322.48
322.447
322.98
322.94
322.899
322.86
322.82
322.781
322.742
322.704
322.667
322.63
322.595
322.559
322.524
322.489
322.453
322.98
322.941
322.902
322.864
322.825
322.787
322.75
322.713
322.676
322.64
322.605
322.57
322.535
322.5
322.465
322.981
322.943
322.905
322.867
322.83
322.793
322.756
322.72
322.685
322.65
322.615
322.58
322.546
322.51
322.473
322.981
322.945
322.908
322.871
322.835
322.799
322.763
322.728
322.693
322.659
322.625
322.591
322.557
322.522
322.487
322.982
322.946
322.91
322.874
322.839
322.804
322.769
322.735
322.701
322.668
322.635
322.602
322.568
322.534
322.497
322.982
322.947
322.912
322.878
322.843
322.809
322.775
322.742
322.709
322.676
322.644
322.612
322.581
322.548
322.515
322.983
322.949
322.914
322.881
322.847
322.814
322.781
322.748
322.716
322.685
322.654
322.623
322.593
322.563
322.529
322.983
322.95
322.916
322.883
322.851
322.818
322.786
322.754
322.723
322.693
322.663
322.634
322.606
322.579
322.557
322.984
322.951
322.918
322.886
322.854
322.822
322.791
322.76
322.73
322.7
322.672
322.644
322.618
322.593
322.57
322.984
322.952
322.92
322.888
322.857
322.826
322.795
322.766
322.736
322.708
322.68
322.653
322.628
322.605
322.586
322.984
322.953
322.922
322.891
322.86
322.83
322.8
322.77
322.742
322.714
322.687
322.661
322.637
322.615
322.594
322.985
322.954
322.923
322.893
322.862
322.833
322.804
322.775
322.747
322.72
322.694
322.669
322.645
322.623
322.604
322.985
322.955
322.924
322.894
322.865
322.836
322.807
322.779
322.751
322.725
322.699
322.675
322.652
322.63
322.609
322.985
322.955
322.925
322.896
322.867
322.838
322.81
322.782
322.755
322.729
322.704
322.68
322.657
322.635
322.616
322.985
322.956
322.926
322.897
322.869
322.84
322.812
322.785
322.759
322.733
322.708
322.684
322.662
322.64
322.619
322.985
322.956
322.927
322.898
322.87
322.842
322.815
322.788
322.762
322.736
322.712
322.688
322.665
322.643
322.621
322.985
322.957
322.928
322.899
322.871
322.843
322.816
322.79
322.764
322.739
322.715
322.691
322.669
322.647
322.626
322.986
322.957
322.928
322.9
322.872
322.844
322.817
322.791
322.766
322.741
322.717
322.694
322.672
322.65
322.629
322.986
322.957
322.928
322.9
322.872
322.845
322.818
322.792
322.767
322.743
322.719
322.696
322.674
322.653
322.633
322.986
322.957
322.928
322.9
322.872
322.845
322.819
322.793
322.768
322.743
322.72
322.698
322.676
322.656
322.636
322.986
322.957
322.928
322.9
322.872
322.845
322.818
322.792
322.768
322.744
322.721
322.699
322.678
322.658
322.64
322.985
322.957
322.928
322.899
322.871
322.844
322.817
322.792
322.767
322.743
322.72
322.699
322.679
322.659
322.641
322.985
322.956
322.927
322.898
322.87
322.843
322.816
322.79
322.766
322.742
322.719
322.698
322.678
322.66
322.643
322.985
322.956
322.926
322.897
322.869
322.841
322.814
322.788
322.763
322.74
322.718
322.697
322.677
322.659
322.643
322.985
322.955
322.925
322.896
322.867
322.839
322.811
322.785
322.761
322.737
322.715
322.694
322.675
322.657
322.641
322.985
322.954
322.923
322.893
322.864
322.836
322.808
322.782
322.757
322.733
322.711
322.69
322.672
322.654
322.639
322.984
322.953
322.922
322.891
322.861
322.832
322.804
322.777
322.752
322.728
322.706
322.686
322.667
322.65
322.634
322.984
322.951
322.919
322.888
322.857
322.827
322.799
322.772
322.746
322.722
322.7
322.68
322.662
322.645
322.631
322.983
322.95
322.917
322.884
322.853
322.822
322.793
322.765
322.739
322.714
322.692
322.672
322.655
322.639
322.625
322.983
322.948
322.914
322.88
322.848
322.816
322.786
322.757
322.73
322.706
322.683
322.663
322.646
322.632
322.621
322.982
322.946
322.91
322.876
322.842
322.809
322.777
322.748
322.72
322.695
322.672
322.653
322.636
322.624
322.615
322.981
322.944
322.907
322.87
322.835
322.801
322.768
322.737
322.709
322.683
322.659
322.64
322.623
322.612
322.604
322.98
322.941
322.902
322.864
322.827
322.792
322.757
322.725
322.695
322.668
322.644
322.624
322.608
322.597
322.594
322.979
322.938
322.898
322.858
322.819
322.781
322.745
322.712
322.68
322.652
322.626
322.605
322.588
322.578
322.572
322.978
322.935
322.892
322.85
322.809
322.77
322.732
322.696
322.663
322.633
322.606
322.583
322.565
322.554
322.554
322.977
322.931
322.886
322.842
322.799
322.757
322.717
322.679
322.644
322.612
322.582
322.557
322.537
322.523
322.517
322.976
322.928
322.88
322.833
322.787
322.743
322.701
322.661
322.623
322.588
322.556
322.528
322.504
322.486
322.483
322.974
322.923
322.873
322.823
322.775
322.728
322.683
322.64
322.6
322.562
322.528
322.496
322.467
322.439
322.405
322.973
322.919
322.865
322.812
322.761
322.711
322.664
322.618
322.575
322.535
322.497
322.462
322.429
322.396
322.366
322.971
322.914
322.857
322.801
322.746
322.693
322.643
322.594
322.548
322.505
322.465
322.427
322.39
322.353
322.31
322.969
322.908
322.848
322.788
322.73
322.674
322.62
322.569
322.52
322.474
322.431
322.39
322.351
322.313
322.278
322.967
322.902
322.838
322.775
322.713
322.653
322.596
322.541
322.489
322.441
322.395
322.353
322.312
322.272
322.227
322.965
322.896
322.827
322.76
322.694
322.631
322.57
322.511
322.457
322.406
322.358
322.314
322.273
322.233
322.197
322.963
322.889
322.816
322.744
322.674
322.606
322.541
322.48
322.422
322.368
322.318
322.273
322.232
322.193
322.151
322.961
322.882
322.804
322.727
322.653
322.58
322.511
322.445
322.383
322.327
322.275
322.229
322.189
322.154
322.126
322.958
322.874
322.791
322.709
322.629
322.552
322.478
322.407
322.342
322.282
322.229
322.182
322.143
322.111
322.094
322.955
322.866
322.777
322.69
322.604
322.521
322.442
322.367
322.297
322.233
322.177
322.13
322.091
322.058
322.019
322.952
322.857
322.762
322.669
322.577
322.489
322.403
322.322
322.247
322.179
322.12
322.071
322.035
322.009
321.986
322.949
322.847
322.746
322.647
322.549
322.453
322.361
322.274
322.192
322.118
322.055
322.005
321.971
321.958
321.962
322.946
322.837
322.73
322.623
322.518
322.416
322.316
322.221
322.132
322.051
321.981
321.926
321.894
321.894
321.933
322.942
322.827
322.712
322.599
322.486
322.376
322.268
322.165
322.066
321.975
321.896
321.832
321.795
321.802
321.88
322.939
322.816
322.694
322.573
322.453
322.334
322.218
322.104
321.995
321.892
321.799
321.72
321.667
321.66
321.76
289.141
288.079
287.38
286.848
286.403
286.006
285.641
285.298
284.969
284.651
284.342
284.038
283.739
283.442
283.147
288.767
287.739
287.119
286.645
286.239
285.873
285.531
285.206
284.893
284.589
284.292
284
283.712
283.426
283.142
287.289
287.114
286.757
286.394
286.049
285.722
285.408
285.105
284.81
284.522
284.239
283.96
283.684
283.41
283.136
286.708
286.615
286.399
286.132
285.847
285.561
285.278
284.998
284.723
284.452
284.184
283.918
283.654
283.392
283.131
286.158
286.201
286.078
285.88
285.647
285.399
285.145
284.889
284.634
284.379
284.126
283.875
283.624
283.374
283.125
285.91
285.903
285.809
285.652
285.457
285.24
285.013
284.779
284.543
284.306
284.068
283.83
283.593
283.356
283.119
285.651
285.664
285.585
285.451
285.281
285.09
284.885
284.672
284.454
284.233
284.01
283.786
283.562
283.337
283.112
285.536
285.488
285.399
285.274
285.121
284.949
284.763
284.567
284.366
284.161
283.952
283.742
283.531
283.319
283.106
285.444
285.342
285.238
285.116
284.974
284.817
284.647
284.467
284.281
284.09
283.896
283.699
283.5
283.301
283.1
285.285
285.196
285.09
284.972
284.839
284.694
284.537
284.372
284.2
284.023
283.841
283.657
283.471
283.283
283.094
285.182
285.062
284.952
284.837
284.712
284.578
284.434
284.282
284.123
283.958
283.789
283.617
283.442
283.266
283.089
285.013
284.92
284.817
284.709
284.593
284.469
284.336
284.196
284.049
283.896
283.739
283.578
283.415
283.25
283.083
284.904
284.786
284.686
284.585
284.479
284.366
284.244
284.115
283.979
283.837
283.691
283.541
283.388
283.234
283.078
284.719
284.639
284.554
284.466
284.371
284.268
284.157
284.038
283.913
283.782
283.646
283.506
283.363
283.219
283.073
284.585
284.495
284.425
284.351
284.268
284.176
284.075
283.967
283.851
283.73
283.603
283.473
283.34
283.205
283.068
284.325
284.336
284.3
284.243
284.172
284.09
283.999
283.9
283.793
283.681
283.563
283.442
283.318
283.192
283.064
284.209
284.211
284.188
284.144
284.084
284.011
283.929
283.838
283.739
283.635
283.526
283.413
283.297
283.179
283.06
284.081
284.105
284.092
284.056
284.004
283.939
283.864
283.78
283.69
283.593
283.492
283.386
283.278
283.168
283.056
284.018
284.023
284.01
283.979
283.933
283.874
283.805
283.728
283.644
283.554
283.46
283.361
283.26
283.157
283.052
283.943
283.954
283.942
283.913
283.87
283.816
283.753
283.681
283.603
283.519
283.431
283.339
283.244
283.147
283.049
283.905
283.902
283.886
283.857
283.816
283.765
283.705
283.638
283.565
283.487
283.404
283.318
283.229
283.138
283.046
283.862
283.857
283.838
283.808
283.768
283.719
283.663
283.6
283.531
283.457
283.38
283.299
283.215
283.13
283.043
283.841
283.824
283.799
283.766
283.726
283.679
283.625
283.565
283.5
283.431
283.358
283.281
283.203
283.122
283.041
283.824
283.795
283.765
283.73
283.69
283.644
283.592
283.535
283.473
283.407
283.338
283.266
283.191
283.115
283.039
283.795
283.766
283.734
283.698
283.657
283.612
283.562
283.507
283.448
283.386
283.32
283.252
283.181
283.109
283.037
283.776
283.74
283.706
283.669
283.628
283.584
283.535
283.483
283.426
283.366
283.304
283.239
283.172
283.104
283.035
283.745
283.714
283.679
283.642
283.602
283.558
283.511
283.461
283.406
283.349
283.289
283.227
283.164
283.099
283.033
283.726
283.689
283.654
283.617
283.578
283.536
283.49
283.441
283.389
283.334
283.277
283.217
283.156
283.094
283.032
283.695
283.664
283.63
283.595
283.556
283.515
283.471
283.423
283.373
283.32
283.265
283.208
283.15
283.09
283.03
283.673
283.64
283.608
283.574
283.537
283.497
283.454
283.408
283.359
283.308
283.255
283.2
283.144
283.087
283.029
283.634
283.615
283.587
283.555
283.519
283.48
283.439
283.394
283.347
283.297
283.246
283.193
283.139
283.084
283.028
283.617
283.596
283.569
283.539
283.504
283.466
283.425
283.382
283.336
283.288
283.238
283.187
283.134
283.081
283.027
283.6
283.581
283.555
283.525
283.491
283.454
283.414
283.372
283.327
283.28
283.232
283.182
283.131
283.079
283.026
283.592
283.57
283.544
283.514
283.48
283.444
283.404
283.363
283.319
283.273
283.226
283.177
283.127
283.077
283.026
283.585
283.562
283.535
283.505
283.472
283.435
283.397
283.355
283.312
283.267
283.221
283.173
283.124
283.075
283.025
283.582
283.557
283.529
283.498
283.465
283.429
283.39
283.35
283.307
283.263
283.217
283.17
283.122
283.074
283.025
283.579
283.553
283.525