/*--------------------------------*- C++ -*----------------------------------*\
| =========                 |                                                 |
| \\      /  F ield         | OpenFOAM: The Open Source CFD Toolbox           |
|  \\    /   O peration     | Version:  5.x                                   |
|   \\  /    A nd           | Web:      www.OpenFOAM.org                      |
|    \\/     M anipulation  |                                                 |
\*---------------------------------------------------------------------------*/
FoamFile
{
    version     2.0;
    format      ascii;
    class       volScalarField;
    location    "17.9";
    object      gradTy;
}
// * * * * * * * * * * * * * * * * * * * * * * * * * * * * * * * * * * * * * //

dimensions      [0 -1 0 1 0 0 0];

internalField   nonuniform List<scalar> 
2048
(
-26.4236
-26.396
-26.3417
-26.262
-26.1592
-26.0358
-25.8945
-25.7383
-25.5697
-25.3915
-25.206
-25.0154
-24.8215
-24.6262
-24.4308
-24.2368
-24.0451
-23.8568
-23.6726
-23.4931
-23.3187
-23.1498
-22.9866
-22.8293
-22.6783
-22.5337
-22.3958
-22.265
-22.1416
-22.0262
-21.9192
-21.8213
-21.7333
-21.6559
-21.5902
-21.5372
-21.4979
-21.4735
-21.4653
-21.4744
-21.5022
-21.55
-21.6189
-21.71
-21.8244
-21.9629
-22.1257
-22.3128
-22.5236
-22.7566
-23.0096
-23.2793
-23.5613
-23.8504
-24.1406
-24.4252
-24.6976
-24.9511
-25.1796
-25.3777
-25.5412
-25.6666
-25.7515
-25.7943
-26.446
-26.4177
-26.3621
-26.2807
-26.1759
-26.0502
-25.9067
-25.7482
-25.5775
-25.3974
-25.2101
-25.0179
-24.8227
-24.6262
-24.4297
-24.2348
-24.0424
-23.8535
-23.6688
-23.4889
-23.3143
-23.1451
-22.9817
-22.8243
-22.6731
-22.5282
-22.3901
-22.259
-22.1352
-22.0193
-21.9118
-21.8133
-21.7246
-21.6465
-21.58
-21.526
-21.4858
-21.4604
-21.4512
-21.4593
-21.4861
-21.5329
-21.6008
-21.6912
-21.805
-21.9431
-22.106
-22.2937
-22.5056
-22.7405
-22.9962
-23.2693
-23.5555
-23.8495
-24.145
-24.4352
-24.7129
-24.9713
-25.2041
-25.4058
-25.572
-25.6994
-25.7855
-25.829
-26.4887
-26.4592
-26.4011
-26.3164
-26.2076
-26.0776
-25.9296
-25.7669
-25.5922
-25.4084
-25.2179
-25.0227
-24.8249
-24.626
-24.4276
-24.231
-24.0372
-23.8471
-23.6616
-23.481
-23.3059
-23.1363
-22.9726
-22.8148
-22.6632
-22.518
-22.3793
-22.2476
-22.1231
-22.0064
-21.8979
-21.7983
-21.7083
-21.6288
-21.5607
-21.505
-21.463
-21.4358
-21.4246
-21.4308
-21.4556
-21.5005
-21.5667
-21.6555
-21.7681
-21.9055
-22.0684
-22.257
-22.471
-22.7094
-22.9701
-23.2498
-23.5442
-23.8476
-24.1534
-24.4541
-24.7421
-25.01
-25.251
-25.4595
-25.6309
-25.7619
-25.8504
-25.895
-26.5499
-26.5185
-26.4569
-26.3672
-26.2525
-26.1162
-25.9619
-25.7929
-25.6126
-25.4236
-25.2284
-25.0292
-24.8277
-24.6256
-24.4244
-24.2254
-24.0296
-23.838
-23.6512
-23.4698
-23.2939
-23.1239
-22.9597
-22.8015
-22.6494
-22.5036
-22.3642
-22.2317
-22.1062
-21.9883
-21.8785
-21.7773
-21.6854
-21.6039
-21.5335
-21.4755
-21.4309
-21.401
-21.3871
-21.3905
-21.4126
-21.4547
-21.5183
-21.6048
-21.7156
-21.8519
-22.0146
-22.2043
-22.4212
-22.6643
-22.9319
-23.221
-23.5271
-23.8441
-24.1648
-24.481
-24.784
-25.0656
-25.3184
-25.5364
-25.715
-25.8512
-25.9428
-25.9889
-26.6283
-26.5944
-26.5279
-26.4317
-26.3092
-26.1646
-26.0019
-25.8251
-25.6375
-25.442
-25.2411
-25.0368
-24.8308
-24.6247
-24.42
-24.2179
-24.0197
-23.8261
-23.6379
-23.4554
-23.2788
-23.1082
-22.9436
-22.7849
-22.6322
-22.4857
-22.3455
-22.212
-22.0853
-21.966
-21.8544
-21.7512
-21.6571
-21.573
-21.4998
-21.4387
-21.3909
-21.3577
-21.3403
-21.3402
-21.3587
-21.3973
-21.4576
-21.541
-21.6493
-21.7839
-21.9461
-22.1369
-22.3568
-22.6056
-22.8819
-23.1828
-23.5038
-23.8385
-24.1787
-24.515
-24.8376
-25.137
-25.4049
-25.6349
-25.8224
-25.9647
-26.06
-26.1079
-26.7229
-26.6857
-26.6131
-26.5084
-26.3762
-26.2212
-26.0484
-25.8621
-25.6659
-25.4629
-25.2553
-25.045
-24.8337
-24.623
-24.4142
-24.2086
-24.0075
-23.8117
-23.6219
-23.4383
-23.261
-23.0898
-22.9247
-22.7655
-22.6122
-22.4649
-22.3238
-22.1891
-22.0611
-21.9401
-21.8265
-21.721
-21.6242
-21.537
-21.4605
-21.3959
-21.3443
-21.3071
-21.2856
-21.2813
-21.2955
-21.3299
-21.386
-21.4657
-21.5707
-21.7029
-21.864
-22.0555
-22.2787
-22.5337
-22.8199
-23.1347
-23.4737
-23.8299
-24.1942
-24.5555
-24.9023
-25.2234
-25.5095
-25.7536
-25.9513
-26.1003
-26.1996
-26.2493
-26.8331
-26.7917
-26.7114
-26.5964
-26.4523
-26.2849
-26.1001
-25.9027
-25.6968
-25.4852
-25.2702
-25.0534
-24.8363
-24.6204
-24.4069
-24.1974
-23.993
-23.7948
-23.6032
-23.4186
-23.2406
-23.0691
-22.9036
-22.7439
-22.5899
-22.4418
-22.2996
-22.1636
-22.0341
-21.9114
-21.7957
-21.6875
-21.5877
-21.497
-21.4167
-21.3479
-21.292
-21.2504
-21.2243
-21.2151
-21.2245
-21.2539
-21.3052
-21.3802
-21.4812
-21.6102
-21.7694
-21.9611
-22.187
-22.4485
-22.7454
-23.076
-23.4358
-23.8175
-24.2105
-24.6019
-24.9777
-25.3245
-25.6317
-25.8916
-26.1003
-26.2562
-26.3594
-26.4108
-26.9583
-26.912
-26.8223
-26.6947
-26.5362
-26.3543
-26.1555
-25.9457
-25.729
-25.5082
-25.2853
-25.0616
-24.8383
-24.6166
-24.3981
-24.1842
-23.9763
-23.7754
-23.5821
-23.3964
-23.218
-23.0463
-22.8805
-22.7204
-22.5658
-22.4167
-22.2735
-22.1362
-22.0051
-21.8805
-21.7624
-21.6515
-21.5483
-21.4538
-21.3692
-21.2959
-21.2352
-21.1886
-21.1573
-21.1429
-21.1468
-21.1706
-21.2163
-21.286
-21.382
-21.5068
-21.6633
-21.8542
-22.0823
-22.3499
-22.658
-23.0057
-23.3891
-23.8002
-24.2269
-24.6538
-25.0637
-25.4404
-25.7713
-26.0484
-26.2682
-26.4307
-26.5373
-26.5901
-27.0986
-27.0461
-26.945
-26.8023
-26.627
-26.428
-26.2135
-25.9899
-25.7616
-25.5312
-25.3002
-25.0693
-24.8394
-24.6117
-24.3876
-24.1689
-23.9571
-23.7535
-23.5585
-23.3721
-23.1935
-23.0218
-22.856
-22.6956
-22.5403
-22.3903
-22.2458
-22.1072
-21.9746
-21.848
-21.7276
-21.6136
-21.5067
-21.408
-21.3188
-21.2405
-21.1747
-21.1227
-21.0859
-21.0657
-21.0636
-21.0813
-21.1208
-21.1842
-21.2743
-21.394
-21.5466
-21.7355
-21.9647
-22.2376
-22.5569
-22.9229
-23.3322
-23.7768
-24.2426
-24.711
-25.1606
-25.5715
-25.9286
-26.2236
-26.4542
-26.6223
-26.7313
-26.7849
-27.2539
-27.1939
-27.0791
-26.9185
-26.7233
-26.5048
-26.2727
-26.0341
-25.7936
-25.5535
-25.3143
-25.0762
-24.8396
-24.6055
-24.3754
-24.1514
-23.9355
-23.729
-23.5325
-23.3456
-23.1673
-22.996
-22.8304
-22.6697
-22.5137
-22.3627
-22.217
-22.077
-21.9429
-21.8145
-21.6916
-21.5744
-21.4636
-21.3604
-21.2661
-21.1825
-21.1111
-21.0535
-21.0109
-20.9846
-20.9761
-20.9871
-21.0196
-21.0761
-21.1595
-21.2729
-21.4202
-21.6058
-21.8346
-22.1116
-22.4414
-22.8261
-23.2637
-23.7458
-24.2566
-24.7732
-25.2689
-25.7185
-26.104
-26.4171
-26.6573
-26.8293
-26.9393
-26.9928
-27.4246
-27.3556
-27.2243
-27.0423
-26.824
-26.5833
-26.3316
-26.0771
-25.8242
-25.5744
-25.3274
-25.0823
-24.8389
-24.5981
-24.3615
-24.1318
-23.9113
-23.7019
-23.5041
-23.3172
-23.1396
-22.9691
-22.8041
-22.6433
-22.4865
-22.3343
-22.1873
-22.046
-21.9105
-21.7804
-21.6551
-21.5346
-21.4197
-21.3115
-21.2118
-21.1225
-21.0453
-20.9818
-20.9331
-20.9005
-20.8853
-20.8891
-20.9141
-20.9628
-21.0385
-21.1445
-21.2852
-21.4658
-21.6923
-21.9716
-22.3107
-22.7141
-23.1818
-23.7057
-24.2679
-24.8405
-25.3894
-25.8826
-26.2986
-26.629
-26.8767
-27.0502
-27.1591
-27.2114
-27.6111
-27.5312
-27.3802
-27.173
-26.9279
-26.6621
-26.389
-26.1177
-25.8524
-25.5935
-25.3393
-25.0876
-24.8374
-24.5895
-24.3459
-24.1098
-23.8845
-23.6722
-23.4733
-23.2869
-23.1107
-22.9417
-22.7774
-22.6166
-22.459
-22.3054
-22.1569
-22.0144
-21.8778
-21.7461
-21.6185
-21.4947
-21.3754
-21.2619
-21.1564
-21.061
-20.9778
-20.9081
-20.8532
-20.8141
-20.7919
-20.7881
-20.805
-20.8454
-20.9125
-21.01
-21.1427
-21.3163
-21.5384
-21.8177
-22.1639
-22.5853
-23.0844
-23.6544
-24.2752
-24.9128
-25.5234
-26.0657
-26.5134
-26.8597
-27.1117
-27.2832
-27.3885
-27.4382
-27.814
-27.7211
-27.5466
-27.3098
-27.0337
-26.7396
-26.4434
-26.1547
-25.8774
-25.6104
-25.3499
-25.0921
-24.8353
-24.58
-24.3286
-24.0855
-23.8549
-23.6395
-23.4399
-23.2548
-23.0808
-22.9139
-22.7509
-22.5901
-22.4314
-22.2761
-22.126
-21.9824
-21.8449
-21.712
-21.5823
-21.4551
-21.3312
-21.212
-21.1002
-20.9985
-20.909
-20.8331
-20.772
-20.7263
-20.6969
-20.6852
-20.6935
-20.7248
-20.7825
-20.8705
-20.9937
-21.1585
-21.3735
-21.6497
-22.0005
-22.4382
-22.9696
-23.5897
-24.277
-24.9903
-25.6726
-26.2698
-26.7502
-27.1093
-27.3612
-27.5266
-27.625
-27.6706
-28.0343
-27.9258
-27.7234
-27.4517
-27.1399
-26.8145
-26.4934
-26.1869
-25.8984
-25.6246
-25.3592
-25.0961
-24.8328
-24.5698
-24.3098
-24.0587
-23.8224
-23.6038
-23.4039
-23.2209
-23.0502
-22.8863
-22.7249
-22.5641
-22.4042
-22.2467
-22.0947
-21.95
-21.8122
-21.6786
-21.547
-21.4164
-21.2875
-21.1622
-21.0436
-20.9352
-20.8393
-20.7573
-20.69
-20.6377
-20.601
-20.5811
-20.5804
-20.6021
-20.6497
-20.7272
-20.8394
-20.9933
-21.1985
-21.4681
-21.8196
-22.2711
-22.8348
-23.509
-24.2715
-25.073
-25.8394
-26.4979
-27.0107
-27.3783
-27.6243
-27.7783
-27.8662
-27.9056
-28.273
-28.1457
-27.9103
-27.5977
-27.2451
-26.885
-26.5374
-26.213
-25.9147
-25.6362
-25.3675
-25.1
-24.8304
-24.5592
-24.2895
-24.0293
-23.7866
-23.5649
-23.3652
-23.1853
-23.0192
-22.8593
-22.6999
-22.539
-22.3774
-22.2172
-22.0628
-21.9173
-21.7797
-21.6461
-21.5129
-21.3789
-21.2449
-21.1128
-20.9869
-20.8716
-20.7691
-20.6809
-20.6076
-20.549
-20.505
-20.4766
-20.4664
-20.478
-20.515
-20.5811
-20.6811
-20.8221
-21.0144
-21.2733
-21.6209
-22.0823
-22.6773
-23.4091
-24.2562
-25.1613
-26.0265
-26.7536
-27.2973
-27.667
-27.8996
-28.0361
-28.1093
-28.1407
-28.5312
-28.3815
-28.1074
-27.7468
-27.3475
-26.9495
-26.574
-26.2319
-25.9256
-25.6449
-25.3752
-25.1042
-24.8285
-24.5486
-24.2678
-23.9971
-23.7474
-23.5226
-23.3235
-23.148
-22.988
-22.8333
-22.6763
-22.5152
-22.3515
-22.1876
-22.0301
-21.8842
-21.7478
-21.615
-21.4805
-21.3431
-21.2036
-21.0641
-20.9302
-20.8076
-20.6986
-20.6043
-20.5254
-20.4607
-20.4095
-20.3723
-20.3522
-20.3533
-20.3793
-20.4334
-20.5199
-20.6463
-20.8227
-21.066
-21.404
-21.8703
-22.4946
-23.2864
-24.2279
-25.2551
-26.238
-27.0413
-27.6124
-27.9753
-28.1857
-28.2977
-28.3518
-28.373
-28.8104
-28.6339
-28.3144
-27.8979
-27.4452
-27.0065
-26.6018
-26.2423
-25.9305
-25.6508
-25.3828
-25.1093
-24.8276
-24.5388
-24.245
-23.9617
-23.7047
-23.4765
-23.2785
-23.109
-22.9571
-22.809
-22.6545
-22.4931
-22.3268
-22.1579
-21.9965
-21.8506
-21.7165
-21.5856
-21.4501
-21.3092
-21.1642
-21.0164
-20.8735
-20.7435
-20.6279
-20.5278
-20.4437
-20.3734
-20.3151
-20.2689
-20.2385
-20.2286
-20.2434
-20.2851
-20.3572
-20.4673
-20.625
-20.8473
-21.1688
-21.6336
-22.2838
-23.1369
-24.1825
-25.3544
-26.4789
-27.3664
-27.9586
-28.3032
-28.4805
-28.5604
-28.5908
-28.5997
-29.1122
-28.9034
-28.5315
-28.0494
-27.5359
-27.0542
-26.6195
-26.2429
-25.9288
-25.6542
-25.3911
-25.1157
-24.8281
-24.5303
-24.221
-23.9226
-23.6581
-23.4266
-23.2298
-23.0683
-22.9267
-22.787
-22.6351
-22.4728
-22.3036
-22.128
-21.9612
-21.816
-21.6859
-21.5584
-21.4221
-21.2777
-21.127
-20.9697
-20.8168
-20.6793
-20.5573
-20.4515
-20.3628
-20.2874
-20.2224
-20.167
-20.1256
-20.1045
-20.1081
-20.1373
-20.194
-20.2867
-20.423
-20.6185
-20.9156
-21.3706
-22.0421
-22.956
-24.1143
-25.4587
-26.7559
-27.7355
-28.3384
-28.6497
-28.7817
-28.8214
-28.8237
-28.8184
-29.4384
-29.1906
-28.7591
-28.2001
-27.6169
-27.0914
-26.6261
-26.2322
-25.9202
-25.6554
-25.4013
-25.1241
-24.8303
-24.5243
-24.1961
-23.8792
-23.6075
-23.3726
-23.1768
-23.0259
-22.8973
-22.7682
-22.6185
-22.4547
-22.2826
-22.0979
-21.9236
-21.7803
-21.6562
-21.534
-21.3968
-21.2486
-21.0927
-20.9243
-20.7598
-20.6152
-20.4869
-20.3754
-20.283
-20.2034
-20.132
-20.0669
-20.0141
-19.9814
-19.9741
-19.991
-20.0315
-20.1061
-20.2191
-20.3814
-20.6451
-21.08
-21.7674
-22.739
-24.0157
-25.5671
-27.0778
-28.1562
-28.7543
-29.0135
-29.0864
-29.0778
-29.0478
-29.0266
-29.7912
-29.4956
-28.9977
-28.3482
-27.685
-27.117
-26.6205
-26.2084
-25.9041
-25.6548
-25.4147
-25.1349
-24.8345
-24.5222
-24.1704
-23.8303
-23.5532
-23.3144
-23.1189
-22.9816
-22.8692
-22.7536
-22.6048
-22.4388
-22.2645
-22.0674
-21.8826
-21.7431
-21.6275
-21.5131
-21.3744
-21.2222
-21.0618
-20.8803
-20.702
-20.5512
-20.4168
-20.2995
-20.2046
-20.1217
-20.0446
-19.9692
-19.904
-19.8595
-19.842
-19.8472
-19.8704
-19.9271
-20.016
-20.1379
-20.358
-20.7606
-21.4578
-22.4812
-23.8763
-25.6775
-27.4567
-28.6376
-29.2078
-29.3923
-29.3914
-29.3267
-29.2607
-29.2223
-30.1732
-29.8179
-29.2487
-28.492
-27.7359
-27.1307
-26.6025
-26.1695
-25.8804
-25.6527
-25.4336
-25.1483
-24.8403
-24.5261
-24.1441
-23.7741
-23.4954
-23.2523
-23.0547
-22.9355
-22.8429
-22.7445
-22.5944
-22.4248
-22.2507
-22.0364
-21.8367
-21.7038
-21.5999
-21.4968
-21.3551
-21.1981
-21.0355
-20.8377
-20.6426
-20.4875
-20.3472
-20.2235
-20.1278
-20.0426
-19.9606
-19.8741
-19.7957
-19.7388
-19.7122
-19.707
-19.7112
-19.7509
-19.8167
-19.8902
-20.0559
-20.4106
-21.1125
-22.1786
-23.6821
-25.7864
-27.909
-29.1899
-29.6998
-29.7825
-29.6927
-29.565
-29.4603
-29.4036
-30.5874
-30.1556
-29.5146
-28.6294
-27.7638
-27.1332
-26.5721
-26.1125
-25.8493
-25.6496
-25.4606
-25.1642
-24.8468
-24.5391
-24.1174
-23.7078
-23.4352
-23.1867
-22.9825
-22.8877
-22.8185
-22.743
-22.5872
-22.4121
-22.2429
-22.0048
-21.7835
-21.6624
-21.5733
-21.4865
-21.3388
-21.1758
-21.0152
-20.7965
-20.5803
-20.4246
-20.2783
-20.147
-20.0529
-19.9666
-19.881
-19.7822
-19.6891
-19.6192
-19.5851
-19.5716
-19.5541
-19.5789
-19.6249
-19.6405
-19.7408
-20.0282
-20.732
-21.829
-23.414
-25.8882
-28.4571
-29.8242
-30.2293
-30.1796
-29.9862
-29.7897
-29.6445
-29.5692
-31.038
-30.505
-29.7996
-28.7584
-27.761
-27.1268
-26.5303
-26.0334
-25.8115
-25.6453
-25.5
-25.1821
-24.8518
-24.5658
-24.0902
-23.6272
-23.3745
-23.1183
-22.8998
-22.8388
-22.796
-22.7517
-22.5827
-22.3992
-22.244
-21.9724
-21.7202
-21.6187
-21.5477
-21.4844
-21.3251
-21.1543
-21.0031
-20.7569
-20.5132
-20.3632
-20.2106
-20.0691
-19.9803
-19.8938
-19.8065
-19.6935
-19.5843
-19.5004
-19.4609
-19.4425
-19.3986
-19.4116
-19.4453
-19.3909
-19.4158
-19.6099
-20.3184
-21.433
-23.046
-25.9739
-29.132
-30.552
-30.7931
-30.5777
-30.2674
-29.9982
-29.8118
-29.7182
-31.5302
-30.8593
-30.1106
-28.8768
-27.7168
-27.1161
-26.4787
-25.9261
-25.7688
-25.6388
-25.5573
-25.2007
-24.8516
-24.613
-24.0628
-23.526
-23.3168
-23.0486
-22.8027
-22.7899
-22.7746
-22.7742
-22.5801
-22.3837
-22.2585
-21.9393
-21.6423
-21.5734
-21.5224
-21.4933
-21.3134
-21.1314
-21.0023
-20.7187
-20.4383
-20.3047
-20.1445
-19.9886
-19.9107
-19.8243
-19.7381
-19.6083
-19.4811
-19.3817
-19.3398
-19.322
-19.2433
-19.2494
-19.2835
-19.1432
-19.0854
-19.1507
-19.876
-20.9966
-22.5432
-26.0296
-29.977
-31.3838
-31.3851
-30.9694
-30.5317
-30.188
-29.9612
-29.8498
-32.0715
-31.2066
-30.459
-28.9823
-27.6158
-27.1096
-26.4203
-25.7821
-25.7251
-25.6276
-25.641
-25.2178
-24.8399
-24.6908
-24.0351
-23.395
-23.2677
-22.9795
-22.6854
-22.7434
-22.7528
-22.8161
-22.5779
-22.3615
-22.2926
-21.9052
-21.544
-21.5283
-21.496
-21.5178
-21.3025
-21.1041
-21.0178
-20.6818
-20.3513
-20.2516
-20.0809
-19.9035
-19.8449
-19.7579
-19.6774
-19.5265
-19.3795
-19.2621
-19.2214
-19.2131
-19.086
-19.0912
-19.147
-18.8975
-18.7563
-18.6422
-19.411
-20.5339
-21.8589
-26.0347
-31.0517
-32.3275
-31.9955
-31.3466
-30.7746
-30.3573
-30.0919
-29.9639
-32.6723
-31.5279
-30.862
-29.0727
-27.4367
-27.1207
-26.3594
-25.5886
-25.687
-25.6064
-25.7629
-25.2298
-24.8068
-24.8137
-24.0072
-23.2206
-23.2361
-22.9139
-22.5395
-22.7036
-22.7268
-22.8852
-22.5737
-22.3262
-22.3556
-21.8702
-21.4169
-21.4867
-21.4657
-21.5639
-21.2905
-21.0674
-21.0565
-20.6461
-20.2461
-20.2075
-20.0207
-19.8107
-19.7846
-19.6938
-19.626
-19.448
-19.2795
-19.1405
-19.1051
-19.1203
-18.9228
-18.9352
-19.0457
-18.6522
-18.4388
-18.071
-18.932
-20.0711
-20.931
-25.9593
-32.4383
-33.3851
-32.6101
-31.7001
-30.9921
-30.5045
-30.2037
-30.0606
-33.3475
-31.7937
-31.3459
-29.1455
-27.1498
-27.1701
-26.3019
-25.3273
-25.666
-25.5654
-25.9399
-25.2317
-24.7377
-25.0025
-23.9788
-22.9835
-23.2353
-22.8558
-22.3528
-22.6778
-22.6903
-22.9924
-22.5642
-22.2682
-22.461
-21.8338
-21.2496
-21.4549
-21.4265
-21.6407
-21.2747
-21.0136
-21.1285
-20.611
-20.1138
-20.1783
-19.9652
-19.7059
-19.7327
-19.6304
-19.5865
-19.3721
-19.1813
-19.015
-18.9894
-19.0502
-18.7484
-18.7775
-18.9929
-18.4019
-18.1483
-17.4169
-18.4491
-19.652
-19.6778
-25.7603
-34.2496
-34.5487
-33.2103
-32.0205
-31.1806
-30.6289
-30.2966
-30.1405
-34.1181
-31.9599
-31.9491
-29.1988
-26.7138
-27.2882
-26.2554
-24.9722
-25.681
-25.4883
-26.196
-25.2164
-24.611
-25.2862
-23.9493
-22.6568
-23.2851
-22.8101
-22.108
-22.6782
-22.6323
-23.1535
-22.5445
-22.1735
-22.6274
-21.7956
-21.0264
-21.4432
-21.3699
-21.7607
-21.2514
-20.9322
-21.248
-20.5758
-19.9422
-20.1727
-19.9159
-19.5827
-19.6934
-19.5652
-19.5625
-19.2977
-19.0855
-18.8838
-18.872
-19.0122
-18.5552
-18.6118
-19.0071
-18.1357
-17.9084
-16.6499
-17.9734
-19.3445
-17.9933
-25.3772
-36.6388
-35.7944
-33.7729
-32.2989
-31.3377
-30.7301
-30.3713
-30.2043
-35.0135
-31.9619
-32.7267
-29.2301
-26.0726
-27.5187
-26.2291
-24.4866
-25.761
-25.3489
-26.5645
-25.1745
-24.396
-25.705
-23.9179
-22.2036
-23.4135
-22.783
-21.7808
-22.7236
-22.5357
-23.3905
-22.5084
-22.0226
-22.8806
-21.7545
-20.7261
-21.468
-21.282
-21.9416
-21.2153
-20.808
-21.4347
-20.5394
-19.7149
-20.203
-19.8744
-19.4325
-19.6732
-19.4938
-19.5588
-19.2228
-18.9931
-18.7445
-18.7487
-19.0195
-18.3328
-18.4286
-19.1135
-17.8342
-17.7542
-15.7271
-17.5147
-19.2487
-15.7412
-24.7269
-39.8118
-37.0739
-34.2711
-32.5274
-31.4619
-30.8086
-30.4285
-30.2529
-36.0746
-31.7087
-33.7559
-29.2373
-25.1506
-27.9222
-26.2343
-23.8199
-25.9503
-25.1069
-27.0916
-25.0934
-24.0507
-26.313
-23.8829
-21.5742
-23.6594
-22.7821
-21.3376
-22.8427
-22.3737
-23.7336
-22.4473
-21.7882
-23.2557
-21.7086
-20.3203
-21.5539
-21.1418
-22.2078
-21.1596
-20.6199
-21.7152
-20.4999
-19.4096
-20.2868
-19.8423
-19.2431
-19.682
-19.4091
-19.5821
-19.1441
-18.906
-18.5943
-18.6129
-19.0908
-18.0676
-18.2141
-19.347
-17.4658
-17.7369
-14.5887
-17.0797
-19.5071
-12.7488
-23.6964
-44.0419
-38.3042
-34.6767
-32.7003
-31.5529
-30.8651
-30.4695
-30.2876
-37.3573
-31.0741
-35.1425
-29.2177
-23.8483
-28.5811
-26.2838
-22.9037
-26.3131
-24.7026
-27.8398
-24.9574
-23.5179
-27.1822
-23.8421
-20.7029
-24.0762
-22.8162
-20.733
-23.0775
-22.1073
-24.2241
-22.3504
-21.4336
-23.7991
-21.6551
-19.7715
-21.7371
-20.9177
-22.5922
-21.0753
-20.3398
-22.1251
-20.4544
-18.997
-20.448
-19.8213
-18.9984
-19.7341
-19.301
-19.6419
-19.0567
-18.8273
-18.4305
-18.4552
-19.251
-17.7423
-17.9486
-19.755
-16.982
-17.9295
-13.1541
-16.6677
-20.3161
-8.79985
-22.1347
-49.6877
-39.3539
-34.9632
-32.8146
-31.6115
-30.9011
-30.4954
-30.3095
-38.9367
-29.8874
-37.0289
-29.1676
-22.0359
-29.6051
-26.3919
-21.6466
-26.9408
-24.05
-28.8928
-24.7463
-22.7224
-28.4064
-23.7919
-19.504
-24.7342
-22.8947
-19.9059
-23.4869
-21.679
-24.9162
-22.2041
-20.9111
-24.5725
-21.5894
-19.0298
-22.0668
-20.5626
-23.1374
-20.9504
-19.9308
-22.7112
-20.399
-18.4389
-20.718
-19.8119
-18.6768
-19.8492
-19.1542
-19.751
-18.953
-18.761
-18.2497
-18.2608
-19.5332
-17.3349
-17.6051
-20.4018
-16.3111
-18.4338
-11.317
-16.2664
-21.9387
-3.62768
-19.844
-57.213
-40.0275
-35.111
-32.8704
-31.6397
-30.9183
-30.5077
-30.3198
)
;

boundaryField
{
    left
    {
        type            calculated;
        value           nonuniform List<scalar> 
32
(
-26.4236
-26.446
-26.4887
-26.5499
-26.6283
-26.7229
-26.8331
-26.9583
-27.0986
-27.2539
-27.4246
-27.6111
-27.814
-28.0343
-28.273
-28.5312
-28.8104
-29.1122
-29.4384
-29.7912
-30.1732
-30.5874
-31.038
-31.5302
-32.0715
-32.6723
-33.3475
-34.1181
-35.0135
-36.0746
-37.3573
-38.9367
)
;
    }
    right
    {
        type            calculated;
        value           nonuniform List<scalar> 
32
(
-25.7943
-25.829
-25.895
-25.9889
-26.1079
-26.2493
-26.4108
-26.5901
-26.7849
-26.9928
-27.2114
-27.4382
-27.6706
-27.9056
-28.1407
-28.373
-28.5997
-28.8184
-29.0266
-29.2223
-29.4036
-29.5692
-29.7182
-29.8498
-29.9639
-30.0606
-30.1405
-30.2043
-30.2529
-30.2876
-30.3095
-30.3198
)
;
    }
    interface
    {
        type            calculated;
        value           nonuniform List<scalar> 
64
(
-39.8112
-29.1316
-38.1173
-29.1344
-20.984
-30.224
-26.4623
-20.9198
-27.3342
-23.6491
-29.5073
-24.6192
-22.2483
-29.1205
-23.7638
-18.8107
-25.1335
-22.9462
-19.428
-23.7437
-21.416
-25.3203
-22.1166
-20.6011
-25.0254
-21.5529
-18.6035
-22.2754
-20.3453
-23.4562
-20.876
-19.6887
-23.0548
-20.3682
-18.118
-20.8847
-19.81
-18.4938
-19.9254
-19.0689
-19.8197
-18.8959
-18.7315
-18.1546
-18.1523
-19.7096
-17.1076
-17.4099
-20.7941
-15.9182
-18.7787
-10.2827
-16.066
-22.9909
-0.699027
-18.4883
-61.5108
-40.2413
-35.1483
-32.884
-31.6465
-30.9224
-30.5106
-30.3223
)
;
    }
    bottom
    {
        type            calculated;
        value           nonuniform List<scalar> 
64
(
-26.4178
-26.3904
-26.3363
-26.2571
-26.1549
-26.032
-25.8914
-25.7357
-25.5677
-25.3899
-25.2049
-25.0147
-24.8212
-24.6261
-24.4311
-24.2373
-24.0458
-23.8577
-23.6736
-23.4942
-23.3198
-23.151
-22.9878
-22.8306
-22.6796
-22.5351
-22.3973
-22.2666
-22.1433
-22.028
-21.9211
-21.8234
-21.7355
-21.6584
-21.5929
-21.5401
-21.501
-21.4769
-21.4689
-21.4784
-21.5065
-21.5545
-21.6236
-21.7149
-21.8295
-21.968
-22.1308
-22.3178
-22.5283
-22.7608
-23.0131
-23.2818
-23.5627
-23.8506
-24.1394
-24.4226
-24.6936
-24.9458
-25.1732
-25.3704
-25.5332
-25.6581
-25.7426
-25.7853
)
;
    }
    defaultFaces
    {
        type            empty;
    }
}


// ************************************************************************* //
