/*--------------------------------*- C++ -*----------------------------------*\
| =========                 |                                                 |
| \\      /  F ield         | OpenFOAM: The Open Source CFD Toolbox           |
|  \\    /   O peration     | Version:  5.x                                   |
|   \\  /    A nd           | Web:      www.OpenFOAM.org                      |
|    \\/     M anipulation  |                                                 |
\*---------------------------------------------------------------------------*/
FoamFile
{
    version     2.0;
    format      ascii;
    class       volScalarField;
    location    "2";
    object      gradTx;
}
// * * * * * * * * * * * * * * * * * * * * * * * * * * * * * * * * * * * * * //

dimensions      [0 -1 0 1 0 0 0];

internalField   nonuniform List<scalar> 
2048
(
0.00629673
0.0187097
0.0305981
0.0416639
0.0516777
0.0604905
0.0680318
0.0742993
0.0793428
0.083245
0.0861058
0.0880294
0.0891177
0.0894677
0.0891717
0.0883188
0.0869959
0.0852864
0.0832682
0.0810097
0.0785666
0.0759799
0.0732745
0.0704606
0.0675363
0.0644897
0.0613017
0.0579469
0.0543949
0.0506102
0.046553
0.0421802
0.0374469
0.0323091
0.0267253
0.020658
0.0140753
0.00695115
-0.000733967
-0.00899167
-0.0178235
-0.0272172
-0.0371417
-0.0475397
-0.0583204
-0.0693498
-0.0804417
-0.0913504
-0.101766
-0.111318
-0.119585
-0.126118
-0.130476
-0.132266
-0.131193
-0.127094
-0.119963
-0.109952
-0.0973487
-0.0825353
-0.0659436
-0.0480132
-0.0291627
-0.0097789
0.0187642
0.0557454
0.091137
0.12404
0.153767
0.179878
0.202174
0.220661
0.235503
0.246956
0.255327
0.260929
0.264067
0.265025
0.264076
0.261483
0.257503
0.252385
0.246362
0.239639
0.232383
0.224715
0.216709
0.208392
0.199757
0.190766
0.181362
0.17147
0.160999
0.149843
0.137885
0.124994
0.111038
0.0958839
0.0794073
0.0614974
0.0420588
0.0210139
-0.00169572
-0.0261064
-0.0522258
-0.0800221
-0.109409
-0.140223
-0.172205
-0.204964
-0.237958
-0.270464
-0.301563
-0.33015
-0.35496
-0.374638
-0.387844
-0.393382
-0.390344
-0.378231
-0.357024
-0.327193
-0.289617
-0.245467
-0.196054
-0.142701
-0.086654
-0.0290531
0.0311005
0.0923649
0.150911
0.205214
0.254126
0.29693
0.33333
0.363381
0.387395
0.40584
0.419242
0.428133
0.433013
0.434347
0.432575
0.428124
0.421415
0.412861
0.402853
0.391735
0.379785
0.367203
0.354106
0.340533
0.326465
0.311834
0.296543
0.280467
0.263459
0.245345
0.225928
0.204994
0.182319
0.15768
0.130871
0.101708
0.0700347
0.0357222
-0.00132755
-0.0411792
-0.0838542
-0.129314
-0.177434
-0.22797
-0.28052
-0.33447
-0.388956
-0.442807
-0.494522
-0.542268
-0.583922
-0.617186
-0.639758
-0.649567
-0.645027
-0.625263
-0.590243
-0.540791
-0.47845
-0.405255
-0.323456
-0.235286
-0.142808
-0.0478679
0.0435455
0.129264
0.211007
0.286568
0.354321
0.413293
0.463141
0.504034
0.536499
0.561262
0.579109
0.590799
0.597024
0.598414
0.59556
0.589039
0.579434
0.567327
0.55327
0.537755
0.521179
0.503818
0.485824
0.46724
0.448021
0.428066
0.407231
0.385345
0.362205
0.337573
0.311173
0.282703
0.251842
0.218276
0.181714
0.141899
0.0986144
0.0516824
0.000964396
-0.0536381
-0.112172
-0.174608
-0.240811
-0.310487
-0.383127
-0.457942
-0.533788
-0.60909
-0.681788
-0.749322
-0.808675
-0.856522
-0.889483
-0.904473
-0.899104
-0.872044
-0.823246
-0.753962
-0.666534
-0.564007
-0.449693
-0.326801
-0.198212
-0.0664135
0.0563148
0.167065
0.272385
0.369303
0.455687
0.530339
0.59294
0.643866
0.683955
0.714263
0.73588
0.749808
0.756921
0.757992
0.753736
0.744869
0.732128
0.716271
0.698031
0.678063
0.656888
0.63486
0.612158
0.588809
0.564731
0.539773
0.513746
0.486432
0.457579
0.426887
0.394003
0.358527
0.320038
0.278121
0.232395
0.18253
0.128254
0.0693419
0.00561545
-0.0630635
-0.13678
-0.215538
-0.299219
-0.387517
-0.47987
-0.575362
-0.67263
-0.769746
-0.864132
-0.952496
-1.03088
-1.09481
-1.13965
-1.16111
-1.15579
-1.12178
-1.05902
-0.96929
-0.855945
-0.723272
-0.575835
-0.417921
-0.253228
-0.0848028
0.0696132
0.206354
0.335938
0.454513
0.559405
0.649238
0.723816
0.783853
0.830618
0.8656
0.890244
0.905805
0.913322
0.913672
0.907664
0.896125
0.879949
0.860082
0.837463
0.812934
0.787158
0.760564
0.733342
0.705485
0.676847
0.647216
0.616349
0.583991
0.549849
0.513567
0.474712
0.432781
0.387237
0.337554
0.283255
0.223939
0.159281
0.0890169
0.0129304
-0.0691605
-0.157393
-0.251829
-0.352399
-0.458833
-0.570564
-0.68662
-0.805486
-0.924957
-1.04198
-1.15256
-1.25172
-1.33371
-1.39241
-1.42201
-1.41784
-1.37724
-1.30007
-1.18886
-1.04825
-0.884112
-0.70252
-0.508981
-0.308004
-0.103076
0.0836448
0.247713
0.402535
0.543233
0.666553
0.771005
0.85666
0.924737
0.977101
1.01579
1.04266
1.05924
1.06668
1.06591
1.05779
1.04322
1.02326
0.999061
0.971809
0.942569
0.912166
0.881104
0.849566
0.817474
0.784589
0.750616
0.715258
0.67823
0.639218
0.597821
0.553523
0.505703
0.453691
0.396833
0.334549
0.266367
0.191919
0.110915
0.0231043
-0.0717395
-0.173821
-0.283285
-0.40015
-0.524227
-0.655004
-0.791523
-0.932211
-1.07467
-1.21547
-1.34991
-1.47199
-1.57449
-1.64951
-1.68936
-1.68771
-1.64086
-1.54859
-1.41438
-1.2446
-1.04715
-0.829986
-0.599996
-0.362483
-0.121202
0.0986213
0.291737
0.473052
0.636476
0.778141
0.896539
0.992195
1.06706
1.12379
1.16512
1.19339
1.21037
1.21729
1.21505
1.20446
1.1865
1.16235
1.13344
1.10124
1.0671
1.03203
0.996606
0.960979
0.924951
0.88815
0.850167
0.810652
0.769312
0.725837
0.679798
0.630593
0.577467
0.519587
0.456148
0.386456
0.309973
0.226305
0.13515
0.0362387
-0.0707019
-0.185957
-0.309782
-0.442323
-0.583518
-0.732972
-0.889823
-1.05253
-1.21865
-1.38444
-1.54462
-1.69209
-1.81802
-1.91238
-1.9651
-1.96765
-1.91491
-1.80654
-1.64725
-1.44574
-1.21259
-0.958081
-0.690675
-0.416413
-0.139083
0.114768
0.339056
0.548398
0.735266
0.895141
1.02664
1.131
1.21118
1.27088
1.3137
1.34253
1.35935
1.36538
1.36135
1.34799
1.32624
1.29747
1.2634
1.22588
1.1866
1.1468
1.10715
1.0677
1.02807
0.987707
0.946046
0.902685
0.857358
0.809805
0.759594
0.706032
0.648199
0.585064
0.515638
0.4391
0.354855
0.262503
0.161759
0.0523538
-0.0660288
-0.193769
-0.331263
-0.478823
-0.63656
-0.804258
-0.981229
-1.16609
-1.35646
-1.5485
-1.73643
-1.9121
-2.06487
-2.18218
-2.25096
-2.2598
-2.20159
-2.07572
-1.8886
-1.65208
-1.38025
-1.08628
-0.780426
-0.469351
-0.156559
0.132332
0.390351
0.62954
0.840652
1.0185
1.16203
1.27351
1.35728
1.41837
1.46145
1.49
1.50619
1.51105
1.50504
1.48864
1.46271
1.42882
1.38907
1.34578
1.30108
1.25651
1.21278
1.16982
1.12699
1.08344
1.03842
0.991491
0.942459
0.89118
0.837259
0.779904
0.717986
0.650226
0.575408
0.492564
0.401056
0.300517
0.190711
0.0713989
-0.0577718
-0.197291
-0.34773
-0.509607
-0.683251
-0.868675
-1.06544
-1.27246
-1.48758
-1.70705
-1.92482
-2.13174
-2.31526
-2.45981
-2.54856
-2.56628
-2.5031
-2.3579
-2.13939
-1.86369
-1.54952
-1.21368
-0.868371
-0.520682
-0.173409
0.151585
0.446371
0.717516
0.953733
1.14915
1.30335
1.42005
1.50537
1.56607
1.6081
1.63561
1.6508
1.65436
1.6463
1.62665
1.59616
1.5566
1.51056
1.46097
1.41051
1.3611
1.31351
1.26744
1.22185
1.17552
1.12747
1.0772
1.02467
0.969977
0.912802
0.852238
0.786887
0.715153
0.635536
0.546899
0.448582
0.340299
0.221918
0.0932611
-0.0460446
-0.196618
-0.359243
-0.534691
-0.723542
-0.926076
-1.14218
-1.37117
-1.61134
-1.8593
-2.10897
-2.35044
-2.56911
-2.74594
-2.85943
-2.88929
-2.82176
-2.65485
-2.40036
-2.08026
-1.71941
-1.33901
-0.953357
-0.569626
-0.189361
0.17283
0.507938
0.813457
1.07566
1.28804
1.45117
1.57079
1.65532
1.71363
1.75324
1.77901
1.79301
1.79534
1.7853
1.7623
1.72685
1.68099
1.62795
1.57141
1.5148
1.4605
1.40933
1.36063
1.31281
1.26417
1.21338
1.15992
1.10403
1.04617
0.986191
0.923031
0.854939
0.779911
0.696091
0.602137
0.497405
0.381762
0.25524
0.117773
-0.0310155
-0.191894
-0.365912
-0.554141
-0.75744
-0.976375
-1.21121
-1.46179
-1.72707
-2.00431
-2.28785
-2.56729
-2.826
-3.04099
-3.18498
-3.23111
-3.1601
-2.96844
-2.67212
-2.30116
-1.88848
-1.46063
-1.03398
-0.615272
-0.204101
0.196407
0.575967
0.918597
1.20768
1.43608
1.60597
1.72579
1.80681
1.86052
1.89632
1.91978
1.93261
1.93399
1.92222
1.89587
1.85504
1.80215
1.74128
1.67705
1.61382
1.55459
1.50021
1.44947
1.40006
1.34961
1.29637
1.23977
1.18053
1.11969
1.05736
0.992259
0.922165
0.844561
0.757136
0.658297
0.547472
0.42478
0.290494
0.144718
-0.0129002
-0.18331
-0.367892
-0.568077
-0.785018
-1.01955
-1.27235
-1.5439
-1.83402
-2.14104
-2.46018
-2.78106
-3.08519
-3.3451
-3.52657
-3.59421
-3.52096
-3.30069
-2.95507
-2.5253
-2.05484
-1.57656
-1.10864
-0.656604
-0.217285
0.222695
0.65147
1.03428
1.35107
1.5942
1.76817
1.88499
1.9594
2.00606
2.03663
2.0574
2.06935
2.0703
2.05728
2.02769
1.98104
1.92028
1.8506
1.7778
1.70739
1.6432
1.58608
1.53405
1.48379
1.43211
1.37668
1.31688
1.25415
1.19043
1.1262
1.05988
0.988579
0.909167
0.818746
0.715395
0.598712
0.4692
0.327461
0.173839
0.00804456
-0.171089
-0.365369
-0.576661
-0.806411
-1.05568
-1.32551
-1.61716
-1.93153
-2.26836
-2.62447
-2.99023
-3.34555
-3.65808
-3.88541
-3.98128
-3.90762
-3.65385
-3.24945
-2.75114
-2.21615
-1.68449
-1.17555
-0.692546
-0.228559
0.252123
0.735561
1.16199
1.50725
1.76328
1.93806
2.0482
2.11249
2.14939
2.17334
2.19129
2.20295
2.20426
2.19073
2.15816
2.10518
2.03555
1.95596
1.87352
1.79525
1.7261
1.66688
1.61448
1.56422
1.51197
1.45461
1.39138
1.32481
1.25821
1.19258
1.12583
1.05419
0.973799
0.881009
0.773449
0.651032
0.514846
0.365889
0.204838
0.0315275
-0.155481
-0.358553
-0.580093
-0.82182
-1.0849
-1.37071
-1.68134
-2.01896
-2.38512
-2.77909
-3.19295
-3.60559
-3.97943
-4.26255
-4.39527
-4.32394
-4.03054
-3.55525
-2.9766
-2.36954
-1.78182
-1.23283
-0.722013
-0.237572
0.285171
0.829465
1.3033
1.67769
1.94418
2.1158
2.21512
2.26537
2.28952
2.3055
2.32081
2.33315
2.33588
2.32284
2.28775
2.22783
2.14814
2.05738
1.96406
1.87712
1.80303
1.74253
1.69089
1.64162
1.58955
1.53053
1.46342
1.39238
1.32279
1.25633
1.19006
1.11901
1.03854
0.944049
0.832484
0.704327
0.56152
0.405502
0.237386
0.0572274
-0.136753
-0.347664
-0.578597
-0.831502
-1.10746
-1.40806
-1.73632
-2.09582
-2.49021
-2.92225
-3.3871
-3.86343
-4.30817
-4.65877
-4.8394
-4.77458
-4.43376
-3.87212
-3.19893
-2.51165
-1.86574
-1.27858
-0.743971
-0.244002
0.322389
0.934506
1.45993
1.86401
2.1377
2.3014
2.38535
2.4172
2.42529
2.43201
2.44532
2.45973
2.46516
2.45394
2.41704
2.3494
2.25821
2.15491
2.04928
1.95263
1.87367
1.81297
1.76345
1.71623
1.66525
1.60487
1.53316
1.4567
1.38388
1.31725
1.25252
1.18304
1.10349
1.00803
0.89253
0.758464
0.609015
0.446003
0.271119
0.084797
-0.115179
-0.332917
-0.572411
-0.835774
-1.1237
-1.43779
-1.78215
-2.16177
-2.58255
-3.05205
-3.57027
-4.11683
-4.64291
-5.07442
-5.3172
-5.2652
-4.86712
-4.19926
-3.41458
-2.6386
-1.93329
-1.31099
-0.757491
-0.247572
0.364415
1.05211
1.63372
2.06796
2.34451
2.49465
2.55845
2.56708
2.5554
2.55169
2.56417
2.58256
2.59208
2.58439
2.54677
2.4703
2.36585
2.24865
2.12899
2.02135
1.93761
1.87812
1.83239
1.78833
1.73949
1.67821
1.60079
1.51748
1.44109
1.37513
1.31319
1.24626
1.16875
1.07318
0.953627
0.81328
0.65712
0.487086
0.305644
0.113865
-0.0910321
-0.314509
-0.561772
-0.834997
-1.13406
-1.46023
-1.819
-2.2167
-2.66123
-3.16654
-3.73983
-4.36321
-4.9817
-5.50922
-5.83241
-5.8028
-5.33487
-4.53519
-3.61908
-2.74603
-1.98147
-1.32837
-0.761817
-0.248073
0.412012
1.18375
1.82655
2.29151
2.56513
2.69505
2.73396
2.71408
2.67838
2.66321
2.67675
2.70162
2.71656
2.71454
2.67784
2.59098
2.4711
2.33874
2.20305
2.08274
1.99437
1.93793
1.89801
1.85815
1.81275
1.75127
1.66654
1.57436
1.4939
1.42976
1.37212
1.30863
1.23443
1.13982
1.01582
0.868564
0.705635
0.52844
0.340533
0.144039
-0.064577
-0.292601
-0.546901
-0.829578
-1.13907
-1.47579
-1.84719
-2.26077
-2.72547
-3.26372
-3.89293
-4.5997
-5.32214
-5.96195
-6.38888
-6.39616
-5.84215
-4.8775
-3.80685
-2.82915
-2.00738
-1.32936
-0.756419
-0.245378
0.46614
1.33098
2.04036
2.53691
2.79987
2.90174
2.91152
2.85726
2.7926
2.7651
2.78255
2.81711
2.8384
2.84473
2.81149
2.71184
2.57381
2.42543
2.27133
2.13616
2.04337
1.99239
1.96075
1.92583
1.88546
1.82498
1.73065
1.62682
1.54172
1.48093
1.42944
1.37005
1.30062
1.2084
1.07914
0.924026
0.754391
0.56976
0.37532
0.174901
-0.0360658
-0.267304
-0.527985
-0.819959
-1.13935
-1.48494
-1.86717
-2.29445
-2.77474
-3.34163
-4.0265
-4.82326
-5.66135
-6.4301
-6.9904
-7.05639
-6.39516
-5.22237
-3.97105
-2.88285
-2.00839
-1.31293
-0.741035
-0.239455
0.528058
1.49527
2.27701
2.8069
3.04872
3.11331
3.091
2.99575
2.8962
2.85574
2.88113
2.92955
2.95719
2.97522
2.94933
2.83322
2.6736
2.5092
2.33376
2.18085
2.08391
2.04155
2.02126
1.99137
1.95804
1.90059
1.79339
1.67416
1.58376
1.52846
1.48545
1.43031
1.36737
1.27959
1.1436
0.979263
0.803287
0.610761
0.409493
0.206013
-0.00573291
-0.238657
-0.505161
-0.806613
-1.13565
-1.48815
-1.87947
-2.31864
-2.80876
-3.39828
-4.13732
-5.0308
-5.99621
-6.90929
-7.64038
-7.79771
-7.00133
-5.56403
-4.1034
-2.90188
-1.9823
-1.27855
-0.715702
-0.230371
0.599516
1.67804
2.53815
3.10491
3.31119
3.32763
3.27272
3.12877
2.9871
2.93331
2.97222
3.03995
3.0721
3.10608
3.09361
2.95532
2.76968
2.59084
2.39035
2.21584
2.11513
2.08552
2.08044
2.05453
2.03078
1.97977
1.85505
1.71545
1.61912
1.57221
1.5407
1.48902
1.43463
1.35434
1.20917
1.0337
0.852337
0.65118
0.44248
0.23691
0.0262047
-0.206618
-0.478501
-0.790034
-1.12887
-1.48584
-1.88462
-2.33473
-2.82754
-3.43179
-4.22194
-5.21931
-6.32367
-7.39269
-8.34126
-8.63848
-7.66963
-5.89398
-4.19414
-2.8811
-1.9275
-1.2262
-0.680769
-0.218289
0.683039
1.88044
2.82496
3.43545
3.58619
3.54161
3.45776
3.25569
3.06292
2.99576
3.05569
3.15002
3.18177
3.23708
3.2475
3.07805
2.86071
2.67164
2.44119
2.23997
2.136
2.12445
2.13967
2.11465
2.10378
2.06481
1.9159
1.74946
1.64669
1.6121
1.59608
1.54551
1.50222
1.43403
1.27571
1.08649
0.901748
0.690788
0.473632
0.267107
0.0595445
-0.171039
-0.447992
-0.770725
-1.1201
-1.47835
-1.88305
-2.34472
-2.83142
-3.44033
-4.27665
-5.38605
-6.64129
-7.87018
-9.09385
-9.60256
-8.41071
-6.19991
-4.23201
-2.81577
-1.8432
-1.15644
-0.636884
-0.203465
0.782365
2.10324
3.13785
3.80469
3.87175
3.75076
3.64838
3.37597
3.12091
3.04078
3.13153
3.26251
3.28391
3.36754
3.41546
3.20096
2.94449
2.75369
2.48642
2.25179
2.14527
2.1586
2.20097
2.17051
2.17685
2.15885
1.97611
1.77462
1.66517
1.64811
1.65303
1.59868
1.56974
1.52066
1.34291
1.13647
0.952032
0.729383
0.502195
0.296107
0.0940898
-0.131653
-0.413521
-0.749179
-1.11068
-1.46582
-1.87496
-2.35137
-2.821
-3.4222
-4.2974
-5.52864
-6.94806
-8.32739
-9.8962
-10.7211
-9.23719
-6.46439
-4.20443
-2.70201
-1.72953
-1.0704
-0.584965
-0.186229
0.903082
2.34656
3.47596
4.22119
4.16472
3.94879
3.84864
3.48916
3.15787
3.06576
3.1998
3.38166
3.37502
3.49608
3.60382
3.32293
3.01767
2.84024
2.52622
2.24956
2.14147
2.18818
2.26728
2.22004
2.24929
2.26619
2.03568
1.78896
1.67308
1.68021
1.71376
1.64685
1.63644
1.6171
1.41021
1.18193
1.00416
0.766771
0.527279
0.32341
0.129634
-0.0880534
-0.37487
-0.725843
-1.10234
-1.44812
-1.86011
-2.35845
-2.79712
-3.37589
-4.27961
-5.6451
-7.24566
-8.74458
-10.7421
-12.0349
-10.1638
-6.66308
-4.09798
-2.5372
-1.5877
-0.969771
-0.526155
-0.166971
1.05354
2.60961
3.83643
4.69697
4.4603
4.12696
4.06523
3.59467
3.17009
3.06779
3.26046
3.51383
3.44979
3.62028
3.82152
3.44192
3.07528
2.93621
2.56067
2.23113
2.12286
2.21333
2.34291
2.26001
2.31977
2.39276
2.09421
1.79001
1.66875
1.70836
1.78155
1.68744
1.70109
1.72747
1.47664
1.22052
1.05977
0.802729
0.547823
0.348544
0.165938
-0.0396758
-0.331705
-0.701058
-1.09734
-1.42479
-1.83756
-2.37099
-2.76075
-3.3002
-4.21794
-5.73374
-7.54007
-9.09531
-11.6192
-13.5971
-11.2075
-6.76261
-3.89907
-2.32049
-1.42001
-0.856695
-0.461758
-0.146116
1.2461
2.89027
4.21354
5.24895
4.75151
4.27332
4.30849
3.6915
3.15329
3.04364
3.31311
3.66828
3.50056
3.73633
4.08106
3.55456
3.11025
3.0489
2.58955
2.19394
2.0875
2.23393
2.43402
2.28561
2.38599
2.54664
2.15069
1.77485
1.65039
1.73232
1.86117
1.71674
1.76179
1.85751
1.54063
1.249
1.12147
0.836927
0.562552
0.371108
0.202689
0.0142275
-0.283589
-0.674974
-1.09863
-1.39494
-1.80534
-2.39569
-2.71273
-3.19436
-4.1061
-5.79282
-7.8438
-9.34506
-12.5061
-15.4771
-12.3872
-6.71799
-3.59526
-2.0533
-1.22984
-0.733682
-0.393173
-0.124106
1.49876
3.18461
4.59743
5.90072
5.02842
4.37178
4.59384
3.77772
3.10258
2.9899
3.35653
3.85825
3.51649
3.83849
4.39968
3.65563
3.11274
3.18883
2.61202
2.135
2.03324
2.24929
2.54933
2.28999
2.44444
2.73879
2.20307
1.74002
1.61615
1.75143
1.95941
1.72943
1.81574
2.01523
1.59979
1.26296
1.19317
0.868808
0.569933
0.390825
0.239455
0.0746158
-0.230012
-0.647421
-1.11017
-1.35718
-1.75997
-2.4414
-2.6535
-3.05839
-3.93649
-5.81987
-8.1787
-9.4497
-13.3697
-17.7649
-13.7239
-6.46944
-3.17694
-1.73971
-1.02152
-0.603471
-0.321818
-0.101375
1.83731
3.48626
4.97263
6.68482
5.27728
4.40096
4.94348
3.84974
3.0125
2.90307
3.38807
4.10227
3.48265
3.9185
4.80088
3.73741
3.06936
3.37091
2.62612
2.0509
1.95786
2.25777
2.70095
2.26358
2.49
2.98392
2.24779
1.68165
1.56425
1.76433
2.08573
1.71819
1.85896
2.21152
1.65054
1.25658
1.28055
0.897413
0.568138
0.407631
0.275609
0.142699
-0.170439
-0.617719
-1.13715
-1.30954
-1.69598
-2.51981
-2.58261
-2.89337
-3.69997
-5.81058
-8.57938
-9.35392
-14.1604
-20.5763
-15.2397
-5.93885
-2.63975
-1.38668
-0.800118
-0.468877
-0.249068
-0.0783326
2.29799
3.78571
5.31617
7.64554
5.47935
4.33294
5.38844
3.90128
2.87716
2.77985
3.40272
4.4258
3.37893
3.96483
5.31607
3.78888
2.96232
3.61577
2.62815
1.93787
1.85922
2.25619
2.90547
2.19345
2.51548
3.30148
2.27905
1.59549
1.49315
1.76846
2.2531
1.67308
1.88598
2.46098
1.68779
1.22222
1.39163
0.921125
0.555014
0.421777
0.310243
0.21999
-0.104403
-0.584437
-1.18642
-1.24952
-1.60522
-2.64623
-2.49806
-2.70205
-3.38564
-5.7572
-9.09737
-8.98974
-14.8077
-24.0594
-16.9572
-5.02571
-1.98773
-1.00402
-0.571134
-0.332643
-0.176192
-0.0553502
2.93066
4.06943
5.5953
8.84216
5.60954
4.13176
5.97114
3.92193
2.69044
2.61749
3.392
4.86314
3.1788
3.96181
5.98669
3.79478
2.76846
3.95138
2.6117
1.79197
1.73548
2.23909
3.1852
2.06245
2.51116
3.71695
2.288
1.47717
1.40182
1.75947
2.47898
1.58091
1.88943
2.78288
1.70438
1.1501
1.53742
0.937344
0.528067
0.433962
0.342046
0.308376
-0.0316339
-0.545072
-1.26684
-1.17404
-1.47606
-2.84065
-2.39544
-2.48944
-2.98071
-5.64628
-9.80585
-8.27515
-15.2143
-28.4011
-18.8981
-3.60268
-1.23724
-0.604042
-0.340142
-0.197303
-0.104313
-0.0327481
3.80263
4.31885
5.76494
10.3528
5.63482
3.75185
6.74819
3.89544
2.44639
2.41433
3.34237
5.45975
2.84794
3.88871
6.86637
3.73452
2.45819
4.41491
2.56658
1.60931
1.58548
2.19771
3.56966
1.84835
2.46423
4.2632
2.26161
1.32244
1.29
1.73042
2.78641
1.42456
1.85965
3.20218
1.69061
1.0279
1.73265
0.942062
0.484478
0.445488
0.369162
0.410211
0.0477525
-0.495654
-1.38981
-1.07954
-1.29248
-3.12889
-2.26682
-2.26368
-2.47056
-5.45574
-10.805
-7.11297
-15.25
-33.8358
-21.0817
-1.5109
-0.421632
-0.200679
-0.112406
-0.0650729
-0.0343749
-0.0107904
)
;

boundaryField
{
    left
    {
        type            calculated;
        value           uniform 0;
    }
    right
    {
        type            calculated;
        value           uniform 0;
    }
    interface
    {
        type            calculated;
        value           nonuniform List<scalar> 
64
(
3.80263
4.31885
5.76494
10.3528
5.63482
3.75185
6.74819
3.89544
2.44639
2.41433
3.34237
5.45975
2.84794
3.88871
6.86637
3.73452
2.45819
4.41491
2.56658
1.60931
1.58548
2.19771
3.56966
1.84835
2.46423
4.2632
2.26161
1.32244
1.29
1.73042
2.78641
1.42456
1.85965
3.20218
1.69061
1.0279
1.73265
0.942062
0.484478
0.445488
0.369162
0.410211
0.0477525
-0.495654
-1.38981
-1.07954
-1.29248
-3.12889
-2.26682
-2.26368
-2.47056
-5.45574
-10.805
-7.11297
-15.25
-33.8358
-21.0817
-1.5109
-0.421632
-0.200679
-0.112406
-0.0650729
-0.0343749
-0.0107904
)
;
    }
    bottom
    {
        type            calculated;
        value           nonuniform List<scalar> 
64
(
0.00629673
0.0187097
0.0305981
0.0416639
0.0516777
0.0604905
0.0680318
0.0742993
0.0793428
0.083245
0.0861058
0.0880294
0.0891177
0.0894677
0.0891717
0.0883188
0.0869959
0.0852864
0.0832682
0.0810097
0.0785666
0.0759799
0.0732745
0.0704606
0.0675363
0.0644897
0.0613017
0.0579469
0.0543949
0.0506102
0.046553
0.0421802
0.0374469
0.0323091
0.0267253
0.020658
0.0140753
0.00695115
-0.000733967
-0.00899167
-0.0178235
-0.0272172
-0.0371417
-0.0475397
-0.0583204
-0.0693498
-0.0804417
-0.0913504
-0.101766
-0.111318
-0.119585
-0.126118
-0.130476
-0.132266
-0.131193
-0.127094
-0.119963
-0.109952
-0.0973487
-0.0825353
-0.0659436
-0.0480132
-0.0291627
-0.0097789
)
;
    }
    defaultFaces
    {
        type            empty;
    }
}


// ************************************************************************* //
