/*--------------------------------*- C++ -*----------------------------------*\
| =========                 |                                                 |
| \\      /  F ield         | OpenFOAM: The Open Source CFD Toolbox           |
|  \\    /   O peration     | Version:  5.x                                   |
|   \\  /    A nd           | Web:      www.OpenFOAM.org                      |
|    \\/     M anipulation  |                                                 |
\*---------------------------------------------------------------------------*/
FoamFile
{
    version     2.0;
    format      ascii;
    class       volScalarField;
    location    "2";
    object      gradTy;
}
// * * * * * * * * * * * * * * * * * * * * * * * * * * * * * * * * * * * * * //

dimensions      [0 -1 0 1 0 0 0];

internalField   nonuniform List<scalar> 
2048
(
-26.4272
-26.3996
-26.3453
-26.2657
-26.1631
-26.0399
-25.8988
-25.7428
-25.5745
-25.3966
-25.2114
-25.0212
-24.8278
-24.6329
-24.438
-24.2445
-24.0534
-23.8657
-23.6821
-23.5033
-23.3296
-23.1614
-22.999
-22.8426
-22.6924
-22.5487
-22.4117
-22.2819
-22.1595
-22.0451
-21.9391
-21.8423
-21.7553
-21.679
-21.6144
-21.5623
-21.524
-21.5006
-21.4933
-21.5033
-21.5319
-21.5803
-21.6498
-21.7414
-21.8562
-21.9949
-22.1578
-22.3449
-22.5556
-22.7884
-23.041
-23.3102
-23.5916
-23.8801
-24.1695
-24.4535
-24.7252
-24.978
-25.2058
-25.4034
-25.5665
-25.6915
-25.7762
-25.8188
-26.4494
-26.4212
-26.3657
-26.2844
-26.1797
-26.0543
-25.9109
-25.7526
-25.5823
-25.4024
-25.2156
-25.0237
-24.8289
-24.6328
-24.4369
-24.2425
-24.0507
-23.8624
-23.6783
-23.4991
-23.3251
-23.1567
-22.9941
-22.8375
-22.6871
-22.5432
-22.406
-22.2758
-22.1531
-22.0382
-21.9317
-21.8343
-21.7466
-21.6696
-21.6041
-21.5512
-21.512
-21.4876
-21.4792
-21.4882
-21.5158
-21.5632
-21.6318
-21.7227
-21.8368
-21.9752
-22.1382
-22.3259
-22.5377
-22.7723
-23.0276
-23.3002
-23.5859
-23.8792
-24.174
-24.4634
-24.7404
-24.9981
-25.2302
-25.4314
-25.5972
-25.7242
-25.8101
-25.8534
-26.4921
-26.4626
-26.4047
-26.3201
-26.2114
-26.0816
-25.9338
-25.7713
-25.5969
-25.4134
-25.2232
-25.0285
-24.8311
-24.6327
-24.4347
-24.2386
-24.0454
-23.8559
-23.671
-23.4911
-23.3166
-23.1478
-22.9849
-22.828
-22.6772
-22.5329
-22.3952
-22.2644
-22.1409
-22.0252
-21.9178
-21.8192
-21.7303
-21.6518
-21.5848
-21.5302
-21.4892
-21.4629
-21.4527
-21.4597
-21.4853
-21.5309
-21.5977
-21.687
-21.8
-21.9377
-22.1007
-22.2893
-22.5032
-22.7413
-23.0016
-23.2808
-23.5745
-23.8773
-24.1823
-24.4823
-24.7695
-25.0367
-25.277
-25.4849
-25.6558
-25.7865
-25.8747
-25.9191
-26.5533
-26.5219
-26.4603
-26.3708
-26.2562
-26.1201
-25.966
-25.7973
-25.6172
-25.4285
-25.2337
-25.0348
-24.8338
-24.6321
-24.4314
-24.2329
-24.0377
-23.8466
-23.6605
-23.4797
-23.3046
-23.1353
-22.9719
-22.8145
-22.6633
-22.5184
-22.38
-22.2484
-22.1239
-22.0071
-21.8983
-21.7981
-21.7074
-21.6269
-21.5576
-21.5006
-21.4571
-21.4282
-21.4152
-21.4195
-21.4424
-21.4852
-21.5495
-21.6365
-21.7477
-21.8843
-22.0471
-22.2369
-22.4536
-22.6964
-22.9636
-23.2521
-23.5575
-23.8738
-24.1937
-24.509
-24.8113
-25.0921
-25.3442
-25.5616
-25.7397
-25.8754
-25.9668
-26.0127
-26.6316
-26.5976
-26.5313
-26.4351
-26.3128
-26.1683
-26.0059
-25.8293
-25.642
-25.4469
-25.2463
-25.0423
-24.8367
-24.6311
-24.4269
-24.2253
-24.0276
-23.8347
-23.6471
-23.4653
-23.2894
-23.1195
-22.9557
-22.7978
-22.646
-22.5003
-22.3611
-22.2285
-22.1029
-21.9846
-21.8741
-21.772
-21.679
-21.5959
-21.5239
-21.4639
-21.4171
-21.3849
-21.3685
-21.3693
-21.3886
-21.428
-21.4889
-21.5729
-21.6817
-21.8165
-21.9789
-22.1697
-22.3895
-22.638
-22.9138
-23.2141
-23.5343
-23.8682
-24.2075
-24.5429
-24.8646
-25.1632
-25.4303
-25.6597
-25.8467
-25.9885
-26.0836
-26.1312
-26.726
-26.6889
-26.6163
-26.5118
-26.3797
-26.2249
-26.0523
-25.8662
-25.6703
-25.4676
-25.2603
-25.0504
-24.8396
-24.6293
-24.4209
-24.2159
-24.0153
-23.8201
-23.6309
-23.448
-23.2713
-23.101
-22.9366
-22.7783
-22.6258
-22.4794
-22.3392
-22.2055
-22.0785
-21.9585
-21.8461
-21.7417
-21.646
-21.5599
-21.4845
-21.421
-21.3705
-21.3344
-21.3139
-21.3105
-21.3256
-21.3607
-21.4176
-21.4978
-21.6033
-21.7358
-21.8971
-22.0886
-22.3116
-22.5663
-22.852
-23.1662
-23.5043
-23.8597
-24.2229
-24.5833
-24.9291
-25.2493
-25.5345
-25.7779
-25.9751
-26.1236
-26.2227
-26.2722
-26.836
-26.7948
-26.7145
-26.5996
-26.4556
-26.2884
-26.1038
-25.9067
-25.701
-25.4897
-25.2751
-25.0587
-24.842
-24.6265
-24.4135
-24.2045
-24.0007
-23.803
-23.6121
-23.4281
-23.2508
-23.08
-22.9153
-22.7564
-22.6033
-22.4561
-22.3148
-22.1798
-22.0514
-21.9297
-21.815
-21.708
-21.6093
-21.5198
-21.4407
-21.3731
-21.3183
-21.2777
-21.2526
-21.2444
-21.2547
-21.2849
-21.3369
-21.4126
-21.5141
-21.6434
-21.8028
-21.9945
-22.2203
-22.4814
-22.7778
-23.1076
-23.4666
-23.8473
-24.2392
-24.6295
-25.0042
-25.35
-25.6563
-25.9155
-26.1235
-26.2789
-26.3819
-26.4331
-26.9612
-26.9148
-26.8252
-26.6977
-26.5394
-26.3576
-26.1591
-25.9495
-25.7331
-25.5126
-25.29
-25.0667
-24.8438
-24.6226
-24.4045
-24.1911
-23.9837
-23.7834
-23.5908
-23.4058
-23.228
-23.057
-22.892
-22.7327
-22.579
-22.4308
-22.2885
-22.1522
-22.0222
-21.8986
-21.7817
-21.6718
-21.5698
-21.4765
-21.3931
-21.321
-21.2615
-21.2159
-21.1858
-21.1723
-21.1772
-21.2019
-21.2483
-21.3187
-21.4152
-21.5404
-21.6971
-21.888
-22.1159
-22.3831
-22.6907
-23.0376
-23.42
-23.83
-24.2556
-24.6812
-25.0899
-25.4655
-25.7954
-26.0717
-26.2908
-26.4528
-26.5591
-26.6117
-27.1012
-27.0488
-26.9477
-26.8052
-26.63
-26.4312
-26.2169
-25.9936
-25.7655
-25.5354
-25.3047
-25.0742
-24.8447
-24.6175
-24.3938
-24.1756
-23.9644
-23.7613
-23.567
-23.3812
-23.2033
-23.0323
-22.8673
-22.7076
-22.5532
-22.4041
-22.2606
-22.123
-21.9914
-21.8659
-21.7466
-21.6338
-21.5281
-21.4306
-21.3426
-21.2656
-21.2009
-21.1501
-21.1144
-21.0953
-21.0942
-21.1128
-21.153
-21.2172
-21.3079
-21.428
-21.5808
-21.7698
-21.9988
-22.2713
-22.5899
-22.955
-23.3633
-23.8066
-24.2711
-24.7381
-25.1864
-25.596
-25.9521
-26.2462
-26.4761
-26.6437
-26.7524
-26.8058
-27.2564
-27.1965
-27.0817
-26.9212
-26.7261
-26.5078
-26.2759
-26.0376
-25.7974
-25.5575
-25.3187
-25.081
-24.8448
-24.6111
-24.3815
-24.158
-23.9426
-23.7367
-23.5408
-23.3545
-23.1768
-23.0062
-22.8414
-22.6815
-22.5264
-22.3762
-22.2315
-22.0925
-21.9595
-21.8321
-21.7104
-21.5944
-21.4849
-21.3829
-21.2899
-21.2075
-21.1374
-21.0809
-21.0395
-21.0143
-21.0068
-21.0188
-21.0522
-21.1094
-21.1934
-21.3073
-21.4549
-21.6405
-21.8691
-22.1458
-22.4748
-22.8586
-23.295
-23.7758
-24.285
-24.8001
-25.2942
-25.7425
-26.1269
-26.439
-26.6785
-26.8499
-26.9596
-27.0129
-27.4269
-27.3579
-27.2267
-27.0448
-26.8267
-26.5861
-26.3347
-26.0804
-25.8278
-25.5783
-25.3316
-25.0869
-24.8439
-24.6034
-24.3674
-24.1381
-23.9182
-23.7094
-23.5122
-23.3259
-23.1489
-22.9791
-22.8148
-22.6548
-22.4989
-22.3476
-22.2015
-22.0612
-21.9268
-21.7978
-21.6736
-21.5544
-21.4407
-21.3339
-21.2355
-21.1475
-21.0716
-21.0092
-20.9617
-20.9303
-20.9161
-20.9209
-20.9469
-20.9965
-21.0728
-21.1794
-21.3204
-21.501
-21.7274
-22.0063
-22.3446
-22.747
-23.2133
-23.7357
-24.2962
-24.8671
-25.4143
-25.906
-26.3207
-26.6502
-26.8971
-27.07
-27.1786
-27.2308
-27.6132
-27.5334
-27.3824
-27.1754
-26.9304
-26.6647
-26.3919
-26.1208
-25.8558
-25.5972
-25.3433
-25.0919
-24.8422
-24.5947
-24.3515
-24.116
-23.8912
-23.6794
-23.4811
-23.2953
-23.1197
-22.9514
-22.7879
-22.6278
-22.4711
-22.3184
-22.1708
-22.0294
-21.8938
-21.7632
-21.6368
-21.5142
-21.3962
-21.2841
-21.1799
-21.0859
-21.004
-20.9356
-20.882
-20.844
-20.8229
-20.8202
-20.8381
-20.8794
-20.9472
-21.0453
-21.1784
-21.3522
-21.574
-21.8529
-22.1984
-22.6186
-23.1163
-23.6845
-24.3034
-24.939
-25.5478
-26.0884
-26.5347
-26.88
-27.1312
-27.3022
-27.4071
-27.4567
-27.8159
-27.7231
-27.5487
-27.312
-27.036
-26.7422
-26.4461
-26.1576
-25.8806
-25.6138
-25.3536
-25.0962
-24.8398
-24.5849
-24.3341
-24.0914
-23.8614
-23.6465
-23.4475
-23.2629
-23.0896
-22.9234
-22.7611
-22.601
-22.4432
-22.2888
-22.1396
-21.997
-21.8606
-21.7288
-21.6003
-21.4744
-21.3518
-21.234
-21.1236
-21.0233
-20.9352
-20.8607
-20.8008
-20.7563
-20.728
-20.7175
-20.7268
-20.7591
-20.8177
-20.9063
-21.0299
-21.1949
-21.4098
-21.6856
-22.0355
-22.472
-23.0018
-23.62
-24.3051
-25.0161
-25.6964
-26.2917
-26.7706
-27.1287
-27.3798
-27.5447
-27.6428
-27.6882
-28.036
-27.9275
-27.7253
-27.4537
-27.1421
-26.8168
-26.4959
-26.1896
-25.9014
-25.6279
-25.3628
-25.1
-24.8371
-24.5745
-24.315
-24.0644
-23.8286
-23.6106
-23.4113
-23.2288
-23.0587
-22.8955
-22.7347
-22.5747
-22.4156
-22.2591
-22.108
-21.9643
-21.8275
-21.6951
-21.5646
-21.4354
-21.3079
-21.184
-21.067
-20.96
-20.8655
-20.7848
-20.7188
-20.6678
-20.6323
-20.6135
-20.6139
-20.6367
-20.6852
-20.7635
-20.8762
-21.0304
-21.2354
-21.5046
-21.8552
-22.3054
-22.8673
-23.5394
-24.2995
-25.0985
-25.8625
-26.519
-27.0302
-27.3967
-27.6419
-27.7954
-27.883
-27.9224
-28.2745
-28.1472
-27.912
-27.5995
-27.2471
-26.8872
-26.5397
-26.2156
-25.9175
-25.6392
-25.3709
-25.1037
-24.8345
-24.5637
-24.2945
-24.0348
-23.7926
-23.5715
-23.3723
-23.1929
-23.0273
-22.8681
-22.7094
-22.5493
-22.3885
-22.2292
-22.0757
-21.9313
-21.7947
-21.6622
-21.5302
-21.3976
-21.265
-21.1344
-21.0101
-20.8962
-20.7952
-20.7084
-20.6365
-20.5791
-20.5363
-20.5092
-20.5002
-20.5129
-20.5509
-20.6179
-20.7184
-20.8598
-21.0521
-21.3105
-21.6572
-22.1172
-22.7103
-23.4397
-24.2841
-25.1863
-26.0489
-26.7737
-27.3157
-27.6843
-27.9162
-28.0523
-28.1252
-28.1565
-28.5325
-28.3828
-28.1088
-27.7484
-27.3493
-26.9515
-26.5762
-26.2343
-25.9282
-25.6477
-25.3783
-25.1077
-24.8324
-24.5529
-24.2726
-24.0023
-23.7533
-23.5289
-23.3303
-23.1554
-22.9959
-22.8418
-22.6854
-22.5252
-22.3623
-22.1993
-22.0428
-21.8978
-21.7624
-21.6307
-21.4974
-21.3614
-21.2234
-21.0855
-20.9532
-20.8322
-20.7247
-20.6319
-20.5543
-20.4909
-20.4409
-20.405
-20.3862
-20.3885
-20.4156
-20.4707
-20.5579
-20.6847
-20.8611
-21.1039
-21.441
-21.9059
-22.5281
-23.3173
-24.2557
-25.2797
-26.2595
-27.0603
-27.6297
-27.9915
-28.2012
-28.3129
-28.3668
-28.3879
-28.8115
-28.635
-28.3157
-27.8993
-27.4468
-27.0083
-26.6038
-26.2445
-25.9329
-25.6535
-25.3857
-25.1125
-24.8312
-24.5428
-24.2495
-23.9667
-23.7103
-23.4827
-23.2851
-23.1161
-22.9646
-22.8171
-22.6633
-22.5026
-22.3372
-22.1692
-22.0087
-21.8638
-21.7307
-21.6009
-21.4666
-21.3271
-21.1836
-21.0375
-20.8964
-20.768
-20.654
-20.5554
-20.4726
-20.4035
-20.3465
-20.3017
-20.2726
-20.2641
-20.2801
-20.3229
-20.3958
-20.5064
-20.6641
-20.8861
-21.2067
-21.6699
-22.3179
-23.1681
-24.2103
-25.3784
-26.4994
-27.3842
-27.9746
-28.3181
-28.4949
-28.5746
-28.6049
-28.6138
-29.113
-28.9043
-28.5326
-28.0506
-27.5373
-27.0558
-26.6214
-26.2449
-25.9311
-25.6566
-25.3938
-25.1187
-24.8314
-24.5341
-24.2253
-23.9275
-23.6635
-23.4325
-23.2361
-23.0751
-22.9339
-22.7948
-22.6436
-22.482
-22.3136
-22.139
-21.9731
-21.8289
-21.6997
-21.5732
-21.4382
-21.2952
-21.1461
-20.9906
-20.8395
-20.7038
-20.5834
-20.4791
-20.3917
-20.3176
-20.2538
-20.1998
-20.1599
-20.1402
-20.1452
-20.1757
-20.2333
-20.3265
-20.463
-20.6582
-20.9544
-21.4077
-22.0769
-22.9876
-24.142
-25.4822
-26.7753
-27.752
-28.3531
-28.6634
-28.795
-28.8346
-28.8369
-28.8316
-29.4391
-29.1913
-28.76
-28.2011
-27.6182
-27.0928
-26.6278
-26.234
-25.9222
-25.6576
-25.4037
-25.1268
-24.8334
-24.5279
-24.2002
-23.8839
-23.6127
-23.3783
-23.183
-23.0324
-22.9042
-22.7756
-22.6265
-22.4635
-22.2922
-22.1085
-21.9352
-21.7928
-21.6695
-21.5483
-21.4124
-21.2657
-21.1114
-20.9449
-20.7824
-20.6396
-20.513
-20.403
-20.3119
-20.2336
-20.1635
-20.0998
-20.0485
-20.0174
-20.0117
-20.03
-20.0714
-20.1467
-20.2599
-20.422
-20.6847
-21.1181
-21.8029
-22.771
-24.0435
-25.5899
-27.096
-28.1712
-28.7675
-29.026
-29.0986
-29.0901
-29.0601
-29.039
-29.7917
-29.4961
-28.9984
-28.3491
-27.6861
-27.1183
-26.6221
-26.2101
-25.9059
-25.6567
-25.4169
-25.1373
-24.8374
-24.5255
-24.1743
-23.8348
-23.5582
-23.3199
-23.1248
-22.9878
-22.8758
-22.7606
-22.6125
-22.4472
-22.2738
-22.0777
-21.8939
-21.7552
-21.6404
-21.5269
-21.3895
-21.2388
-21.0801
-20.9006
-20.7245
-20.5756
-20.4429
-20.3272
-20.2336
-20.1518
-20.0759
-20.0021
-19.9385
-19.8957
-19.8799
-19.8868
-19.911
-19.9684
-20.0577
-20.1794
-20.3987
-20.7997
-21.4942
-22.5139
-23.9043
-25.6997
-27.4736
-28.6509
-29.2195
-29.4034
-29.4025
-29.338
-29.2723
-29.2339
-30.1734
-29.8181
-29.2492
-28.4927
-27.7368
-27.1319
-26.6039
-26.1711
-25.8821
-25.6545
-25.4355
-25.1505
-24.8429
-24.5291
-24.1478
-23.7784
-23.5002
-23.2576
-23.0604
-22.9414
-22.8491
-22.7511
-22.6017
-22.4329
-22.2595
-22.0464
-21.8476
-21.7155
-21.6123
-21.5101
-21.3697
-21.2142
-21.0534
-20.8578
-20.665
-20.5118
-20.3734
-20.2513
-20.1569
-20.0728
-19.9919
-19.9071
-19.8303
-19.7752
-19.7505
-19.7472
-19.7526
-19.7931
-19.8593
-19.9327
-20.0977
-20.4509
-21.15
-22.2121
-23.7104
-25.808
-27.9242
-29.2014
-29.7098
-29.7923
-29.7028
-29.5754
-29.471
-29.4145
-30.5874
-30.1556
-29.5149
-28.6299
-27.7646
-27.1343
-26.5734
-26.114
-25.8508
-25.6512
-25.4623
-25.1662
-24.8491
-24.5418
-24.1208
-23.7119
-23.4398
-23.1918
-22.9881
-22.8934
-22.8243
-22.7492
-22.594
-22.4198
-22.2513
-22.0144
-21.7942
-21.6737
-21.5852
-21.4992
-21.3528
-21.1915
-21.0326
-20.8164
-20.6027
-20.4489
-20.3046
-20.175
-20.0821
-19.9967
-19.9122
-19.8151
-19.7239
-19.6558
-19.6239
-19.6124
-19.5963
-19.622
-19.6685
-19.6841
-19.7839
-20.0698
-20.7706
-21.8633
-23.4428
-25.9092
-28.4704
-29.8336
-30.2375
-30.188
-29.9953
-29.7993
-29.6545
-29.5795
-31.0376
-30.5048
-29.7996
-28.7588
-27.7617
-27.1277
-26.5314
-26.0347
-25.8128
-25.6467
-25.5014
-25.1838
-24.8539
-24.5682
-24.0934
-23.6312
-23.3789
-23.1233
-22.9052
-22.8442
-22.8014
-22.7573
-22.5892
-22.4066
-22.2521
-21.9817
-21.7307
-21.6297
-21.5591
-21.4963
-21.3386
-21.1695
-21.0199
-20.7765
-20.5357
-20.3875
-20.237
-20.0974
-20.0096
-19.9239
-19.8375
-19.7264
-19.6192
-19.5371
-19.5002
-19.4842
-19.4416
-19.4557
-19.4898
-19.4357
-19.4602
-19.653
-20.3583
-21.4683
-23.0756
-25.9942
-29.1431
-30.5591
-30.7995
-30.5848
-30.2755
-30.007
-29.8213
-29.7279
-31.5296
-30.8588
-30.1104
-28.8771
-27.7174
-27.1169
-26.4796
-25.9273
-25.77
-25.64
-25.5584
-25.2022
-24.8534
-24.6151
-24.0658
-23.53
-23.3211
-23.0533
-22.8079
-22.7951
-22.7797
-22.7793
-22.5862
-22.3908
-22.2661
-21.9483
-21.6527
-21.584
-21.5333
-21.5045
-21.3264
-21.1463
-21.0185
-20.7381
-20.461
-20.329
-20.171
-20.0173
-19.94
-19.8544
-19.7689
-19.6412
-19.5162
-19.4185
-19.3795
-19.3645
-19.2872
-19.2943
-19.329
-19.1891
-19.1311
-19.1954
-19.9173
-21.0331
-22.5741
-26.0493
-29.9854
-31.3883
-31.3896
-30.9752
-30.5389
-30.1962
-29.9701
-29.859
-32.0706
-31.206
-30.4586
-28.9824
-27.6163
-27.1103
-26.4211
-25.7832
-25.7261
-25.6286
-25.6418
-25.219
-24.8415
-24.6926
-24.038
-23.3989
-23.2718
-22.984
-22.6905
-22.7482
-22.7574
-22.8206
-22.5836
-22.3684
-22.2997
-21.914
-21.5543
-21.5384
-21.5063
-21.5279
-21.3149
-21.1186
-21.0331
-20.701
-20.3744
-20.2757
-20.1075
-19.9328
-19.8743
-19.788
-19.7077
-19.5594
-19.4148
-19.2988
-19.2616
-19.2566
-19.1308
-19.1371
-19.1935
-18.9446
-18.8034
-18.6887
-19.4538
-20.5715
-21.8915
-26.0539
-31.0566
-32.329
-31.9981
-31.3512
-30.7809
-30.3649
-30.1003
-29.9726
-32.6711
-31.5271
-30.8614
-29.0726
-27.4372
-27.1212
-26.3601
-25.5897
-25.6878
-25.6071
-25.7633
-25.2308
-24.8083
-24.815
-24.0098
-23.2246
-23.2399
-22.9183
-22.5446
-22.708
-22.731
-22.8888
-22.5792
-22.333
-22.3621
-21.8787
-21.4273
-21.4963
-21.4754
-21.5728
-21.3024
-21.0816
-21.0708
-20.665
-20.2697
-20.2314
-20.0474
-19.8407
-19.8141
-19.7238
-19.6557
-19.4808
-19.3151
-19.1768
-19.1458
-19.165
-18.9684
-18.9821
-19.0932
-18.7005
-18.4871
-18.1196
-18.9763
-20.1098
-20.9661
-25.978
-32.4389
-33.3834
-32.6109
-31.7035
-30.9976
-30.5116
-30.2116
-30.069
-33.346
-31.7928
-31.345
-29.1453
-27.1503
-27.1704
-26.3025
-25.3284
-25.6666
-25.5659
-25.9398
-25.2325
-24.7391
-25.0032
-23.9812
-22.9876
-23.2387
-22.8599
-22.358
-22.6818
-22.694
-22.995
-22.5694
-22.2751
-22.4667
-21.8421
-21.2601
-21.4638
-21.4355
-21.648
-21.2861
-21.0279
-21.1414
-20.6296
-20.1383
-20.2017
-19.9918
-19.7369
-19.7622
-19.6606
-19.6153
-19.4049
-19.2173
-19.0507
-19.0306
-19.0962
-18.7948
-18.8253
-19.0413
-18.4514
-18.1979
-17.4679
-18.495
-19.6917
-19.7164
-25.7786
-34.2448
-34.5436
-33.2092
-32.0229
-31.1855
-30.6355
-30.3042
-30.1485
-34.1162
-31.9588
-31.9478
-29.1984
-26.7144
-27.2883
-26.2557
-24.9734
-25.6813
-25.4887
-26.1953
-25.217
-24.6123
-25.2862
-23.9515
-22.6613
-23.288
-22.8138
-22.1133
-22.6815
-22.6357
-23.1547
-22.5495
-22.1809
-22.6322
-21.8036
-21.0373
-21.4511
-21.3782
-21.7658
-21.2623
-20.9468
-21.259
-20.5942
-19.9682
-20.1951
-19.9423
-19.6152
-19.7226
-19.5956
-19.5899
-19.3305
-19.122
-18.9184
-18.9136
-19.0598
-18.6022
-18.6605
-19.0563
-18.1863
-17.9591
-16.7036
-18.0207
-19.3845
-18.0367
-25.3956
-36.6269
-35.7855
-33.77
-32.3004
-31.342
-30.7363
-30.3785
-30.212
-35.0112
-31.9608
-32.725
-29.2297
-26.0733
-27.5184
-26.2293
-24.4879
-25.761
-25.3492
-26.5631
-25.1749
-24.3976
-25.7041
-23.9199
-22.2088
-23.4156
-22.7863
-21.7863
-22.726
-22.5386
-23.3899
-22.5132
-22.0308
-22.8842
-21.7623
-20.7377
-21.4744
-21.2899
-21.9439
-21.2258
-20.8233
-21.443
-20.5575
-19.743
-20.2239
-19.9004
-19.467
-19.7018
-19.5247
-19.5843
-19.2556
-19.0306
-18.7773
-18.7907
-19.0692
-18.3802
-18.4783
-19.1634
-17.8859
-17.8058
-15.784
-17.5636
-19.2883
-15.7913
-24.7456
-39.7907
-37.0612
-34.2666
-32.5281
-31.4658
-30.8144
-30.4355
-30.2604
-36.0719
-31.7077
-33.7537
-29.2367
-25.1516
-27.9215
-26.2342
-23.8216
-25.9498
-25.1072
-27.0892
-25.0938
-24.0526
-26.3109
-23.8848
-21.5804
-23.6606
-22.7849
-21.3437
-22.8439
-22.3765
-23.7307
-22.4522
-21.7979
-23.2576
-21.7163
-20.3331
-21.5583
-21.1493
-22.2062
-21.1698
-20.6368
-21.7201
-20.5177
-19.4409
-20.3054
-19.8678
-19.2806
-19.7097
-19.4412
-19.6051
-19.1772
-18.9451
-18.6245
-18.6556
-19.1431
-18.1152
-18.2649
-19.3975
-17.5188
-17.7889
-14.6498
-17.1303
-19.5452
-12.8081
-23.716
-44.0088
-38.2879
-34.671
-32.7005
-31.5564
-30.8707
-30.4763
-30.295
-37.3542
-31.0733
-35.1398
-29.2168
-23.8497
-28.5799
-26.2834
-22.9059
-26.312
-24.703
-27.8362
-24.9577
-23.5207
-27.1785
-23.8438
-20.7105
-24.076
-22.8183
-20.74
-23.0771
-22.1101
-24.2181
-22.3556
-21.4456
-23.7988
-21.6628
-19.7863
-21.7386
-20.9254
-22.5855
-21.0856
-20.3596
-22.1252
-20.4722
-19.0331
-20.4633
-19.846
-19.0402
-19.76
-19.3351
-19.6615
-19.0905
-18.869
-18.457
-18.4987
-19.307
-17.7899
-18.0011
-19.8062
-17.0368
-17.9816
-13.2206
-16.7202
-20.3508
-8.87211
-22.1564
-49.639
-39.3349
-34.9568
-32.8145
-31.615
-30.9067
-30.5023
-30.317
-38.9329
-29.887
-37.0253
-29.1665
-22.0382
-29.6033
-26.3911
-21.6497
-26.9391
-24.0511
-28.8877
-24.7467
-22.7263
-28.4004
-23.7933
-19.5141
-24.7324
-22.8963
-19.9152
-23.485
-21.6833
-24.9069
-22.2099
-20.9259
-24.5682
-21.5971
-19.0486
-22.0658
-20.573
-23.1256
-20.9617
-19.9549
-22.7046
-20.4168
-18.4823
-20.7291
-19.836
-18.7249
-19.8724
-19.1919
-19.7658
-18.9883
-18.807
-18.2715
-18.3061
-19.5942
-17.382
-17.6596
-20.4539
-16.3683
-18.4854
-11.3907
-16.3213
-21.9674
-3.71744
-19.8687
-57.144
-40.0068
-35.1044
-32.8704
-31.6433
-30.9241
-30.5149
-30.3276
)
;

boundaryField
{
    left
    {
        type            calculated;
        value           nonuniform List<scalar> 
32
(
-26.4272
-26.4494
-26.4921
-26.5533
-26.6316
-26.726
-26.836
-26.9612
-27.1012
-27.2564
-27.4269
-27.6132
-27.8159
-28.036
-28.2745
-28.5325
-28.8115
-29.113
-29.4391
-29.7917
-30.1734
-30.5874
-31.0376
-31.5296
-32.0706
-32.6711
-33.346
-34.1162
-35.0112
-36.0719
-37.3542
-38.9329
)
;
    }
    right
    {
        type            calculated;
        value           nonuniform List<scalar> 
32
(
-25.8188
-25.8534
-25.9191
-26.0127
-26.1312
-26.2722
-26.4331
-26.6117
-26.8058
-27.0129
-27.2308
-27.4567
-27.6882
-27.9224
-28.1565
-28.3879
-28.6138
-28.8316
-29.039
-29.2339
-29.4145
-29.5795
-29.7279
-29.859
-29.9726
-30.069
-30.1485
-30.212
-30.2604
-30.295
-30.317
-30.3276
)
;
    }
    interface
    {
        type            calculated;
        value           nonuniform List<scalar> 
64
(
-39.8071
-29.1315
-38.1133
-29.1333
-20.9868
-30.2218
-26.4615
-20.9235
-27.3322
-23.6507
-29.5015
-24.6197
-22.2529
-29.1132
-23.7652
-18.8223
-25.1308
-22.9478
-19.4389
-23.7413
-21.4216
-25.3095
-22.1229
-20.6174
-25.0185
-21.5606
-18.6252
-22.2735
-20.3581
-23.442
-20.8883
-19.7155
-23.0443
-20.386
-18.1659
-20.8935
-19.834
-18.5456
-19.947
-19.1088
-19.8318
-18.9322
-18.7802
-18.1738
-18.1987
-19.7734
-17.1544
-17.4656
-20.8466
-15.9768
-18.8298
-10.3605
-16.1222
-23.0158
-0.798827
-18.5149
-61.4302
-40.2201
-35.1418
-32.8841
-31.6502
-30.9283
-30.518
-30.3302
)
;
    }
    bottom
    {
        type            calculated;
        value           nonuniform List<scalar> 
64
(
-26.4214
-26.394
-26.34
-26.2609
-26.1588
-26.0361
-25.8956
-25.7402
-25.5724
-25.395
-25.2103
-25.0205
-24.8274
-24.6329
-24.4383
-24.245
-24.0541
-23.8666
-23.6831
-23.5044
-23.3308
-23.1626
-23.0003
-22.8439
-22.6938
-22.5501
-22.4133
-22.2835
-22.1612
-22.0469
-21.9411
-21.8444
-21.7576
-21.6815
-21.617
-21.5652
-21.5272
-21.504
-21.4969
-21.5072
-21.5361
-21.5847
-21.6544
-21.7463
-21.8612
-22
-22.1629
-22.3499
-22.5602
-22.7925
-23.0445
-23.3127
-23.593
-23.8803
-24.1684
-24.4509
-24.7212
-24.9727
-25.1995
-25.3962
-25.5585
-25.683
-25.7673
-25.8099
)
;
    }
    defaultFaces
    {
        type            empty;
    }
}


// ************************************************************************* //
