/*--------------------------------*- C++ -*----------------------------------*\
| =========                 |                                                 |
| \\      /  F ield         | OpenFOAM: The Open Source CFD Toolbox           |
|  \\    /   O peration     | Version:  5.x                                   |
|   \\  /    A nd           | Web:      www.OpenFOAM.org                      |
|    \\/     M anipulation  |                                                 |
\*---------------------------------------------------------------------------*/
FoamFile
{
    version     2.0;
    format      ascii;
    class       volScalarField;
    location    "2";
    object      T;
}
// * * * * * * * * * * * * * * * * * * * * * * * * * * * * * * * * * * * * * //

dimensions      [0 0 0 1 0 0 0];

internalField   nonuniform List<scalar> 
2048
(
9.81018
9.81038
9.81077
9.81133
9.81207
9.81295
9.81396
9.81508
9.81628
9.81756
9.81888
9.82025
9.82163
9.82303
9.82443
9.82582
9.82719
9.82854
9.82985
9.83114
9.83239
9.83359
9.83476
9.83588
9.83696
9.83799
9.83898
9.83991
9.84079
9.84161
9.84237
9.84306
9.84369
9.84423
9.8447
9.84507
9.84534
9.84551
9.84556
9.84549
9.84528
9.84493
9.84443
9.84377
9.84294
9.84195
9.84078
9.83943
9.83792
9.83625
9.83444
9.83252
9.8305
9.82844
9.82637
9.82434
9.8224
9.82059
9.81896
9.81755
9.81638
9.81549
9.81488
9.81457
9.43868
9.43927
9.44043
9.44212
9.4443
9.44692
9.44992
9.45324
9.45682
9.4606
9.46454
9.46858
9.47269
9.47683
9.48097
9.48508
9.48914
9.49313
9.49703
9.50083
9.50452
9.50809
9.51154
9.51486
9.51805
9.52111
9.52402
9.52677
9.52937
9.53181
9.53406
9.53611
9.53796
9.53958
9.54096
9.54207
9.54288
9.54338
9.54354
9.54333
9.54272
9.5417
9.54022
9.53828
9.53584
9.53289
9.52943
9.52546
9.52098
9.51603
9.51067
9.50494
9.49896
9.49282
9.48666
9.48062
9.47484
9.46947
9.46462
9.46042
9.45695
9.45429
9.45249
9.45158
9.08299
9.08396
9.08588
9.08868
9.09229
9.09662
9.10157
9.10704
9.11292
9.11914
9.12561
9.13224
9.13899
9.14578
9.15256
9.15929
9.16594
9.17246
9.17884
9.18505
9.19108
9.19692
9.20256
9.20799
9.2132
9.21819
9.22294
9.22745
9.23171
9.23569
9.23937
9.24275
9.24578
9.24845
9.25071
9.25254
9.25389
9.25472
9.255
9.25468
9.25372
9.25206
9.24968
9.24652
9.24255
9.23775
9.2321
9.2256
9.21826
9.21014
9.20132
9.19189
9.18203
9.1719
9.16173
9.15174
9.14219
9.1333
9.12529
9.11835
9.11263
9.10824
9.10527
9.10378
8.74218
8.74354
8.74622
8.75013
8.75517
8.76121
8.76809
8.77568
8.78384
8.79245
8.80138
8.81054
8.81984
8.8292
8.83854
8.84781
8.85695
8.86592
8.87468
8.88321
8.89148
8.8995
8.90723
8.91468
8.92183
8.92868
8.93521
8.9414
8.94725
8.95272
8.9578
8.96245
8.96663
8.97032
8.97345
8.976
8.97789
8.97908
8.9795
8.97911
8.97783
8.9756
8.97237
8.96808
8.96267
8.9561
8.94836
8.93942
8.92932
8.91812
8.90591
8.89285
8.87914
8.86505
8.85088
8.83695
8.82362
8.81123
8.80006
8.7904
8.78244
8.77634
8.77223
8.77015
8.41541
8.41717
8.42063
8.42569
8.43218
8.43993
8.44875
8.45846
8.46887
8.47983
8.49119
8.50283
8.51462
8.52648
8.53831
8.55003
8.56159
8.57291
8.58397
8.59473
8.60516
8.61525
8.625
8.63438
8.6434
8.65203
8.66027
8.66809
8.67547
8.68239
8.68881
8.6947
8.70001
8.7047
8.7087
8.71196
8.71441
8.71597
8.71657
8.71614
8.7146
8.71187
8.70787
8.70252
8.69576
8.68752
8.67778
8.6665
8.65372
8.6395
8.62396
8.60729
8.58975
8.57167
8.55346
8.53555
8.5184
8.50246
8.48811
8.47571
8.46551
8.45772
8.45245
8.4498
8.10192
8.1041
8.10837
8.11459
8.12257
8.13208
8.14286
8.1547
8.16736
8.18065
8.19441
8.20847
8.22271
8.23701
8.25127
8.26538
8.27927
8.29288
8.30615
8.31905
8.33155
8.34365
8.35532
8.36656
8.37737
8.38771
8.39759
8.40698
8.41584
8.42416
8.43189
8.43899
8.44541
8.45109
8.45596
8.45995
8.46296
8.46492
8.46574
8.46533
8.46358
8.46041
8.45571
8.4494
8.44137
8.43157
8.41992
8.40639
8.39101
8.37383
8.35499
8.33472
8.31332
8.2912
8.26888
8.2469
8.22584
8.20627
8.18869
8.17351
8.16106
8.15156
8.14515
8.14193
7.80099
7.8036
7.80873
7.81618
7.82571
7.83701
7.8498
7.86378
7.8787
7.89432
7.91044
7.9269
7.94354
7.96023
7.97685
7.99329
8.00945
8.02527
8.04067
8.05563
8.07013
8.08414
8.09766
8.11069
8.12321
8.13521
8.14667
8.15756
8.16786
8.17753
8.18654
8.19483
8.20235
8.20901
8.21475
8.21946
8.22307
8.22546
8.22654
8.22618
8.22429
8.22075
8.21544
8.20825
8.19906
8.18778
8.17432
8.15865
8.14074
8.12066
8.09856
8.07466
8.04935
8.02312
7.99656
7.97038
7.94528
7.92198
7.90109
7.88309
7.86836
7.85715
7.84961
7.84582
7.51195
7.51503
7.52107
7.52982
7.54096
7.55413
7.56898
7.58514
7.60232
7.62026
7.63873
7.65755
7.67656
7.69559
7.71453
7.73323
7.7516
7.76956
7.78702
7.80397
7.82037
7.83622
7.85152
7.86625
7.88042
7.89401
7.90699
7.91934
7.93103
7.94202
7.95227
7.96173
7.97032
7.97796
7.98457
7.99004
7.99426
7.99711
7.99848
7.99825
7.99627
7.99243
7.98659
7.97861
7.96836
7.95571
7.94055
7.92281
7.90247
7.87955
7.8542
7.82667
7.79739
7.76691
7.73598
7.70542
7.67614
7.64897
7.62466
7.60379
7.58677
7.57385
7.56518
7.56084
7.23419
7.23778
7.24479
7.25492
7.26777
7.28289
7.29985
7.31824
7.3377
7.35795
7.37875
7.3999
7.42123
7.44257
7.46377
7.4847
7.50522
7.52524
7.5447
7.56355
7.58178
7.59939
7.61638
7.63276
7.64851
7.66362
7.67807
7.69183
7.70486
7.71714
7.7286
7.7392
7.74886
7.75748
7.76497
7.77121
7.77606
7.77941
7.78112
7.78104
7.77905
7.77499
7.7687
7.76003
7.74881
7.73489
7.71814
7.69845
7.67575
7.65006
7.62149
7.59031
7.55696
7.52212
7.48662
7.4515
7.41782
7.38663
7.3588
7.335
7.31567
7.30106
7.29128
7.28639
6.96713
6.97127
6.97933
6.99094
7.0056
7.02277
7.04192
7.06257
7.08433
7.10689
7.13
7.15345
7.17707
7.20067
7.2241
7.24719
7.26981
7.29185
7.31322
7.3339
7.35388
7.37317
7.39178
7.40972
7.427
7.44358
7.45945
7.47457
7.4889
7.50241
7.51506
7.52679
7.5375
7.54711
7.55548
7.5625
7.56802
7.57189
7.57398
7.57412
7.57217
7.56796
7.5613
7.55203
7.53995
7.52488
7.50666
7.48512
7.46017
7.43177
7.40002
7.36516
7.32767
7.28829
7.24802
7.20809
7.1698
7.13441
7.10295
7.07617
7.05452
7.03824
7.02739
7.02197
6.71022
6.71496
6.72417
6.73738
6.75398
6.77329
6.79471
6.81767
6.84175
6.86661
6.892
6.91772
6.94359
6.96942
6.99504
7.02025
7.04492
7.0689
7.09212
7.11455
7.1362
7.15709
7.17725
7.1967
7.21543
7.23343
7.25066
7.26709
7.28268
7.2974
7.31121
7.32404
7.3358
7.34639
7.35566
7.36348
7.36968
7.37411
7.37661
7.37702
7.37517
7.37088
7.36395
7.35417
7.34134
7.32523
7.30564
7.28238
7.25529
7.22428
7.18938
7.15083
7.1091
7.06502
7.01974
6.97473
6.93156
6.89176
6.85655
6.82675
6.80282
6.78491
6.77303
6.76711
6.46295
6.46835
6.47882
6.49377
6.51243
6.53402
6.55778
6.58311
6.60951
6.63666
6.6643
6.69225
6.72033
6.74836
6.77612
6.80343
6.83009
6.85596
6.88096
6.90507
6.9283
6.95071
6.97234
6.99323
7.01336
7.03273
7.05128
7.06898
7.08578
7.10167
7.1166
7.13052
7.14332
7.15489
7.16507
7.1737
7.18062
7.18563
7.18859
7.18932
7.18762
7.18332
7.17619
7.166
7.15252
7.13549
7.11467
7.08981
7.0607
7.02717
6.9892
6.94695
6.90089
6.85192
6.80136
6.75094
6.70261
6.65818
6.6191
6.58627
6.56009
6.54062
6.52777
6.5214
6.22481
6.23095
6.24281
6.25966
6.28055
6.30454
6.33074
6.35847
6.3872
6.41661
6.44646
6.4766
6.50686
6.53704
6.56693
6.59628
6.6249
6.6526
6.67931
6.70501
6.72974
6.75359
6.77662
6.79889
6.82038
6.84106
6.86089
6.8798
6.89778
6.91479
6.93082
6.9458
6.95964
6.9722
6.9833
6.99277
7.00041
7.00604
7.00949
7.01056
7.00908
7.00484
6.99759
6.98708
6.97306
6.95522
6.93329
6.90698
6.87598
6.84007
6.7991
6.75316
6.70269
6.64863
6.59248
6.53631
6.48245
6.43316
6.39011
6.35424
6.32589
6.30498
6.29125
6.28446
5.99536
6.00232
6.01572
6.03464
6.05794
6.08446
6.1132
6.14337
6.17443
6.20606
6.23807
6.27035
6.30274
6.33505
6.36703
6.39841
6.42894
6.45842
6.48677
6.51398
6.54012
6.56533
6.58969
6.61327
6.63606
6.65802
6.67908
6.69917
6.71827
6.73637
6.75346
6.76949
6.78436
6.7979
6.80994
6.82026
6.82865
6.83492
6.83889
6.84036
6.83914
6.83501
6.82772
6.81699
6.80252
6.784
6.7611
6.73346
6.70074
6.66258
6.61872
6.56913
6.51417
6.45482
6.39275
6.3304
6.27064
6.21622
6.1691
6.13025
6.09984
6.07761
6.06311
6.05596
5.77414
5.78202
5.79713
5.81833
5.84423
5.87344
5.9048
5.93744
5.97081
6.00461
6.03873
6.07309
6.10757
6.14197
6.17603
6.20941
6.24182
6.27303
6.30294
6.33157
6.35904
6.38551
6.41113
6.43597
6.46001
6.48322
6.50547
6.5267
6.54687
6.56602
6.58414
6.6012
6.61708
6.63163
6.64461
6.6558
6.66496
6.67189
6.67639
6.67829
6.67738
6.67343
6.66617
6.6553
6.64049
6.6214
6.59766
6.56886
6.53456
6.49432
6.44772
6.39454
6.33504
6.27019
6.20184
6.13283
6.06672
6.00688
5.95561
5.91386
5.88157
5.85818
5.84304
5.83562
5.56074
5.56965
5.58666
5.61038
5.63909
5.67113
5.7052
5.74036
5.776
5.8119
5.84804
5.88443
5.92096
5.95742
5.99354
6.02892
6.06316
6.09605
6.12746
6.15742
6.18612
6.21377
6.24057
6.26661
6.29187
6.31628
6.3397
6.36201
6.38321
6.40335
6.42247
6.44054
6.45744
6.47299
6.48694
6.49901
6.50895
6.51656
6.52163
6.52398
6.52341
6.5197
6.51255
6.50162
6.48656
6.46701
6.44256
6.41275
6.37707
6.33493
6.28575
6.22909
6.16502
6.09446
6.01943
5.94323
5.87022
5.80467
5.74922
5.7047
5.67073
5.6464
5.63078
5.62315
5.35474
5.36481
5.38394
5.41044
5.44219
5.47724
5.51411
5.55178
5.58965
5.62757
5.66565
5.70399
5.74251
5.78102
5.8192
5.85656
5.89262
5.92713
5.95996
5.99117
6.02098
6.04972
6.07763
6.10483
6.13127
6.15686
6.18142
6.20478
6.22694
6.24802
6.26811
6.28716
6.30508
6.32165
6.33658
6.34954
6.36028
6.36857
6.37422
6.37704
6.37687
6.37344
6.36646
6.35556
6.34034
6.32044
6.29541
6.26475
6.22786
6.18404
6.13248
6.07247
6.00383
5.92738
5.84525
5.76122
5.68072
5.60912
5.54949
5.50242
5.46703
5.442
5.42607
5.41833
5.15576
5.16714
5.18863
5.2182
5.25326
5.29146
5.33122
5.37141
5.41144
5.45127
5.49118
5.5314
5.57188
5.6124
5.65264
5.69199
5.72984
5.76592
5.80011
5.83245
5.86328
5.893
5.92197
5.95027
5.97785
6.00463
6.0303
6.05465
6.07772
6.09968
6.12069
6.14072
6.15964
6.17724
6.19318
6.20705
6.21859
6.22758
6.23381
6.23713
6.23737
6.23429
6.22754
6.21673
6.20145
6.18129
6.15582
6.12445
6.08654
6.04129
5.98759
5.92442
5.85124
5.76874
5.67908
5.58647
5.49774
5.41976
5.35601
5.30666
5.2702
5.24474
5.22869
5.22094
4.96342
4.97629
5.00041
5.03337
5.07202
5.11353
5.15624
5.19897
5.24105
5.28267
5.32428
5.36632
5.4087
5.45121
5.49353
5.53489
5.5745
5.61211
5.64759
5.68096
5.71267
5.74328
5.77323
5.8026
5.8313
5.85924
5.88603
5.91132
5.93523
5.95801
5.97991
6.00089
6.0208
6.03946
6.05642
6.07121
6.08356
6.09326
6.10008
6.1039
6.10458
6.10188
6.09543
6.08479
6.06951
6.04919
6.02339
5.99147
5.95274
5.9063
5.85075
5.78465
5.70701
5.61833
5.5207
5.41868
5.32082
5.23611
5.1684
5.11714
5.07999
5.05441
5.03844
5.03078
4.77736
4.79193
4.81895
4.85569
4.89823
4.94319
4.98891
5.03417
5.0782
5.12144
5.16461
5.20839
5.25265
5.29709
5.34154
5.38495
5.42629
5.46538
5.50208
5.53636
5.56884
5.60022
5.6311
5.66149
5.69128
5.72041
5.74831
5.7745
5.79915
5.82267
5.84543
5.86734
5.88824
5.90799
5.92601
5.94171
5.95488
5.96529
5.97269
5.97702
5.97815
5.97589
5.9698
5.95939
5.94418
5.92378
5.89777
5.86543
5.82607
5.77872
5.72164
5.6529
5.57092
5.47598
5.36998
5.25753
5.14947
5.05768
4.98627
4.93358
4.89618
4.87082
4.85515
4.84767
4.59724
4.61374
4.64397
4.6849
4.73168
4.78017
4.82897
4.87676
4.92259
4.96727
5.01183
5.05731
5.10338
5.14972
5.19636
5.24188
5.2849
5.32543
5.36331
5.39837
5.43146
5.46349
5.49526
5.52665
5.55749
5.58784
5.61688
5.64388
5.6692
5.69338
5.71696
5.7398
5.76166
5.78253
5.80165
5.81826
5.83225
5.84337
5.85134
5.85616
5.85777
5.85598
5.85032
5.8402
5.82511
5.80471
5.77861
5.74598
5.70615
5.6582
5.59995
5.52891
5.44274
5.34153
5.22682
5.10277
4.98315
4.88398
4.80927
4.75574
4.71859
4.6938
4.67863
4.67143
4.42272
4.44145
4.47515
4.52077
4.57218
4.62424
4.67617
4.72652
4.77395
4.81986
4.86561
4.91274
4.96061
5.00875
5.05767
5.10542
5.15003
5.19198
5.23099
5.26667
5.30024
5.33277
5.36541
5.39779
5.42961
5.46125
5.49148
5.51922
5.54509
5.56981
5.59422
5.61796
5.64075
5.66279
5.68308
5.70058
5.71538
5.72722
5.73573
5.74104
5.74313
5.74186
5.73667
5.72691
5.71199
5.69163
5.66555
5.63274
5.59259
5.54438
5.48535
5.41244
5.32225
5.21483
5.09122
4.95416
4.82127
4.71449
4.63709
4.58342
4.54705
4.52319
4.50873
4.50191
4.25346
4.2748
4.31222
4.36308
4.41958
4.47515
4.53025
4.5832
4.63199
4.67892
4.72561
4.77441
4.82405
4.87384
4.92521
4.97533
5.0214
5.06472
5.10489
5.14101
5.17488
5.20776
5.24127
5.27462
5.30736
5.34037
5.37188
5.40024
5.42655
5.4517
5.47693
5.50158
5.52523
5.54852
5.57004
5.58839
5.60399
5.61657
5.62558
5.63137
5.63393
5.63323
5.62858
5.61923
5.6045
5.58423
5.5583
5.52538
5.48503
5.4369
5.37752
5.30325
5.2092
5.09571
4.96326
4.81153
4.66318
4.54869
4.46943
4.41644
4.38144
4.35884
4.3453
4.33894
4.08913
4.11358
4.15486
4.21164
4.27375
4.33263
4.39096
4.44664
4.49646
4.54417
4.59149
4.64203
4.69344
4.74465
4.79868
4.85139
4.89871
4.9434
4.98476
5.0211
5.05513
5.08814
5.12259
5.15692
5.19041
5.22495
5.25788
5.2867
5.31333
5.33874
5.36484
5.3904
5.4148
5.43945
5.46232
5.48142
5.49783
5.51117
5.52063
5.52686
5.52988
5.5298
5.52576
5.51688
5.50235
5.48217
5.45655
5.42358
5.38307
5.33542
5.27612
5.20113
5.10335
4.984
4.84312
4.67474
4.50809
4.38608
4.30607
4.25469
4.22164
4.20065
4.18819
4.18237
3.92941
3.95763
4.00274
4.06625
4.13465
4.1964
4.25805
4.31667
4.36709
4.41535
4.46289
4.51535
4.56857
4.62082
4.67782
4.73344
4.78166
4.82774
4.87042
4.90668
4.94072
4.9736
5.0091
5.04446
5.07848
5.11475
5.14929
5.17836
5.2052
5.23065
5.25771
5.2842
5.30917
5.33534
5.3597
5.37941
5.39664
5.41079
5.4206
5.42727
5.43071
5.43132
5.42796
5.4196
5.40527
5.38515
5.36002
5.32703
5.28632
5.23962
5.18082
5.10588
5.00441
4.87945
4.73114
4.54376
4.35505
4.22614
4.14683
4.09808
4.06755
4.04846
4.03724
4.03202
3.77394
3.80687
3.85549
3.92675
4.00227
4.06614
4.13124
4.19318
4.24357
4.29224
4.33944
4.39413
4.44925
4.50194
4.56238
4.62136
4.66994
4.71746
4.7617
4.79748
4.83142
4.86382
4.90059
4.93704
4.97122
5.00953
5.04599
5.07498
5.10193
5.12713
5.15531
5.1828
5.20805
5.23596
5.26203
5.2821
5.30017
5.31522
5.32526
5.33234
5.33615
5.33753
5.33491
5.32716
5.313
5.29287
5.26848
5.23544
5.19438
5.14917
5.09125
5.01736
4.91207
4.78173
4.62784
4.41863
4.20293
4.0684
3.9916
3.94656
3.91909
3.90218
3.89232
3.88775
3.62237
3.66131
3.71269
3.79298
3.87672
3.94146
4.01026
4.0761
4.12562
4.17465
4.22073
4.27818
4.33537
4.38757
4.45213
4.51511
4.56321
4.6123
4.65848
4.69322
4.72704
4.75846
4.79685
4.83452
4.86828
4.90908
4.94786
4.97629
5.00333
5.02787
5.05746
5.08603
5.11111
5.14109
5.16916
5.18923
5.20819
5.22428
5.23434
5.24186
5.24594
5.24819
5.24638
5.23933
5.22529
5.205
5.1817
5.14858
5.10683
5.06381
5.00701
4.93549
4.82598
4.69037
4.53395
4.29955
4.05029
3.91245
3.84036
3.8001
3.77619
3.76167
3.75326
3.74938
3.47427
3.52111
3.57379
3.66478
3.75819
3.82192
3.89481
3.96547
4.01286
4.06243
4.10629
4.16732
4.22686
4.27721
4.34682
4.4147
4.46106
4.51197
4.56071
4.5936
4.62742
4.65714
4.69772
4.7368
4.76928
4.81319
4.85486
4.88204
4.90924
4.93254
4.96397
4.99378
5.01802
5.05052
5.08099
5.10051
5.12046
5.1378
5.14761
5.15561
5.15982
5.16309
5.16216
5.1559
5.14192
5.12121
5.09951
5.06621
5.02322
4.98329
4.92764
4.86027
4.74577
4.60469
4.45047
4.18689
3.89532
3.75801
3.69315
3.65873
3.63878
3.62681
3.61992
3.61676
3.32919
3.38661
3.43814
3.542
3.64704
3.70692
3.78457
3.8614
3.90487
3.95554
3.99559
4.06142
4.12379
4.17025
4.24624
4.32028
4.36303
4.41619
4.46838
4.49826
4.53247
4.55944
4.60302
4.64385
4.67376
4.72166
4.76701
4.7919
4.81956
4.84079
4.87469
4.90597
4.92839
4.96406
4.9975
5.01564
5.03676
5.05566
5.06481
5.07341
5.07755
5.08202
5.08201
5.0767
5.0627
5.04116
5.02178
4.98816
4.94304
4.90745
4.85262
4.79183
4.67104
4.52372
4.37873
4.08121
3.73572
3.60497
3.55013
3.52248
3.50679
3.49748
3.49214
3.48969
3.18657
3.25839
3.30488
3.42452
3.5438
3.59575
3.6792
3.76413
3.80112
3.85405
3.88799
3.96038
4.0263
4.06597
4.1502
4.2321
4.2686
4.32467
4.38159
4.4068
4.44215
4.4649
4.51266
4.5557
4.5812
4.63431
4.68437
4.70553
4.73423
4.75219
4.7895
4.8226
4.84178
4.88153
4.91868
4.93428
4.95688
4.97777
4.98566
4.99511
4.99884
5.00481
5.00572
5.00154
4.98746
4.96447
4.94841
4.9143
4.86571
4.83624
4.78127
4.73044
4.60136
4.44615
4.32043
3.98341
3.56858
3.45349
3.41152
3.39138
3.38015
3.37353
3.36975
3.36802
3.04575
3.13734
3.17292
3.31219
3.44924
3.48749
3.57836
3.67409
3.70092
3.75816
3.78272
3.86416
3.93469
3.9635
4.05849
4.15058
4.17708
4.2371
4.30056
4.31871
4.35656
4.37295
4.42653
4.47249
4.49098
4.55096
4.60714
4.62246
4.6533
4.66627
4.70828
4.74373
4.75769
4.80278
4.84465
4.85604
4.88059
4.90409
4.90989
4.92059
4.92345
4.93128
4.93308
4.93029
4.91605
4.8907
4.87936
4.84457
4.79059
4.76971
4.7128
4.67657
4.53635
4.37013
4.27775
3.89469
3.39022
3.30412
3.27763
3.26546
3.25876
3.25483
3.25259
3.25157
2.90592
3.02475
3.04088
3.2049
3.3644
3.38099
3.48165
3.59187
3.60338
3.66832
3.67883
3.77277
3.84945
3.86177
3.97097
4.07634
4.08767
4.15316
4.22564
4.23337
4.27593
4.28291
4.34461
4.39446
4.40237
4.47147
4.53559
4.54215
4.57692
4.58246
4.631
4.66953
4.67551
4.72765
4.77558
4.78048
4.8077
4.83463
4.83714
4.84977
4.85106
4.8613
4.86388
4.86279
4.84839
4.81936
4.81466
4.77897
4.71688
4.70813
4.64614
4.63093
4.47565
4.29327
4.25337
3.81671
3.196
3.15791
3.14879
3.14473
3.14251
3.14122
3.14048
3.14014
)
;

boundaryField
{
    left
    {
        type            zeroGradient;
    }
    right
    {
        type            zeroGradient;
    }
    interface
    {
        type            fixedValue;
        value           nonuniform List<scalar> 
64
(
2.83441
2.97244
2.97244
3.15259
3.32672
3.32672
3.43413
3.5543
3.5543
3.62586
3.62586
3.72857
3.80949
3.80949
3.9283
4.04256
4.04256
4.11197
4.19076
4.19076
4.23749
4.23749
4.30491
4.35748
4.35748
4.4328
4.5022
4.5022
4.54042
4.54042
4.59355
4.6342
4.6342
4.69112
4.74305
4.74305
4.77219
4.80143
4.80143
4.81556
4.81556
4.82743
4.83029
4.83029
4.81585
4.784
4.784
4.74776
4.67959
4.67959
4.61247
4.61247
4.44684
4.25207
4.25207
3.78356
3.08575
3.08575
3.08575
3.08575
3.08575
3.08575
3.08575
3.08575
)
;
    }
    bottom
    {
        type            fixedValue;
        value           uniform 10;
    }
    defaultFaces
    {
        type            empty;
    }
}


// ************************************************************************* //
