/*--------------------------------*- C++ -*----------------------------------*\
| =========                 |                                                 |
| \\      /  F ield         | OpenFOAM: The Open Source CFD Toolbox           |
|  \\    /   O peration     | Version:  5.x                                   |
|   \\  /    A nd           | Web:      www.OpenFOAM.org                      |
|    \\/     M anipulation  |                                                 |
\*---------------------------------------------------------------------------*/
FoamFile
{
    version     2.0;
    format      ascii;
    class       volScalarField;
    location    "6.9";
    object      gradTx;
}
// * * * * * * * * * * * * * * * * * * * * * * * * * * * * * * * * * * * * * //

dimensions      [0 -1 0 1 0 0 0];

internalField   nonuniform List<scalar> 
2048
(
0.0063049
0.0187343
0.0306386
0.0417201
0.0517497
0.0605781
0.068135
0.0744181
0.0794772
0.083395
0.0862715
0.0882109
0.0893151
0.0896811
0.0894013
0.0885648
0.0872584
0.0855657
0.0835645
0.0813233
0.0788978
0.0763287
0.0736409
0.0708446
0.0679374
0.0649073
0.0617348
0.0583943
0.0548549
0.0510807
0.0470314
0.0426634
0.0379315
0.0327911
0.0272004
0.0211218
0.014523
0.00737783
-0.000333221
-0.00862185
-0.0174896
-0.0269241
-0.0368941
-0.0473421
-0.0581766
-0.0692628
-0.0804136
-0.0913819
-0.101857
-0.111464
-0.119782
-0.12636
-0.130754
-0.13257
-0.131512
-0.127416
-0.120277
-0.110248
-0.0976154
-0.0827649
-0.0661295
-0.0481501
-0.0292468
-0.00980734
0.0187883
0.0558178
0.0912566
0.124206
0.153979
0.180137
0.202479
0.221012
0.2359
0.247399
0.255816
0.261466
0.26465
0.265656
0.264754
0.26221
0.258279
0.25321
0.247237
0.240566
0.233362
0.225746
0.217792
0.209527
0.200943
0.192001
0.182644
0.172794
0.16236
0.151236
0.139301
0.126425
0.112473
0.0973119
0.0808153
0.0628719
0.0433858
0.022279
-0.000507295
-0.0250094
-0.051235
-0.079152
-0.108673
-0.139636
-0.171777
-0.204706
-0.237875
-0.270558
-0.301832
-0.330586
-0.355548
-0.37536
-0.388674
-0.39429
-0.391297
-0.379193
-0.357962
-0.328074
-0.290412
-0.246152
-0.196608
-0.143109
-0.0869047
-0.029138
0.0311399
0.092483
0.151107
0.205486
0.254473
0.297353
0.333828
0.363953
0.388043
0.406562
0.42004
0.429007
0.433964
0.435376
0.433682
0.429309
0.422679
0.414207
0.404281
0.393246
0.381381
0.368885
0.355873
0.342386
0.328401
0.313852
0.298637
0.282631
0.265685
0.247623
0.228247
0.207338
0.184671
0.160021
0.13318
0.103963
0.0722123
0.0377989
0.000624218
-0.0393766
-0.082225
-0.127882
-0.176223
-0.227002
-0.279814
-0.334043
-0.388818
-0.442963
-0.494968
-0.542991
-0.5849
-0.618386
-0.641137
-0.651076
-0.646611
-0.626863
-0.591801
-0.542253
-0.479769
-0.406389
-0.324372
-0.23596
-0.143223
-0.0480087
0.0435996
0.129426
0.211275
0.286941
0.354797
0.413873
0.463823
0.504818
0.537386
0.562252
0.580202
0.591996
0.598326
0.599822
0.597074
0.590661
0.581165
0.569168
0.555223
0.539823
0.523364
0.50612
0.488245
0.469779
0.450676
0.430833
0.410104
0.388316
0.365264
0.340705
0.314363
0.285929
0.255081
0.221503
0.184898
0.14501
0.10162
0.0545502
0.00366121
-0.0511456
-0.109917
-0.172625
-0.239131
-0.309142
-0.382145
-0.457347
-0.533595
-0.609307
-0.682412
-0.750335
-0.810047
-0.858207
-0.891421
-0.906595
-0.901331
-0.874292
-0.825433
-0.756013
-0.66838
-0.565591
-0.450972
-0.327743
-0.198791
-0.0666101
0.056383
0.167269
0.272722
0.369772
0.456286
0.531068
0.593798
0.644852
0.685069
0.715506
0.737253
0.751311
0.758557
0.75976
0.755638
0.746906
0.734302
0.718583
0.700484
0.68066
0.659632
0.637754
0.615201
0.592002
0.568072
0.543258
0.517367
0.49018
0.46144
0.430845
0.398036
0.36261
0.324141
0.282209
0.236432
0.186477
0.132069
0.0729847
0.00904364
-0.059892
-0.133907
-0.213008
-0.297072
-0.385796
-0.47861
-0.574596
-0.67238
-0.770025
-0.864936
-0.953806
-1.03265
-1.09699
-1.14217
-1.16387
-1.15868
-1.1247
-1.06185
-0.971943
-0.858329
-0.725314
-0.577481
-0.419132
-0.253973
-0.0850552
0.0696951
0.2066
0.336343
0.455075
0.560123
0.65011
0.724841
0.78503
0.831948
0.867084
0.891883
0.9076
0.915275
0.915784
0.909935
0.898556
0.882542
0.86284
0.84039
0.816034
0.790434
0.764019
0.736979
0.709304
0.680846
0.651388
0.620689
0.588486
0.554484
0.518323
0.479564
0.437698
0.392182
0.342486
0.288129
0.228707
0.163892
0.0934224
0.0170798
-0.0653176
-0.153908
-0.248753
-0.349785
-0.456731
-0.569022
-0.685678
-0.805176
-0.925296
-1.04297
-1.15417
-1.25392
-1.33642
-1.39554
-1.42543
-1.42143
-1.38086
-1.30358
-1.19214
-1.05119
-0.886623
-0.70454
-0.510464
-0.308915
-0.103384
0.08374
0.247998
0.403005
0.543884
0.667385
0.772014
0.857844
0.926097
0.978636
1.0175
1.04455
1.06131
1.06893
1.06835
1.06041
1.04603
1.02625
1.00224
0.975185
0.946144
0.915945
0.885093
0.853768
0.821889
0.789216
0.755448
0.720287
0.683444
0.6446
0.603349
0.559169
0.511432
0.45946
0.402592
0.340244
0.271941
0.197315
0.116073
0.0279672
-0.0672303
-0.169725
-0.279662
-0.397063
-0.521737
-0.653171
-0.790399
-0.931835
-1.07507
-1.21664
-1.35184
-1.47462
-1.57774
-1.65327
-1.69349
-1.69204
-1.64522
-1.55282
-1.41832
-1.24811
-1.05014
-0.832384
-0.601754
-0.363562
-0.121566
0.0987292
0.29206
0.473585
0.637215
0.779082
0.897678
0.993532
1.06859
1.12552
1.16705
1.19553
1.21271
1.21983
1.21779
1.20742
1.18966
1.16572
1.13702
1.10504
1.07112
1.03628
1.0011
0.965717
0.929934
0.893375
0.85563
0.816342
0.775217
0.73194
0.686075
0.637013
0.583989
0.526163
0.46272
0.392961
0.316344
0.232475
0.141052
0.0418089
-0.0655298
-0.18125
-0.305609
-0.438757
-0.580631
-0.730837
-0.888503
-1.05208
-1.2191
-1.3858
-1.54687
-1.69518
-1.82185
-1.91682
-1.96997
-1.97276
-1.92006
-1.81151
-1.65187
-1.44985
-1.21607
-0.960864
-0.692709
-0.417658
-0.139504
0.114889
0.339417
0.548993
0.736088
0.896186
1.0279
1.13248
1.21288
1.2728
1.31584
1.34489
1.36194
1.36819
1.36439
1.35126
1.32974
1.30119
1.26736
1.23008
1.19105
1.15151
1.11212
1.07295
1.0336
0.993505
0.952112
0.90901
0.863929
0.816604
0.766597
0.713206
0.655499
0.592433
0.523012
0.446404
0.362013
0.26944
0.168399
0.0586258
-0.0601964
-0.18845
-0.326534
-0.474767
-0.633264
-0.801807
-0.979702
-1.16556
-1.35696
-1.55006
-1.73902
-1.91566
-2.0693
-2.18734
-2.25663
-2.26575
-2.20758
-2.08149
-1.89394
-1.65681
-1.38423
-1.08945
-0.782735
-0.470763
-0.157035
0.132464
0.39075
0.630194
0.841556
1.01965
1.16341
1.27513
1.35913
1.42046
1.46377
1.49258
1.50901
1.51411
1.50836
1.4922
1.46653
1.43289
1.39339
1.35036
1.30593
1.26164
1.21821
1.17555
1.13303
1.08978
1.04507
0.998425
0.94967
0.89865
0.844965
0.787812
0.726047
0.658377
0.583573
0.50066
0.408994
0.308212
0.198082
0.0783673
-0.0512816
-0.191358
-0.342439
-0.505052
-0.679531
-0.865891
-1.06369
-1.27182
-1.48811
-1.70879
-1.92775
-2.13581
-2.32034
-2.46573
-2.55509
-2.57314
-2.50999
-2.36452
-2.14548
-1.86905
-1.55402
-1.21724
-0.870952
-0.522255
-0.173939
0.151729
0.446807
0.71823
0.954717
1.1504
1.30485
1.4218
1.50737
1.56832
1.6106
1.63838
1.65384
1.65767
1.64988
1.6305
1.60028
1.56098
1.51521
1.4659
1.41573
1.36663
1.31937
1.27363
1.22838
1.18239
1.13467
1.08471
1.0325
0.978095
0.92119
0.860862
0.795695
0.724074
0.644485
0.555779
0.457293
0.348746
0.230012
0.10092
-0.0388998
-0.19007
-0.353383
-0.529623
-0.719381
-0.922941
-1.14019
-1.37042
-1.61191
-1.86123
-2.11225
-2.35502
-2.57486
-2.75268
-2.86688
-2.89712
-2.82962
-2.66238
-2.40725
-2.08629
-1.72443
-1.34295
-0.956202
-0.571355
-0.189943
0.172984
0.508411
0.81423
1.07673
1.28938
1.45278
1.57267
1.65745
1.71603
1.75592
1.78197
1.79626
1.79889
1.78913
1.76642
1.73125
1.68567
1.63291
1.57667
1.52037
1.4664
1.41559
1.36725
1.31981
1.27153
1.22111
1.16799
1.11244
1.05491
0.995238
0.932353
0.86448
0.789593
0.705817
0.611795
0.506883
0.390952
0.264048
0.126114
-0.0232206
-0.18473
-0.359476
-0.548548
-0.75282
-0.972866
-1.20895
-1.4609
-1.72764
-2.00641
-2.29149
-2.5724
-2.83247
-3.0486
-3.19341
-3.23999
-3.16899
-2.97693
-2.67984
-2.30786
-1.89401
-1.46495
-1.03708
-0.617147
-0.204731
0.19657
0.576478
0.91943
1.20882
1.43752
1.60769
1.72779
1.80908
1.86307
1.89916
1.92292
1.93606
1.93776
1.9263
1.90025
1.85972
1.80712
1.74654
1.68262
1.61971
1.56083
1.50683
1.45649
1.40749
1.35745
1.3046
1.24838
1.18951
1.12903
1.06704
1.00226
0.932425
0.854997
0.767634
0.668729
0.557711
0.434707
0.300008
0.153733
-0.00446162
-0.17553
-0.360873
-0.561943
-0.779918
-1.01565
-1.2698
-1.54285
-1.83459
-2.14331
-2.46416
-2.78673
-3.0924
-3.35362
-3.53606
-3.60422
-3.53097
-3.3102
-2.96366
-2.53269
-2.06089
-1.58123
-1.11197
-0.658613
-0.217959
0.222866
0.652018
1.03518
1.35229
1.59573
1.76999
1.8871
1.96179
2.00874
2.03961
2.06071
2.07298
2.07428
2.06159
2.03232
1.98598
1.92552
1.85614
1.78364
1.71357
1.64976
1.59305
1.54146
1.49164
1.4404
1.38539
1.326
1.26366
1.20033
1.1365
1.07054
0.999547
0.920349
0.830013
0.726599
0.609706
0.479856
0.337669
0.183515
0.0171181
-0.162696
-0.35776
-0.569973
-0.80081
-1.05135
-1.32264
-1.61592
-1.93207
-2.27077
-2.62881
-2.99645
-3.35353
-3.66758
-3.89603
-3.99251
-3.91884
-3.66446
-3.25895
-2.75923
-2.22269
-1.6895
-1.17909
-0.694672
-0.229271
0.252299
0.736148
1.16294
1.50854
1.7649
1.93998
2.05042
2.11499
2.15219
2.17646
2.19475
2.20676
2.20844
2.19526
2.16303
2.11037
2.04104
1.96175
1.87963
1.80171
1.73296
1.67418
1.62225
1.57247
1.52069
1.46378
1.40098
1.33482
1.26865
1.20346
1.13713
1.06586
0.985723
0.893045
0.785424
0.662779
0.52622
0.376778
0.215161
0.0412241
-0.146479
-0.350349
-0.572835
-0.815693
-1.08011
-1.36749
-1.67989
-2.01945
-2.38767
-2.78376
-3.19974
-3.61437
-3.98995
-4.27438
-4.40781
-4.33648
-4.04232
-3.56569
-2.98538
-2.37656
-1.78713
-1.23655
-0.724237
-0.238315
0.285351
0.830092
1.30432
1.67907
1.9459
2.11781
2.21743
2.26797
2.29243
2.30874
2.32442
2.33712
2.34025
2.32758
2.29285
2.23326
2.15387
2.06341
1.97041
1.88383
1.81016
1.75013
1.699
1.65025
1.59869
1.54014
1.47348
1.40288
1.33375
1.26777
1.20199
1.13136
1.0512
0.956854
0.845229
0.71682
0.573603
0.417056
0.248337
0.0675318
-0.127148
-0.338859
-0.570753
-0.824827
-1.1022
-1.40446
-1.73464
-2.09623
-2.49286
-2.92724
-3.39445
-3.87304
-4.31978
-4.6719
-4.85338
-4.78854
-4.4468
-3.88354
-3.20839
-2.5191
-1.87131
-1.28246
-0.746267
-0.244767
0.322572
0.935175
1.46102
1.86547
2.13951
2.3035
2.38776
2.41989
2.4283
2.43536
2.44905
2.46386
2.4697
2.45889
2.42237
2.35505
2.26417
2.16117
2.05585
1.95956
1.88104
1.82085
1.77188
1.72523
1.67479
1.61492
1.54366
1.46764
1.39532
1.32923
1.26505
1.19606
1.11689
1.02161
0.906048
0.7717
0.621797
0.458205
0.282676
0.0956896
-0.10498
-0.323507
-0.563967
-0.828524
-1.11793
-1.43378
-1.78019
-2.16208
-2.58529
-3.05734
-3.57818
-4.12729
-4.65564
-5.08893
-5.33273
-5.2807
-4.88149
-4.21168
-3.42469
-2.64644
-1.93907
-1.31496
-0.759833
-0.24835
0.3646
1.05282
1.63488
2.0695
2.3464
2.49684
2.56095
2.56986
2.5585
2.55514
2.56802
2.58683
2.5968
2.58954
2.55232
2.47618
2.37203
2.25511
2.13575
2.02847
1.94519
1.88625
1.84112
1.79768
1.74943
1.68867
1.61171
1.52884
1.45296
1.38761
1.32631
1.25995
1.18289
1.08754
0.967923
0.827255
0.670591
0.499915
0.317779
0.125322
-0.080249
-0.30449
-0.552711
-0.827146
-1.12774
-1.45578
-1.81674
-2.21688
-2.66402
-3.17211
-3.74829
-4.37452
-4.99562
-5.5252
-5.84961
-5.82
-5.35068
-4.54864
-3.62981
-2.7542
-1.98739
-1.3324
-0.764176
-0.248854
0.412199
1.18451
1.82779
2.29314
2.56712
2.69734
2.73654
2.71694
2.68156
2.66674
2.68071
2.70602
2.72144
2.71989
2.68362
2.59708
2.47749
2.34539
2.20999
2.09003
2.00213
1.94629
1.90703
1.86782
1.82306
1.76214
1.67785
1.5861
1.50618
1.44272
1.3858
1.32297
1.24931
1.15498
1.0309
0.883273
0.719784
0.541874
0.353213
0.156031
-0.0532236
-0.281968
-0.537209
-0.821098
-1.13215
-1.47087
-1.8446
-2.26077
-2.72829
-3.26955
-3.9019
-4.61187
-5.33727
-5.97949
-6.4079
-6.41522
-5.85952
-4.89197
-3.81815
-2.83756
-2.01339
-1.3334
-0.758764
-0.246152
0.466328
1.33178
2.04168
2.53863
2.80196
2.90411
2.91419
2.86019
2.79583
2.7687
2.78659
2.82164
2.84345
2.85028
2.81749
2.71817
2.5804
2.43226
2.27842
2.14358
2.05129
2.00096
1.97004
1.93582
1.89615
1.83625
1.74233
1.6389
1.55435
1.49433
1.44367
1.38504
1.31625
1.22438
1.09501
0.939464
0.769211
0.583775
0.388507
0.187394
-0.024157
-0.25605
-0.517647
-0.810823
-1.13181
-1.4795
-1.86423
-2.29426
-2.77755
-3.34766
-4.03597
-4.83628
-5.67773
-6.44926
-7.0114
-7.07752
-6.4142
-5.23787
-3.98283
-2.89142
-2.0144
-1.31692
-0.743333
-0.24021
0.528251
1.49614
2.27842
2.80872
3.0509
3.11577
3.09375
2.99874
2.89948
2.85939
2.88525
2.9342
2.96238
2.98097
2.95556
2.83977
2.68037
2.5162
2.34098
2.18837
2.09195
2.05031
2.0308
2.00168
1.9691
1.91227
1.80542
1.68653
1.59671
1.54227
1.50021
1.44592
1.38374
1.29642
1.16028
0.995421
0.818772
0.625332
0.423143
0.218963
0.00671472
-0.226774
-0.494165
-0.796792
-1.12743
-1.48215
-1.87615
-2.31824
-2.81152
-3.40448
-4.14724
-5.04466
-6.01388
-6.93015
-7.66351
-7.82114
-7.02219
-5.58054
-4.11557
-2.9105
-1.98822
-1.28244
-0.717922
-0.231096
0.599719
1.67896
2.53965
3.10684
3.31347
3.33018
3.27555
3.13181
2.99042
2.93699
2.97641
3.0447
3.07744
3.11202
3.10009
2.96208
2.77664
2.598
2.39768
2.22343
2.12325
2.09443
2.09024
2.06513
2.04221
1.99188
1.86742
1.72806
1.63232
1.58639
1.55598
1.50523
1.45177
1.37207
1.22666
1.05056
0.868486
0.666281
0.456539
0.250269
0.0391738
-0.19409
-0.466839
-0.779502
-1.11992
-1.47926
-1.88089
-2.33408
-2.83023
-3.43811
-4.23225
-5.234
-6.34265
-7.41531
-8.36671
-8.66451
-7.69247
-5.91144
-4.20656
-2.88965
-1.93326
-1.22993
-0.682881
-0.218975
0.683259
1.88143
2.82657
3.4375
3.58858
3.54423
3.46066
3.25878
3.06626
2.99946
3.05993
3.15487
3.18723
3.24322
3.25425
3.08503
2.86784
2.67896
2.4486
2.24759
2.14417
2.13352
2.14972
2.12552
2.11559
2.07738
1.9286
1.76226
1.66008
1.62663
1.61188
1.5623
1.52013
1.45271
1.29402
1.10405
0.918572
0.706391
0.488036
0.280816
0.0730173
-0.157844
-0.435661
-0.759458
-1.11035
-1.47114
-1.87891
-2.34381
-2.83399
-3.44671
-4.2873
-5.40154
-6.66159
-7.89457
-9.1218
-9.63155
-8.43572
-6.21825
-4.24452
-2.82412
-1.84869
-1.15996
-0.638861
-0.204104
0.78261
2.10429
3.13957
3.80687
3.87425
3.75346
3.65137
3.3791
3.12425
3.04448
3.13581
3.26746
3.28949
3.37389
3.4225
3.20816
2.95177
2.76118
2.49391
2.25941
2.15344
2.16779
2.21126
2.18163
2.18903
2.17192
1.98913
1.78754
1.67867
1.66294
1.66936
1.61601
1.58843
1.54039
1.36205
1.15467
0.969554
0.745462
0.516868
0.310095
0.108048
-0.117754
-0.40053
-0.737158
-1.10005
-1.45795
-1.87041
-2.35018
-2.82341
-3.42859
-4.30831
-5.54489
-6.96972
-8.35354
-9.92682
-10.7535
-9.26458
-6.48345
-4.21685
-2.71001
-1.73468
-1.07366
-0.586785
-0.186815
0.903365
2.34769
3.4778
4.22352
4.16731
3.95156
3.85172
3.49232
3.16119
3.06944
3.20411
3.38672
3.38068
3.50262
3.6112
3.33034
3.02508
2.84791
2.53376
2.25712
2.14958
2.19747
2.27785
2.23137
2.26185
2.27985
2.04901
1.80192
1.6866
1.69532
1.73065
1.66465
1.6559
1.63801
1.43017
1.20073
1.02243
0.783299
0.542132
0.337593
0.14406
-0.0733923
-0.361241
-0.713055
-1.09073
-1.43956
-1.85517
-2.35696
-2.79935
-3.38223
-4.29066
-5.66207
-7.2687
-8.77241
-10.7756
-12.0712
-10.1938
-6.68266
-4.11005
-2.5447
-1.59242
-0.972728
-0.527798
-0.167498
1.05388
2.61082
3.8384
4.69949
4.46299
4.12979
4.06841
3.59786
3.17337
3.07141
3.2648
3.519
3.45551
3.62701
3.8293
3.44954
3.08279
2.94409
2.56826
2.23858
2.13087
2.22272
2.35379
2.27149
2.33269
2.40712
2.10783
1.80292
1.68219
1.72372
1.79905
1.70562
1.7213
1.74972
1.49741
1.23984
1.07887
0.819678
0.562749
0.362825
0.180811
-0.0241644
-0.317486
-0.687506
-1.0846
-1.41552
-1.83226
-2.3692
-2.76275
-3.30643
-4.22902
-5.75137
-7.56457
-9.12467
-11.6556
-13.6381
-11.2404
-6.78241
-3.91053
-2.32734
-1.42423
-0.859312
-0.463209
-0.14658
1.24651
2.89157
4.21563
5.25168
4.75429
4.27619
4.3118
3.69471
3.1565
3.04718
3.31745
3.67358
3.50629
3.74325
4.08931
3.56237
3.11782
3.05703
2.59716
2.20123
2.09534
2.24339
2.44527
2.29718
2.39926
2.56186
2.16459
1.7876
1.66364
1.74787
1.87938
1.73516
1.78272
1.88138
1.56217
1.26869
1.14152
0.854266
0.577423
0.385368
0.217987
0.030722
-0.268863
-0.660679
-1.0846
-1.38495
-1.79972
-2.39357
-2.71449
-3.20044
-4.11706
-5.81106
-7.86986
-9.37569
-12.5456
-15.5238
-12.4233
-6.73756
-3.6058
-2.05935
-1.23349
-0.73593
-0.39442
-0.124503
1.49927
3.18599
4.59965
5.9037
5.03128
4.37466
4.59731
3.78095
3.10569
2.99332
3.36086
3.86372
3.52216
3.84558
4.40854
3.6636
3.12029
3.19729
2.61963
2.14207
2.04083
2.25881
2.56105
2.30151
2.45803
2.75511
2.21722
1.7525
1.62906
1.76715
1.97849
1.7479
1.83731
2.04106
1.62203
1.28283
1.21438
0.8865
0.584599
0.404928
0.255145
0.0922894
-0.21491
-0.632429
-1.09458
-1.34646
-1.75413
-2.43895
-2.65499
-3.06427
-3.94714
-5.83864
-8.20652
-9.48119
-13.4122
-17.8184
-13.7636
-6.48819
-3.18623
-1.74483
-1.02455
-0.605329
-0.32285
-0.101702
1.83796
3.48773
4.97497
6.68812
5.28021
4.40381
4.94715
3.85299
3.01549
2.90634
3.39237
4.10797
3.48818
3.92573
4.8105
3.7455
3.07678
3.37983
2.63372
2.05768
1.96511
2.26732
2.7133
2.27489
2.50383
3.00163
2.26214
1.69371
1.57667
1.78016
2.10594
1.73642
1.88106
2.2398
1.67336
1.27634
1.30323
0.915403
0.582424
0.421421
0.291646
0.161836
-0.15516
-0.602112
-1.11968
-1.29814
-1.69005
-2.517
-2.5838
-2.89904
-3.71008
-5.82979
-8.60927
-9.38569
-14.2058
-20.6382
-15.2833
-5.95596
-2.64745
-1.39075
-0.802485
-0.470329
-0.249877
-0.0785862
2.29881
3.78725
5.31861
7.64925
5.48231
4.33571
5.3924
3.90452
2.87999
2.78292
3.40697
4.43182
3.3842
3.97215
5.32671
3.79703
2.96948
3.6253
2.63568
1.94429
1.86602
2.26573
2.91868
2.20432
2.52944
3.32102
2.29352
1.60696
1.50491
1.78434
2.27482
1.69069
1.90843
2.49239
1.71099
1.24148
1.41624
0.939338
0.568718
0.435078
0.326553
0.240995
-0.0892378
-0.568346
-1.1666
-1.23749
-1.59935
-2.64303
-2.49893
-2.70751
-3.39492
-5.77673
-9.12983
-9.02098
-14.8557
-24.1316
-17.0051
-5.0401
-1.99352
-1.00697
-0.572821
-0.333681
-0.176772
-0.0555277
2.93173
4.07103
5.59781
8.84639
5.6125
4.13436
5.97549
3.92516
2.69309
2.62031
3.39617
4.86962
3.18364
3.96914
5.99866
3.80291
2.77516
3.96176
2.61911
1.79794
1.74172
2.24857
3.19962
2.07259
2.52509
3.73889
2.30244
1.48787
1.41271
1.77529
2.50276
1.5974
1.91194
2.81835
1.7277
1.16832
1.56459
0.955664
0.540966
0.446582
0.358513
0.331817
-0.0169979
-0.528689
-1.24407
-1.16152
-1.47046
-2.83697
-2.39597
-2.49475
-2.9888
-5.66594
-9.84166
-8.30477
-15.2644
-28.4862
-18.9508
-3.61292
-1.24083
-0.605813
-0.341145
-0.197924
-0.104658
-0.0328491
3.80405
4.3205
5.76746
10.3577
5.63774
3.75417
6.75307
3.89864
2.44883
2.41684
3.34639
5.46687
2.85212
3.89593
6.8801
3.74252
2.46415
4.42648
2.57376
1.61473
1.59102
2.20705
3.58578
1.85734
2.47789
4.28829
2.27578
1.33217
1.29981
1.74603
2.81306
1.43924
1.88185
3.24294
1.71362
1.04433
1.7633
0.96031
0.496328
0.457222
0.385603
0.436872
0.0612852
-0.479251
-1.36327
-1.06673
-1.28742
-3.12462
-2.26698
-2.26895
-2.47702
-5.47528
-10.8453
-7.13956
-15.3012
-33.937
-21.1394
-1.51516
-0.422854
-0.201267
-0.112737
-0.0652802
-0.0344874
-0.0108195
)
;

boundaryField
{
    left
    {
        type            calculated;
        value           uniform 0;
    }
    right
    {
        type            calculated;
        value           uniform 0;
    }
    interface
    {
        type            calculated;
        value           nonuniform List<scalar> 
64
(
3.80405
4.3205
5.76746
10.3577
5.63774
3.75417
6.75307
3.89864
2.44883
2.41684
3.34639
5.46687
2.85212
3.89593
6.8801
3.74252
2.46415
4.42648
2.57376
1.61473
1.59102
2.20705
3.58578
1.85734
2.47789
4.28829
2.27578
1.33217
1.29981
1.74603
2.81306
1.43924
1.88185
3.24294
1.71362
1.04433
1.7633
0.96031
0.496328
0.457222
0.385603
0.436872
0.0612852
-0.479251
-1.36327
-1.06673
-1.28742
-3.12462
-2.26698
-2.26895
-2.47702
-5.47528
-10.8453
-7.13956
-15.3012
-33.937
-21.1394
-1.51516
-0.422854
-0.201267
-0.112737
-0.0652802
-0.0344874
-0.0108195
)
;
    }
    bottom
    {
        type            calculated;
        value           nonuniform List<scalar> 
64
(
0.0063049
0.0187343
0.0306386
0.0417201
0.0517497
0.0605781
0.068135
0.0744181
0.0794772
0.083395
0.0862715
0.0882109
0.0893151
0.0896811
0.0894013
0.0885648
0.0872584
0.0855657
0.0835645
0.0813233
0.0788978
0.0763287
0.0736409
0.0708446
0.0679374
0.0649073
0.0617348
0.0583943
0.0548549
0.0510807
0.0470314
0.0426634
0.0379315
0.0327911
0.0272004
0.0211218
0.014523
0.00737783
-0.000333221
-0.00862185
-0.0174896
-0.0269241
-0.0368941
-0.0473421
-0.0581766
-0.0692628
-0.0804136
-0.0913819
-0.101857
-0.111464
-0.119782
-0.12636
-0.130754
-0.13257
-0.131512
-0.127416
-0.120277
-0.110248
-0.0976154
-0.0827649
-0.0661295
-0.0481501
-0.0292468
-0.00980734
)
;
    }
    defaultFaces
    {
        type            empty;
    }
}


// ************************************************************************* //
