/*--------------------------------*- C++ -*----------------------------------*\
| =========                 |                                                 |
| \\      /  F ield         | OpenFOAM: The Open Source CFD Toolbox           |
|  \\    /   O peration     | Version:  5.x                                   |
|   \\  /    A nd           | Web:      www.OpenFOAM.org                      |
|    \\/     M anipulation  |                                                 |
\*---------------------------------------------------------------------------*/
FoamFile
{
    version     2.0;
    format      ascii;
    class       volScalarField;
    location    "10.6";
    object      gradTx;
}
// * * * * * * * * * * * * * * * * * * * * * * * * * * * * * * * * * * * * * //

dimensions      [0 -1 0 1 0 0 0];

internalField   nonuniform List<scalar> 
2048
(
0.00630506
0.0187347
0.0306393
0.041721
0.0517509
0.0605797
0.0681369
0.0744204
0.0794798
0.0833981
0.0862748
0.0882146
0.0893191
0.0896853
0.0894057
0.0885693
0.087263
0.0855704
0.0835691
0.0813278
0.0789022
0.0763329
0.0736448
0.0708482
0.0679406
0.0649101
0.061737
0.058396
0.054856
0.0510813
0.0470314
0.0426629
0.0379306
0.0327899
0.0271989
0.0211201
0.0145212
0.00737608
-0.000334907
-0.00862342
-0.017491
-0.0269254
-0.0368953
-0.0473432
-0.0581776
-0.0692637
-0.0804145
-0.0913828
-0.101857
-0.111465
-0.119783
-0.126361
-0.130755
-0.132571
-0.131513
-0.127417
-0.120278
-0.110248
-0.0976163
-0.0827657
-0.0661301
-0.0481506
-0.0292471
-0.00980746
0.0187888
0.0558191
0.0912586
0.124209
0.153983
0.180142
0.202484
0.221019
0.235907
0.247408
0.255826
0.261477
0.264662
0.265668
0.264767
0.262223
0.258292
0.253224
0.247251
0.240579
0.233375
0.225759
0.217804
0.209538
0.200952
0.192009
0.18265
0.172799
0.162363
0.151237
0.139301
0.126424
0.112471
0.0973081
0.0808108
0.0628669
0.0433805
0.0222737
-0.000512378
-0.0250142
-0.0512393
-0.0791559
-0.108677
-0.139639
-0.17178
-0.204709
-0.237878
-0.27056
-0.301835
-0.330588
-0.355551
-0.375363
-0.388677
-0.394293
-0.3913
-0.379196
-0.357965
-0.328076
-0.290415
-0.246154
-0.19661
-0.14311
-0.0869057
-0.0291384
0.0311406
0.092485
0.15111
0.20549
0.254479
0.297361
0.333837
0.363965
0.388056
0.406577
0.420057
0.429025
0.433984
0.435397
0.433703
0.429331
0.422702
0.41423
0.404304
0.393268
0.381403
0.368906
0.355893
0.342404
0.328417
0.313865
0.298648
0.28264
0.265691
0.247626
0.228247
0.207336
0.184666
0.160014
0.133172
0.103955
0.0722034
0.03779
0.000615634
-0.0393846
-0.0822323
-0.127889
-0.176229
-0.227008
-0.279819
-0.334048
-0.388822
-0.442967
-0.494972
-0.542995
-0.584904
-0.61839
-0.641142
-0.651081
-0.646616
-0.626867
-0.591806
-0.542257
-0.479773
-0.406392
-0.324375
-0.235963
-0.143225
-0.0480094
0.0436005
0.129429
0.211279
0.286947
0.354805
0.413883
0.463836
0.504833
0.537404
0.562272
0.580225
0.592021
0.598353
0.599851
0.597104
0.590692
0.581197
0.5692
0.555255
0.539854
0.523394
0.506149
0.488272
0.469803
0.450698
0.430851
0.410119
0.388327
0.365271
0.340709
0.314363
0.285925
0.255075
0.221493
0.184887
0.144998
0.101607
0.0545373
0.00364888
-0.051157
-0.109927
-0.172634
-0.23914
-0.309149
-0.382152
-0.457354
-0.533602
-0.609313
-0.682418
-0.750341
-0.810053
-0.858213
-0.891428
-0.906602
-0.901337
-0.874298
-0.825439
-0.756019
-0.668385
-0.565596
-0.450976
-0.327747
-0.198794
-0.066611
0.0563842
0.167272
0.272728
0.36978
0.456296
0.531081
0.593814
0.644871
0.685091
0.715532
0.737282
0.751343
0.758591
0.759797
0.755677
0.746945
0.734342
0.718624
0.700525
0.6807
0.659671
0.63779
0.615236
0.592033
0.568099
0.543281
0.517385
0.490193
0.461449
0.430849
0.398035
0.362605
0.324132
0.282197
0.236417
0.186461
0.132052
0.0729676
0.00902724
-0.0599072
-0.133921
-0.21302
-0.297083
-0.385806
-0.478619
-0.574605
-0.672388
-0.770033
-0.864944
-0.953814
-1.03266
-1.097
-1.14218
-1.16387
-1.15869
-1.12471
-1.06186
-0.971951
-0.858336
-0.72532
-0.577486
-0.419137
-0.253976
-0.0850564
0.0696964
0.206603
0.336349
0.455083
0.560135
0.650125
0.72486
0.785053
0.831976
0.867116
0.891918
0.907639
0.915317
0.915828
0.909981
0.898604
0.882592
0.86289
0.84044
0.816083
0.790481
0.764064
0.737021
0.709341
0.680878
0.651416
0.62071
0.588502
0.554494
0.518327
0.479562
0.437691
0.39217
0.34247
0.28811
0.228685
0.16387
0.0934005
0.0170589
-0.0653369
-0.153925
-0.248768
-0.349798
-0.456743
-0.569033
-0.685688
-0.805186
-0.925306
-1.04298
-1.15418
-1.25393
-1.33643
-1.39554
-1.42544
-1.42144
-1.38087
-1.30359
-1.19215
-1.0512
-0.88663
-0.704546
-0.510469
-0.308919
-0.103385
0.0837414
0.248002
0.403012
0.543894
0.667397
0.772031
0.857866
0.926123
0.978668
1.01754
1.04459
1.06135
1.06898
1.0684
1.06046
1.04608
1.02631
1.0023
0.975244
0.946202
0.916001
0.885146
0.853817
0.821933
0.789253
0.755479
0.720311
0.683462
0.644611
0.603354
0.559167
0.511423
0.459445
0.402572
0.34022
0.271915
0.197287
0.116046
0.0279415
-0.067254
-0.169746
-0.279681
-0.39708
-0.521752
-0.653184
-0.790411
-0.931846
-1.07508
-1.21665
-1.35185
-1.47463
-1.57775
-1.65328
-1.6935
-1.69205
-1.64523
-1.55283
-1.41832
-1.24812
-1.05015
-0.832391
-0.601759
-0.363566
-0.121568
0.0987306
0.292064
0.473592
0.637224
0.779096
0.897697
0.993556
1.06862
1.12556
1.16709
1.19557
1.21276
1.21989
1.21785
1.20748
1.18972
1.16579
1.13709
1.10511
1.07119
1.03635
1.00116
0.965773
0.929984
0.893418
0.855665
0.81637
0.775237
0.731952
0.68608
0.63701
0.583979
0.526145
0.462696
0.392932
0.316313
0.232442
0.14102
0.0417779
-0.0655582
-0.181275
-0.305631
-0.438776
-0.580648
-0.730852
-0.888517
-1.0521
-1.21911
-1.38581
-1.54689
-1.69519
-1.82186
-1.91683
-1.96998
-1.97277
-1.92007
-1.81152
-1.65187
-1.44986
-1.21608
-0.960871
-0.692715
-0.417663
-0.139506
0.11489
0.339421
0.548999
0.736098
0.8962
1.02792
1.13251
1.21291
1.27284
1.31588
1.34494
1.362
1.36825
1.36446
1.35133
1.32981
1.30127
1.26744
1.23016
1.19112
1.15158
1.11219
1.07301
1.03365
0.993552
0.95215
0.909039
0.86395
0.816617
0.766601
0.713202
0.655487
0.592413
0.522984
0.446371
0.361976
0.269401
0.168361
0.0585892
-0.0602299
-0.18848
-0.32656
-0.47479
-0.633283
-0.801824
-0.979718
-1.16557
-1.35698
-1.55007
-1.73903
-1.91568
-2.06932
-2.18735
-2.25664
-2.26576
-2.20759
-2.0815
-1.89395
-1.65682
-1.38424
-1.08946
-0.782742
-0.470767
-0.157037
0.132466
0.390753
0.6302
0.841566
1.01966
1.16343
1.27516
1.35917
1.4205
1.46382
1.49264
1.50907
1.51418
1.50844
1.49228
1.46661
1.43297
1.39347
1.35045
1.30601
1.26172
1.21829
1.17563
1.13309
1.08983
1.04511
0.998456
0.949691
0.898663
0.84497
0.787808
0.726034
0.658354
0.583542
0.500621
0.408952
0.308167
0.198037
0.0783248
-0.0513205
-0.191393
-0.342469
-0.505078
-0.679553
-0.865911
-1.06371
-1.27184
-1.48813
-1.70881
-1.92776
-2.13582
-2.32035
-2.46575
-2.5551
-2.57315
-2.51
-2.36453
-2.14549
-1.86906
-1.55403
-1.21724
-0.870958
-0.52226
-0.173941
0.151729
0.446809
0.718234
0.954725
1.15041
1.30487
1.42183
1.50741
1.56837
1.61066
1.63844
1.65391
1.65775
1.64996
1.63059
1.60037
1.56107
1.51531
1.46599
1.41582
1.36672
1.31945
1.27371
1.22845
1.18244
1.13471
1.08474
1.03252
0.978107
0.921194
0.860858
0.795681
0.72405
0.644451
0.555736
0.457245
0.348694
0.229961
0.100871
-0.0389442
-0.190109
-0.353417
-0.529652
-0.719406
-0.922962
-1.14021
-1.37044
-1.61193
-1.86124
-2.11227
-2.35504
-2.57488
-2.75269
-2.86689
-2.89713
-2.82962
-2.66238
-2.40726
-2.0863
-1.72444
-1.34296
-0.956209
-0.57136
-0.189945
0.172984
0.508412
0.814233
1.07673
1.28939
1.4528
1.5727
1.65749
1.71609
1.75598
1.78204
1.79634
1.79897
1.78922
1.76651
1.73135
1.68577
1.63301
1.57677
1.52047
1.4665
1.41568
1.36733
1.31988
1.27159
1.22115
1.16802
1.11246
1.05492
0.995243
0.932349
0.864466
0.789568
0.70578
0.611748
0.506829
0.390895
0.263991
0.126059
-0.0232707
-0.184775
-0.359515
-0.54858
-0.752848
-0.97289
-1.20897
-1.46092
-1.72766
-2.00643
-2.2915
-2.57242
-2.83248
-3.04861
-3.19342
-3.23999
-3.169
-2.97693
-2.67985
-2.30787
-1.89402
-1.46495
-1.03709
-0.617152
-0.204733
0.19657
0.576477
0.919431
1.20882
1.43753
1.60771
1.72782
1.80912
1.86313
1.89922
1.923
1.93615
1.93785
1.92639
1.90035
1.85982
1.80722
1.74664
1.68273
1.61983
1.56095
1.50694
1.45659
1.40757
1.35751
1.30464
1.2484
1.18953
1.12904
1.06705
1.00226
0.932413
0.854972
0.767596
0.668679
0.557652
0.434643
0.299944
0.153672
-0.00451742
-0.17558
-0.360916
-0.56198
-0.779948
-1.01567
-1.26982
-1.54287
-1.83461
-2.14332
-2.46418
-2.78674
-3.09241
-3.35363
-3.53606
-3.60422
-3.53098
-3.31021
-2.96367
-2.5327
-2.0609
-1.58124
-1.11198
-0.658618
-0.217962
0.222865
0.652016
1.03517
1.35229
1.59573
1.77001
1.88713
1.96183
2.0088
2.03969
2.06079
2.07307
2.07437
2.06169
2.03242
1.98608
1.92563
1.85625
1.78376
1.7137
1.64988
1.59316
1.54156
1.49172
1.44046
1.38543
1.32602
1.26367
1.20034
1.1365
1.07054
0.999538
0.920326
0.829975
0.726546
0.609642
0.479786
0.337598
0.183448
0.0170566
-0.162751
-0.357807
-0.570013
-0.800843
-1.05137
-1.32267
-1.61595
-1.93209
-2.27079
-2.62882
-2.99647
-3.35354
-3.66759
-3.89603
-3.99251
-3.91884
-3.66447
-3.25896
-2.75923
-2.2227
-1.6895
-1.1791
-0.694677
-0.229273
0.252297
0.736144
1.16293
1.50854
1.7649
1.93999
2.05044
2.11504
2.15225
2.17654
2.19484
2.20686
2.20854
2.19536
2.16313
2.11048
2.04116
1.96187
1.87975
1.80184
1.73309
1.6743
1.62236
1.57256
1.52076
1.46382
1.401
1.33483
1.26866
1.20347
1.13714
1.06585
0.985703
0.893008
0.78537
0.662711
0.526144
0.376701
0.215087
0.0411572
-0.146538
-0.3504
-0.572878
-0.815729
-1.08014
-1.36752
-1.67991
-2.01947
-2.38769
-2.78378
-3.19975
-3.61438
-3.98996
-4.27439
-4.40782
-4.33648
-4.04232
-3.56569
-2.98538
-2.37656
-1.78714
-1.23656
-0.724242
-0.238318
0.285349
0.830084
1.30431
1.67906
1.9459
2.11783
2.21746
2.26801
2.2925
2.30882
2.32451
2.33723
2.34035
2.32769
2.29296
2.23337
2.15399
2.06353
1.97055
1.88397
1.8103
1.75026
1.69912
1.65034
1.59876
1.54018
1.4735
1.40288
1.33375
1.26778
1.20199
1.13136
1.05119
0.95682
0.845175
0.716748
0.573522
0.416972
0.248257
0.0674595
-0.127212
-0.338914
-0.570799
-0.824865
-1.10223
-1.40449
-1.73466
-2.09625
-2.49288
-2.92726
-3.39446
-3.87305
-4.31979
-4.6719
-4.85338
-4.78853
-4.44679
-3.88354
-3.20839
-2.5191
-1.87132
-1.28246
-0.746273
-0.24477
0.322568
0.935164
1.46101
1.86545
2.1395
2.30351
2.38779
2.41994
2.42837
2.43545
2.44915
2.46397
2.46982
2.459
2.42248
2.35517
2.26429
2.1613
2.05599
1.95971
1.88118
1.82098
1.772
1.72532
1.67485
1.61495
1.54367
1.46764
1.39532
1.32923
1.26506
1.19607
1.11688
1.02158
0.905995
0.771626
0.621711
0.458115
0.28259
0.0956123
-0.105047
-0.323566
-0.564016
-0.828564
-1.11796
-1.43381
-1.78022
-2.1621
-2.58531
-3.05736
-3.57819
-4.1273
-4.65565
-5.08893
-5.33272
-5.2807
-4.88148
-4.21167
-3.42469
-2.64644
-1.93907
-1.31497
-0.75984
-0.248354
0.364594
1.0528
1.63486
2.06949
2.34639
2.49685
2.56097
2.5699
2.55857
2.55523
2.56812
2.58695
2.59691
2.58965
2.55243
2.4763
2.37216
2.25525
2.13591
2.02863
1.94534
1.88639
1.84124
1.79777
1.74949
1.68871
1.61171
1.52883
1.45295
1.38761
1.32632
1.25996
1.18289
1.08752
0.967872
0.827179
0.670499
0.499819
0.317687
0.12524
-0.0803203
-0.304551
-0.552763
-0.827189
-1.12777
-1.45581
-1.81676
-2.2169
-2.66404
-3.17213
-3.7483
-4.37452
-4.99561
-5.52519
-5.8496
-5.81999
-5.35067
-4.54863
-3.62981
-2.7542
-1.9874
-1.33241
-0.764184
-0.248858
0.412192
1.18449
1.82776
2.29311
2.56711
2.69734
2.73656
2.71698
2.68163
2.66683
2.68082
2.70614
2.72156
2.72001
2.68373
2.5972
2.47761
2.34553
2.21014
2.09019
2.00229
1.94643
1.90715
1.86792
1.82313
1.76217
1.67785
1.58609
1.50617
1.44271
1.38581
1.32299
1.24932
1.15496
1.03085
0.883196
0.719687
0.541771
0.353116
0.155945
-0.0532977
-0.282032
-0.537262
-0.821143
-1.13219
-1.4709
-1.84463
-2.2608
-2.72831
-3.26957
-3.90192
-4.61187
-5.33726
-5.97948
-6.40789
-6.41521
-5.85951
-4.89196
-3.81814
-2.83756
-2.01339
-1.3334
-0.758772
-0.246157
0.46632
1.33176
2.04165
2.5386
2.80194
2.9041
2.9142
2.86023
2.7959
2.76879
2.78671
2.82176
2.84357
2.8504
2.8176
2.71828
2.58053
2.43241
2.27858
2.14376
2.05145
2.0011
1.97016
1.93592
1.89622
1.83629
1.74233
1.63888
1.55433
1.49432
1.44368
1.38506
1.31626
1.22438
1.09497
0.939387
0.769108
0.583666
0.388404
0.187304
-0.0242332
-0.256115
-0.517702
-0.81087
-1.13185
-1.47953
-1.86426
-2.29429
-2.77757
-3.34768
-4.03598
-4.83628
-5.67772
-6.44925
-7.01138
-7.0775
-6.41418
-5.23786
-3.98282
-2.89141
-2.0144
-1.31693
-0.743342
-0.240216
0.528241
1.49611
2.27838
2.80868
3.05087
3.11575
3.09376
2.99878
2.89955
2.85948
2.88538
2.93432
2.9625
2.98108
2.95567
2.83988
2.68051
2.51636
2.34116
2.18855
2.09211
2.05045
2.03092
2.00177
1.96917
1.91232
1.80544
1.68651
1.59668
1.54225
1.50022
1.44594
1.38377
1.29643
1.16024
0.995345
0.818663
0.625215
0.423034
0.21887
0.00663752
-0.226839
-0.494221
-0.796842
-1.12748
-1.48219
-1.87618
-2.31827
-2.81155
-3.4045
-4.14725
-5.04465
-6.01387
-6.93013
-7.66349
-7.82112
-7.02218
-5.58052
-4.11556
-2.9105
-1.98822
-1.28245
-0.717933
-0.231103
0.599707
1.67893
2.5396
3.10679
3.31343
3.33016
3.27555
3.13185
2.99049
2.93709
2.97654
3.04484
3.07756
3.11214
3.1002
2.96219
2.77678
2.59817
2.39787
2.22361
2.12342
2.09457
2.09034
2.06521
2.04229
1.99194
1.86745
1.72804
1.63228
1.58636
1.55597
1.50525
1.4518
1.37209
1.22663
1.05049
0.868372
0.666156
0.456424
0.250173
0.0390966
-0.194155
-0.466895
-0.779554
-1.11997
-1.4793
-1.88093
-2.33412
-2.83025
-3.43813
-4.23226
-5.23399
-6.34263
-7.41528
-8.36669
-8.66449
-7.69245
-5.91143
-4.20655
-2.88964
-1.93326
-1.22994
-0.682894
-0.218983
0.683245
1.88139
2.82651
3.43744
3.58853
3.5442
3.46066
3.25881
3.06633
2.99956
3.06006
3.15501
3.18736
3.24334
3.25436
3.08515
2.86798
2.67914
2.4488
2.24778
2.14433
2.13364
2.14981
2.1256
2.11568
2.07746
1.92865
1.76225
1.66003
1.62658
1.61185
1.56231
1.52017
1.45275
1.294
1.10397
0.91845
0.706258
0.487916
0.280718
0.0729412
-0.157907
-0.435716
-0.759512
-1.1104
-1.47119
-1.87895
-2.34384
-2.83402
-3.44673
-4.28731
-5.40152
-6.66157
-7.89454
-9.12177
-9.63154
-8.4357
-6.21823
-4.24451
-2.82412
-1.84869
-1.15996
-0.638874
-0.204113
0.782595
2.10425
3.13951
3.8068
3.87419
3.75343
3.65136
3.37913
3.12432
3.04458
3.13595
3.2676
3.28961
3.374
3.42261
3.20828
2.95193
2.76138
2.49412
2.2596
2.15359
2.16789
2.21133
2.1817
2.18913
2.17204
1.98921
1.78754
1.67862
1.66288
1.66931
1.616
1.58846
1.54043
1.36204
1.1546
0.969424
0.74532
0.516743
0.309995
0.107974
-0.117814
-0.400584
-0.737213
-1.10011
-1.45801
-1.87046
-2.35022
-2.82344
-3.42861
-4.30831
-5.54486
-6.96968
-8.35351
-9.92679
-10.7535
-9.26457
-6.48344
-4.21683
-2.71001
-1.73468
-1.07367
-0.586798
-0.186824
0.903348
2.34764
3.47772
4.22344
4.16725
3.95152
3.85171
3.49235
3.16125
3.06953
3.20425
3.38686
3.3808
3.50273
3.61131
3.33047
3.02525
2.84813
2.53399
2.25732
2.14973
2.19756
2.2779
2.23143
2.26196
2.28
2.04912
1.80194
1.68654
1.69524
1.73057
1.66462
1.65593
1.63806
1.43018
1.20066
1.02229
0.783148
0.542003
0.337492
0.143989
-0.0734485
-0.361293
-0.713112
-1.0908
-1.43963
-1.85523
-2.35701
-2.79938
-3.38225
-4.29066
-5.66203
-7.26866
-8.77237
-10.7755
-12.0712
-10.1938
-6.68265
-4.11003
-2.54469
-1.59242
-0.972734
-0.527811
-0.167507
1.05386
2.61077
3.83831
4.6994
4.46292
4.12975
4.06839
3.59788
3.17343
3.0715
3.26494
3.51915
3.45563
3.62713
3.82941
3.44968
3.08298
2.94433
2.5685
2.23878
2.13101
2.22278
2.35381
2.27153
2.33282
2.40731
2.10799
1.80297
1.68213
1.7236
1.79894
1.70557
1.72133
1.74979
1.49743
1.23976
1.07872
0.819518
0.562617
0.362724
0.180745
-0.0242162
-0.317535
-0.687565
-1.08468
-1.4156
-1.83232
-2.36925
-2.76279
-3.30644
-4.22902
-5.75133
-7.56451
-9.12463
-11.6556
-13.6381
-11.2404
-6.7824
-3.91052
-2.32733
-1.42423
-0.859318
-0.463221
-0.146588
1.24649
2.89151
4.21553
5.25158
4.75421
4.27615
4.31177
3.69473
3.15656
3.04727
3.3176
3.67374
3.50641
3.74336
4.08943
3.56252
3.11803
3.0573
2.59742
2.20143
2.09546
2.24342
2.44526
2.2972
2.39941
2.56211
2.1648
1.78767
1.66357
1.74773
1.87924
1.73508
1.78274
1.88145
1.5622
1.26862
1.14136
0.854098
0.577292
0.38527
0.217925
0.0306743
-0.268909
-0.660739
-1.08468
-1.38504
-1.7998
-2.39364
-2.71453
-3.20045
-4.11705
-5.81101
-7.8698
-9.37565
-12.5456
-15.5238
-12.4233
-6.73756
-3.60579
-2.05935
-1.23349
-0.735936
-0.39443
-0.12451
1.49924
3.18593
4.59953
5.90358
5.0312
4.37461
4.59727
3.78096
3.10574
2.9934
3.36102
3.8639
3.52228
3.84568
4.40865
3.66376
3.12052
3.1976
2.61991
2.14225
2.04093
2.25881
2.56101
2.30152
2.45819
2.7554
2.21747
1.75259
1.62899
1.76699
1.97831
1.74779
1.83733
2.04113
1.62205
1.28276
1.2142
0.886323
0.584473
0.404835
0.255088
0.0922447
-0.214953
-0.632488
-1.09468
-1.34656
-1.75421
-2.43903
-2.65503
-3.06427
-3.94713
-5.83858
-8.20644
-9.48115
-13.4122
-17.8184
-13.7636
-6.48819
-3.18622
-1.74483
-1.02455
-0.605333
-0.322858
-0.101707
1.83793
3.48767
4.97484
6.68798
5.28013
4.40376
4.9471
3.85298
3.01554
2.90641
3.39254
4.10818
3.4883
3.92581
4.81061
3.74567
3.07703
3.38018
2.63401
2.05784
1.96519
2.2673
2.71325
2.27489
2.504
3.00195
2.26242
1.69381
1.57661
1.77999
2.10573
1.73629
1.88107
2.23987
1.67339
1.27626
1.30303
0.91522
0.582307
0.421334
0.291593
0.161792
-0.155201
-0.60217
-1.11978
-1.29824
-1.69013
-2.5171
-2.58385
-2.89904
-3.71008
-5.82972
-8.60918
-9.38564
-14.2058
-20.6382
-15.2833
-5.95597
-2.64744
-1.39075
-0.802486
-0.470332
-0.249883
-0.0785904
2.29878
3.7872
5.31846
7.64907
5.48223
4.33566
5.39234
3.9045
2.88004
2.78298
3.40718
4.43207
3.38432
3.9722
5.32679
3.79718
2.96975
3.62571
2.63599
1.94443
1.86608
2.26571
2.91863
2.20433
2.52962
3.32136
2.29381
1.60707
1.50485
1.78416
2.2746
1.69056
1.90843
2.49247
1.71102
1.24139
1.41601
0.939147
0.568615
0.435
0.326505
0.240948
-0.0892789
-0.568399
-1.1667
-1.2376
-1.59944
-2.64315
-2.499
-2.7075
-3.39491
-5.77664
-9.12972
-9.02093
-14.8557
-24.1316
-17.0051
-5.0401
-1.99351
-1.00696
-0.572822
-0.333683
-0.176775
-0.0555309
2.9317
4.07098
5.59763
8.84617
5.61241
4.13432
5.97541
3.92512
2.69312
2.62035
3.3964
4.86995
3.18378
3.96916
5.99869
3.80302
2.77543
3.96224
2.61944
1.79805
1.74177
2.24855
3.19961
2.07261
2.52527
3.73921
2.30269
1.48796
1.41267
1.77513
2.50255
1.59728
1.91196
2.81842
1.72772
1.16822
1.56433
0.955462
0.540881
0.446515
0.358469
0.33176
-0.0170404
-0.528734
-1.24417
-1.16161
-1.47056
-2.83714
-2.39606
-2.49474
-2.98879
-5.66583
-9.84152
-8.30472
-15.2644
-28.4862
-18.9508
-3.61293
-1.24083
-0.605811
-0.341146
-0.197925
-0.104661
-0.0328516
3.804
4.32045
5.76725
10.3574
5.63763
3.75414
6.75297
3.89857
2.44885
2.41686
3.34667
5.46732
2.8523
3.89591
6.88005
3.74254
2.46441
4.42705
2.57413
1.61481
1.59107
2.20706
3.58583
1.8574
2.47804
4.28855
2.27594
1.33221
1.2998
1.74589
2.81289
1.43917
1.88189
3.24301
1.71364
1.04421
1.76298
0.96009
0.496264
0.457168
0.385562
0.436799
0.0612396
-0.47928
-1.36335
-1.0668
-1.28752
-3.12484
-2.26711
-2.26894
-2.47701
-5.47515
-10.8451
-7.1395
-15.3012
-33.9369
-21.1394
-1.51516
-0.422853
-0.201267
-0.112737
-0.0652804
-0.0344885
-0.010821
)
;

boundaryField
{
    left
    {
        type            calculated;
        value           uniform 0;
    }
    right
    {
        type            calculated;
        value           uniform 0;
    }
    interface
    {
        type            calculated;
        value           nonuniform List<scalar> 
64
(
3.804
4.32045
5.76725
10.3574
5.63763
3.75414
6.75297
3.89857
2.44885
2.41686
3.34667
5.46732
2.8523
3.89591
6.88005
3.74254
2.46441
4.42705
2.57413
1.61481
1.59107
2.20706
3.58583
1.8574
2.47804
4.28855
2.27594
1.33221
1.2998
1.74589
2.81289
1.43917
1.88189
3.24301
1.71364
1.04421
1.76298
0.96009
0.496264
0.457168
0.385562
0.436799
0.0612396
-0.47928
-1.36335
-1.0668
-1.28752
-3.12484
-2.26711
-2.26894
-2.47701
-5.47515
-10.8451
-7.1395
-15.3012
-33.9369
-21.1394
-1.51516
-0.422853
-0.201267
-0.112737
-0.0652804
-0.0344885
-0.010821
)
;
    }
    bottom
    {
        type            calculated;
        value           nonuniform List<scalar> 
64
(
0.00630506
0.0187347
0.0306393
0.041721
0.0517509
0.0605797
0.0681369
0.0744204
0.0794798
0.0833981
0.0862748
0.0882146
0.0893191
0.0896853
0.0894057
0.0885693
0.087263
0.0855704
0.0835691
0.0813278
0.0789022
0.0763329
0.0736448
0.0708482
0.0679406
0.0649101
0.061737
0.058396
0.054856
0.0510813
0.0470314
0.0426629
0.0379306
0.0327899
0.0271989
0.0211201
0.0145212
0.00737608
-0.000334907
-0.00862342
-0.017491
-0.0269254
-0.0368953
-0.0473432
-0.0581776
-0.0692637
-0.0804145
-0.0913828
-0.101857
-0.111465
-0.119783
-0.126361
-0.130755
-0.132571
-0.131513
-0.127417
-0.120278
-0.110248
-0.0976163
-0.0827657
-0.0661301
-0.0481506
-0.0292471
-0.00980746
)
;
    }
    defaultFaces
    {
        type            empty;
    }
}


// ************************************************************************* //
