/*--------------------------------*- C++ -*----------------------------------*\
| =========                 |                                                 |
| \\      /  F ield         | OpenFOAM: The Open Source CFD Toolbox           |
|  \\    /   O peration     | Version:  5.x                                   |
|   \\  /    A nd           | Web:      www.OpenFOAM.org                      |
|    \\/     M anipulation  |                                                 |
\*---------------------------------------------------------------------------*/
FoamFile
{
    version     2.0;
    format      ascii;
    class       volScalarField;
    location    "2.7";
    object      gradTx;
}
// * * * * * * * * * * * * * * * * * * * * * * * * * * * * * * * * * * * * * //

dimensions      [0 -1 0 1 0 0 0];

internalField   nonuniform List<scalar> 
6300
(
-29.808
-29.8769
-30.014
-30.218
-30.4866
-30.817
-31.2049
-31.6452
-32.1315
-32.656
-33.2098
-33.7831
-34.3651
-34.9454
-35.5137
-29.7392
-29.8088
-29.9472
-30.1533
-30.425
-30.7594
-31.1526
-31.5993
-32.0933
-32.6268
-33.1905
-33.7743
-34.367
-34.9574
-35.5345
-29.6009
-29.6717
-29.8129
-30.0232
-30.3009
-30.6433
-31.0467
-31.5063
-32.0158
-32.5673
-33.1512
-33.7567
-34.3714
-34.9827
-35.5781
-29.3919
-29.4645
-29.6094
-29.8257
-30.112
-30.4661
-30.8848
-31.3635
-31.8964
-32.4754
-33.0906
-33.7298
-34.3793
-35.0239
-35.6486
-29.1103
-29.1851
-29.3347
-29.5584
-29.8555
-30.2244
-30.6628
-31.1668
-31.7309
-32.3474
-33.0059
-33.6929
-34.3922
-35.0851
-35.7525
-28.7539
-28.8311
-28.9858
-29.2178
-29.5272
-29.9134
-30.3752
-30.9099
-31.5131
-32.1776
-32.8928
-33.6438
-34.4114
-35.1721
-35.8999
-28.3203
-28.3999
-28.5595
-28.8
-29.1221
-29.5269
-30.0147
-30.5847
-31.2342
-31.9573
-32.7439
-33.5783
-34.4376
-35.292
-36.1056
-27.8071
-27.8887
-28.0525
-28.3004
-28.6346
-29.0576
-29.5721
-30.1801
-30.8816
-31.6735
-32.5474
-33.4878
-34.4688
-35.4529
-36.39
-27.2125
-27.2951
-27.4617
-27.7147
-28.0581
-28.4968
-29.0362
-29.6821
-30.4387
-31.3076
-32.2847
-33.3567
-34.497
-35.6607
-36.78
-26.5354
-26.6178
-26.7843
-27.0387
-27.3866
-27.8353
-28.394
-29.0733
-29.8836
-30.8337
-31.9271
-33.1575
-34.502
-35.913
-37.3063
-25.776
-25.8563
-26.0192
-26.2694
-26.6142
-27.0638
-27.6314
-28.3335
-29.1888
-30.2164
-31.4327
-32.8443
-34.4406
-36.1831
-37.9892
-24.9364
-25.0124
-25.1669
-25.4055
-25.7371
-26.1743
-26.7345
-27.4407
-28.3216
-29.4107
-30.743
-32.3468
-34.2331
-36.3899
-38.7891
-24.0209
-24.0899
-24.2305
-24.4488
-24.7544
-25.1617
-25.6917
-26.3733
-27.2463
-28.3621
-29.782
-31.5669
-33.7554
-36.3544
-39.4515
-23.0366
-23.0957
-23.2166
-23.4048
-23.67
-24.0267
-24.4972
-25.1147
-25.9282
-27.0095
-28.4564
-30.3834
-32.8672
-35.82
-39.0941
-21.9932
-22.0399
-22.1353
-22.284
-22.4941
-22.778
-23.1559
-23.66
-24.3427
-25.2914
-26.6508
-28.6431
-31.5088
-34.9616
-35.5203
-36.0175
-36.455
-36.8705
-37.2623
-37.6296
-37.9725
-38.2914
-38.5868
-38.8592
-39.1084
-39.3341
-39.5354
-39.7115
-39.8618
-39.9862
-40.0857
-40.1621
-40.2183
-40.2579
-40.2849
-40.3032
-40.3166
-40.3275
-40.3377
-40.3475
-40.3563
-40.3624
-40.364
-40.3591
-40.3463
-40.3248
-40.295
-40.2581
-40.2164
-40.1723
-40.1287
-40.0878
-40.0513
-40.0198
-39.9929
-39.9693
-39.9468
-39.9228
-39.8952
-39.8619
-39.8221
-39.7755
-39.7233
-39.6674
-39.6101
-39.5538
-39.5008
-39.4525
-39.4094
-39.3711
-39.3359
-39.3019
-39.2664
-39.227
-39.182
-39.1301
-39.0714
-39.0069
-38.9383
-38.868
-38.7986
-38.7321
-38.6701
-38.6133
-38.5614
-38.5132
-38.467
-38.4208
-38.3729
-38.3223
-38.269
-38.2142
-38.1603
-38.1108
-38.0701
-38.0425
-38.0323
-38.0427
-38.0759
-38.1322
-38.2099
-38.3058
-38.4148
-38.5304
-38.6455
-36.0449
-36.4866
-36.9047
-37.2976
-37.6649
-38.0072
-38.3252
-38.6201
-38.8925
-39.1425
-39.3693
-39.5718
-39.7488
-39.8991
-40.0222
-40.119
-40.1913
-40.2423
-40.2761
-40.2973
-40.3106
-40.32
-40.3287
-40.3383
-40.3491
-40.36
-40.369
-40.3734
-40.3706
-40.3588
-40.3369
-40.3052
-40.2653
-40.2197
-40.1718
-40.1247
-40.0815
-40.0441
-40.0132
-39.9883
-39.9677
-39.9487
-39.9283
-39.9033
-39.8715
-39.8316
-39.7836
-39.7288
-39.6694
-39.6085
-39.5491
-39.494
-39.445
-39.4026
-39.3664
-39.3344
-39.3039
-39.2719
-39.2353
-39.1917
-39.1399
-39.0798
-39.0126
-38.9407
-38.8668
-38.7942
-38.7255
-38.6626
-38.6062
-38.556
-38.5103
-38.4669
-38.4232
-38.3768
-38.3262
-38.2711
-38.2127
-38.1538
-38.0982
-38.051
-38.0174
-38.0024
-38.0099
-38.0426
-38.1011
-38.1837
-38.287
-38.4051
-38.531
-38.6565
-36.102
-36.5521
-36.9752
-37.3699
-37.7366
-38.0767
-38.3925
-38.686
-38.9584
-39.2099
-39.4395
-39.6452
-39.8246
-39.9754
-40.0964
-40.1877
-40.2514
-40.2912
-40.3125
-40.3212
-40.3235
-40.3247
-40.3287
-40.3373
-40.3507
-40.3668
-40.3823
-40.3931
-40.3953
-40.3859
-40.3631
-40.3273
-40.2806
-40.2266
-40.17
-40.1154
-40.0669
-40.0274
-39.998
-39.9776
-39.9639
-39.9529
-39.9401
-39.9212
-39.8928
-39.8529
-39.8016
-39.7407
-39.6737
-39.6047
-39.5383
-39.4785
-39.4277
-39.3871
-39.3556
-39.3306
-39.3082
-39.2839
-39.2534
-39.2133
-39.1616
-39.0984
-39.0253
-38.9457
-38.8638
-38.7842
-38.7105
-38.6455
-38.5903
-38.5439
-38.504
-38.4672
-38.4293
-38.3866
-38.3364
-38.2779
-38.212
-38.1422
-38.0735
-38.0123
-37.9655
-37.9399
-37.9409
-37.9721
-38.0349
-38.1278
-38.2465
-38.3842
-38.532
-38.6797
-36.1937
-36.6568
-37.0867
-37.4827
-37.8464
-38.1814
-38.4921
-38.7822
-39.0544
-39.309
-39.5443
-39.7566
-39.9416
-40.0949
-40.2133
-40.2963
-40.3458
-40.367
-40.367
-40.3545
-40.3382
-40.3256
-40.3219
-40.3297
-40.3483
-40.3744
-40.4023
-40.4253
-40.437
-40.4322
-40.4082
-40.3652
-40.3064
-40.2374
-40.1653
-40.0972
-40.0395
-39.9965
-39.9696
-39.9575
-39.9562
-39.9597
-39.9608
-39.9529
-39.9306
-39.8907
-39.8335
-39.7616
-39.6806
-39.5971
-39.5181
-39.4498
-39.396
-39.3584
-39.3354
-39.323
-39.3151
-39.3049
-39.2854
-39.2515
-39.2
-39.131
-39.0472
-38.9539
-38.8576
-38.7654
-38.683
-38.6145
-38.5614
-38.5223
-38.4934
-38.4689
-38.4422
-38.407
-38.3587
-38.295
-38.217
-38.1289
-38.0378
-37.9526
-37.8831
-37.8389
-37.828
-37.856
-37.9253
-38.0345
-38.1786
-38.3486
-38.5328
-38.7176
-36.3283
-36.8094
-37.2473
-37.642
-37.9977
-38.3214
-38.6212
-38.9045
-39.1758
-39.436
-39.6821
-39.9076
-40.1045
-40.2645
-40.3815
-40.453
-40.4813
-40.4732
-40.4397
-40.3935
-40.3477
-40.3135
-40.2987
-40.3065
-40.3355
-40.3795
-40.4294
-40.474
-40.5024
-40.5062
-40.4806
-40.4259
-40.3469
-40.2528
-40.1547
-40.0642
-39.9911
-39.9422
-39.9199
-39.9219
-39.9417
-39.9698
-39.9947
-40.0055
-39.9934
-39.9537
-39.8862
-39.7958
-39.6911
-39.583
-39.4827
-39.4
-39.3411
-39.3085
-39.2999
-39.3087
-39.3255
-39.339
-39.3383
-39.3148
-39.2636
-39.1848
-39.0828
-38.9662
-38.8457
-38.7322
-38.6353
-38.5612
-38.5122
-38.486
-38.4763
-38.4736
-38.4671
-38.4463
-38.4029
-38.3327
-38.2364
-38.1199
-37.9934
-37.8701
-37.7642
-37.69
-37.6591
-37.6804
-37.758
-37.891
-38.0732
-38.2926
-38.5328
-38.7745
-36.5192
-37.0242
-37.47
-37.8577
-38.1952
-38.4958
-38.7744
-39.0441
-39.3133
-39.5835
-39.8495
-40.1
-40.3205
-40.4962
-40.6153
-40.6722
-40.6691
-40.6164
-40.5306
-40.432
-40.3406
-40.2737
-40.2429
-40.253
-40.3009
-40.3764
-40.4642
-40.5459
-40.6035
-40.6226
-40.5952
-40.5214
-40.4094
-40.274
-40.1334
-40.0061
-39.908
-39.8498
-39.8352
-39.8606
-39.9155
-39.9844
-40.0488
-40.0909
-40.0962
-40.0566
-39.9721
-39.8506
-39.7065
-39.5576
-39.4222
-39.3157
-39.2484
-39.2241
-39.2392
-39.2831
-39.3406
-39.3935
-39.424
-39.4179
-39.3672
-39.2717
-39.1394
-38.9841
-38.8235
-38.6753
-38.5547
-38.4718
-38.4301
-38.4259
-38.4489
-38.4838
-38.5127
-38.518
-38.4856
-38.4077
-38.2848
-38.1253
-37.9445
-37.7622
-37.5999
-37.4783
-37.4151
-37.4236
-37.5107
-37.6768
-37.914
-38.2063
-38.5304
-38.8577
-36.7869
-37.3243
-37.7766
-38.1456
-38.4461
-38.702
-38.9404
-39.1846
-39.4494
-39.7373
-40.0392
-40.3357
-40.6013
-40.8095
-40.9388
-40.9777
-40.9284
-40.8071
-40.6403
-40.4601
-40.2983
-40.1818
-40.1285
-40.1452
-40.2265
-40.3558
-40.5078
-40.6525
-40.7601
-40.8061
-40.7766
-40.6719
-40.5058
-40.3028
-40.0928
-39.906
-39.7676
-39.6946
-39.6929
-39.7567
-39.8692
-40.0053
-40.1353
-40.2295
-40.2637
-40.2242
-40.1111
-39.938
-39.7287
-39.5129
-39.3199
-39.1748
-39.0939
-39.0832
-39.1367
-39.238
-39.3623
-39.4802
-39.5624
-39.5852
-39.535
-39.4118
-39.2288
-39.0097
-38.7833
-38.5785
-38.4197
-38.323
-38.2939
-38.3266
-38.4044
-38.5027
-38.5922
-38.6438
-38.6335
-38.5477
-38.3858
-38.1612
-37.8975
-37.6253
-37.3767
-37.1823
-37.0679
-37.0532
-37.1497
-37.3599
-37.6752
-38.0743
-38.5233
-38.9788
-37.1629
-37.7473
-38.203
-38.5322
-38.7612
-38.9336
-39.098
-39.2958
-39.5521
-39.8712
-40.2369
-40.6159
-40.9646
-41.2367
-41.3927
-41.4103
-41.2917
-41.0634
-40.7695
-40.4619
-40.191
-39.9989
-39.9133
-39.9445
-40.0831
-40.3025
-40.5619
-40.8128
-41.0055
-41.0981
-41.0666
-40.9109
-40.6554
-40.3416
-40.019
-39.7361
-39.5332
-39.4368
-39.4565
-39.5827
-39.789
-40.0352
-40.2733
-40.4543
-40.5372
-40.498
-40.3367
-40.0772
-39.7605
-39.4352
-39.1489
-38.9412
-38.8384
-38.8496
-38.9655
-39.1598
-39.3931
-39.6181
-39.7864
-39.8576
-39.8081
-39.6379
-39.3703
-39.0457
-38.7119
-38.4154
-38.1951
-38.0767
-38.0688
-38.1621
-38.3302
-38.534
-38.7262
-38.8585
-38.8902
-38.7969
-38.5773
-38.253
-37.8629
-37.4543
-37.0755
-36.7708
-36.5772
-36.5225
-36.6249
-36.8916
-37.3157
-37.8704
-38.5066
-39.1564
-37.6957
-38.3556
-38.8118
-39.0632
-39.1581
-39.177
-39.2077
-39.3227
-39.5645
-39.9384
-40.4153
-40.9398
-41.4385
-41.8311
-42.0459
-42.0392
-41.813
-41.4142
-40.9185
-40.4108
-39.9704
-39.6625
-39.5303
-39.589
-39.8237
-40.1914
-40.6285
-41.0571
-41.3949
-41.5692
-41.5355
-41.2938
-40.8888
-40.393
-39.8881
-39.4512
-39.1452
-39.012
-39.0665
-39.2936
-39.6513
-40.0767
-40.4935
-40.8206
-40.9865
-40.9475
-40.7037
-40.299
-39.8047
-39.3013
-38.8647
-38.5567
-38.4187
-38.4652
-38.6813
-39.0255
-39.436
-39.8375
-40.1502
-40.3037
-40.2549
-40.004
-39.594
-39.0951
-38.5865
-38.1425
-37.8239
-37.6711
-37.698
-37.8896
-38.2047
-38.5819
-38.9462
-39.2181
-39.3269
-39.228
-38.9192
-38.4396
-37.8549
-37.2402
-36.6674
-36.1993
-35.8863
-35.7656
-35.8633
-36.1966
-36.7678
-37.549
-38.4702
-39.4214
-38.4586
-39.257
-39.7158
-39.8196
-39.6642
-39.4036
-39.196
-39.1672
-39.3869
-39.8572
-40.5255
-41.301
-42.0651
-42.6816
-43.018
-42.9846
-42.5827
-41.9047
-41.0851
-40.2626
-39.5593
-39.0734
-38.8721
-38.9805
-39.3725
-39.9807
-40.7074
-41.4321
-42.0198
-42.3398
-42.3038
-41.912
-41.2532
-40.4576
-39.6595
-38.9778
-38.5085
-38.317
-38.4282
-38.8165
-39.4161
-40.1309
-40.8428
-41.4189
-41.7309
-41.692
-41.3025
-40.6497
-39.8618
-39.0713
-38.3951
-37.9276
-37.7333
-37.8367
-38.2125
-38.7958
-39.4919
-40.1847
-40.7431
-41.041
-40.9928
-40.599
-39.9455
-39.1585
-38.368
-37.6889
-37.214
-37.0065
-37.0899
-37.4392
-37.9898
-38.6482
-39.2992
-39.8125
-40.0623
-39.9615
-39.5068
-38.7772
-37.8901
-36.9656
-36.1085
-35.4045
-34.9182
-34.6941
-34.7623
-35.1589
-35.9175
-37.0261
-38.3902
-39.8263
-39.5564
-40.6475
-41.1312
-40.9489
-40.322
-39.5536
-38.927
-38.6539
-38.8489
-39.4908
-40.4817
-41.6787
-42.9046
-43.9356
-44.5227
-44.4606
-43.7504
-42.5991
-41.256
-39.9429
-38.835
-38.0748
-37.768
-37.9637
-38.6101
-39.5996
-40.789
-42.0048
-43.0301
-43.6231
-43.5845
-42.9149
-41.8148
-40.5257
-39.2634
-38.1987
-37.4716
-37.1861
-37.3907
-38.0354
-39.0149
-40.1891
-41.3878
-42.3976
-42.9808
-42.9415
-42.2804
-41.1949
-39.9229
-38.6768
-37.6249
-36.9049
-36.6192
-36.8158
-37.4451
-38.4034
-39.5527
-40.7253
-41.7112
-42.2765
-42.2285
-41.568
-40.4894
-39.2267
-37.9889
-36.9413
-36.2191
-35.9228
-36.099
-36.6987
-37.6196
-38.7253
-39.8501
-40.7864
-41.3022
-41.2048
-40.4901
-39.3416
-37.9791
-36.5937
-35.3292
-34.296
-33.5724
-33.2015
-33.1883
-33.5997
-34.5633
-36.1349
-38.2066
-40.4637
-41.1107
-42.9132
-43.5056
-42.7185
-41.1835
-39.4989
-38.149
-37.4664
-37.6676
-38.6219
-40.141
-42.0152
-44.0245
-45.8291
-46.9623
-46.8699
-45.5532
-43.5699
-41.3838
-39.328
-37.61
-36.4233
-35.9405
-36.298
-37.3539
-38.9308
-40.8325
-42.852
-44.6631
-45.816
-45.7738
-44.538
-42.6484
-40.5552
-38.5826
-36.9337
-35.799
-35.3494
-35.7196
-36.7721
-38.3336
-40.2122
-42.2047
-43.9905
-45.1271
-45.0862
-43.8695
-42.0086
-39.9466
-38.0026
-36.3768
-35.2568
-34.8108
-35.1717
-36.2037
-37.7361
-39.5798
-41.5346
-43.2849
-44.3951
-44.346
-43.1392
-41.2982
-39.2591
-37.3358
-35.725
-34.6109
-34.1585
-34.498
-35.4957
-36.9833
-38.7746
-40.6724
-42.3657
-43.425
-43.3368
-42.0978
-40.2139
-38.1009
-36.0475
-34.2165
-32.7417
-31.7186
-31.1938
-31.0027
-31.2453
-32.3334
-34.5232
-37.7561
-41.5076
-43.1136
-46.922
-47.8671
-45.5655
-42.2602
-38.9617
-36.4098
-35.0061
-35.4019
-36.9398
-39.2892
-42.1572
-45.4395
-48.6893
-51.167
-51.0425
-48.3161
-44.8327
-41.3239
-38.227
-35.6199
-33.7582
-32.9033
-33.6265
-35.3474
-37.7942
-40.7065
-43.9993
-47.2441
-49.7299
-49.682
-47.1025
-43.7753
-40.4113
-37.4359
-34.928
-33.1401
-32.332
-33.0662
-34.7757
-37.1957
-40.0711
-43.3193
-46.5184
-48.9689
-48.9242
-46.3864
-43.1119
-39.8003
-36.8704
-34.4002
-32.6382
-31.8405
-32.5612
-34.2416
-36.6207
-39.4469
-42.6385
-45.7801
-48.1834
-48.1303
-45.6236
-42.3921
-39.1246
-36.2329
-33.7933
-32.0499
-31.2537
-31.9493
-33.5869
-35.9097
-38.6705
-41.7892
-44.8579
-47.1999
-47.1257
-44.6343
-41.4159
-38.1369
-35.1811
-32.5908
-30.5368
-29.1473
-28.7053
-28.1924
-27.6734
-28.5169
-31.4096
-36.5584
-43.3091
-44.5693
-55.0542
-56.9064
-49.8604
-43.328
-37.3491
-33.0165
-29.9547
-31.4915
-34.0895
-37.6904
-41.703
-46.9014
-52.6617
-59.1188
-58.9619
-52.1693
-46.1322
-40.671
-36.4207
-32.5566
-29.6432
-27.5938
-29.5183
-32.2957
-35.9877
-40.0324
-45.2158
-50.9181
-57.2924
-57.236
-50.7436
-44.9555
-39.7079
-35.6158
-31.8858
-29.0704
-27.0936
-29.0085
-31.7563
-35.4022
-39.3933
-44.5047
-50.1242
-56.404
-56.3521
-49.9643
-44.2686
-39.1043
-35.0763
-31.4039
-28.6311
-26.6835
-28.5688
-31.2734
-34.8614
-38.7876
-43.8146
-49.3385
-55.5086
-55.4478
-49.1514
-43.538
-38.4488
-34.4787
-30.8591
-28.1246
-26.201
-28.044
-30.6914
-34.2051
-38.0509
-42.9779
-48.3963
-54.4542
-54.3951
-48.2175
-42.7051
-37.7072
-33.788
-30.193
-27.3747
-25.2113
-26.3189
-25.3906
-22.1393
-21.7493
-25.047
-33.054
-46.6248
-38.7023
-75.6182
-78.7685
-53.424
-43.6001
-33.3657
-27.793
-18.2811
-26.053
-29.7951
-35.4992
-39.541
-47.5544
-55.6306
-76.5951
-76.4368
-54.9349
-46.6027
-38.2743
-34.0585
-28.1242
-24.2843
-16.5621
-24.1818
-27.9273
-33.673
-37.719
-45.6854
-53.6243
-74.1153
-74.0577
-53.3709
-45.3571
-37.3409
-33.2742
-27.5265
-23.7931
-16.2513
-23.7514
-27.4436
-33.1116
-37.1024
-44.9584
-52.7794
-72.9567
-72.9037
-52.5457
-44.6598
-36.7723
-32.77
-27.1122
-23.4358
-16.0071
-23.3965
-27.0331
-32.6149
-36.5432
-44.2749
-51.9665
-71.8061
-71.7446
-51.6958
-43.9289
-36.1614
-32.22
-26.6502
-23.0315
-15.7241
-22.9803
-26.5481
-32.0224
-35.8744
-43.4586
-51.0137
-70.5168
-70.475
-50.8426
-43.2533
-35.7242
-31.9278
-26.6766
-23.2694
-16.5651
-26.8637
-25.9343
-12.4849
-9.67137
-11.9028
-21.5379
-53.0892
-38.7623
-38.8694
-38.9459
-38.9862
-38.9885
-38.9548
-38.8901
-38.802
-38.6989
-38.5901
-38.4842
-38.3893
-38.312
-38.2575
-38.2294
-38.7838
-38.9
-38.9821
-39.0241
-39.0244
-38.9856
-38.9136
-38.8168
-38.7047
-38.587
-38.4732
-38.3716
-38.2891
-38.2311
-38.2012
-38.8291
-38.9645
-39.0582
-39.1035
-39.0992
-39.0494
-38.9618
-38.8468
-38.7158
-38.5799
-38.4498
-38.3346
-38.2415
-38.1764
-38.1429
-38.9038
-39.0705
-39.1827
-39.2324
-39.2196
-39.1508
-39.0373
-38.8928
-38.7315
-38.5671
-38.4116
-38.2752
-38.166
-38.09
-38.051
-39.017
-39.231
-39.3696
-39.4238
-39.3958
-39.2969
-39.1438
-38.9554
-38.7503
-38.5451
-38.354
-38.1885
-38.0573
-37.9664
-37.92
-39.1841
-39.4666
-39.641
-39.6972
-39.6427
-39.497
-39.2855
-39.0347
-38.769
-38.5089
-38.2709
-38.0675
-37.9079
-37.7983
-37.7426
-39.4295
-39.8101
-40.0303
-40.0812
-39.9807
-39.7627
-39.4663
-39.1288
-38.7819
-38.4504
-38.153
-37.9027
-37.7085
-37.5762
-37.5092
-39.7934
-40.3139
-40.589
-40.6165
-40.4362
-40.1067
-39.6881
-39.2322
-38.7792
-38.3579
-37.9878
-37.6816
-37.447
-37.2886
-37.2088
-40.343
-41.0632
-41.395
-41.3595
-41.0407
-40.5396
-39.947
-39.3327
-38.7448
-38.214
-37.7587
-37.3887
-37.1092
-36.9222
-36.8286
-41.1971
-42.2008
-42.568
-42.3858
-41.8273
-41.0638
-40.2276
-39.4066
-38.6531
-37.9947
-37.444
-37.0054
-36.6787
-36.4623
-36.3547
-42.5765
-43.9749
-44.2902
-43.7884
-42.8188
-41.6607
-40.4929
-39.413
-38.4661
-37.6674
-37.0173
-36.51
-36.1377
-35.8937
-35.773
-44.9267
-46.8322
-46.8292
-45.6588
-43.9986
-42.2671
-40.6702
-39.2863
-38.1307
-37.1913
-36.4478
-35.8793
-35.4684
-35.2016
-35.0705
-49.2415
-51.5978
-50.5357
-48.0188
-45.2494
-42.739
-40.6342
-38.9312
-37.5788
-36.5194
-35.7031
-35.0911
-34.6547
-34.374
-34.2366
-58.0386
-59.7817
-55.6968
-50.6312
-46.2413
-42.8051
-40.1962
-38.2255
-36.7339
-35.6042
-34.7541
-34.1271
-33.6851
-33.4029
-33.2653
-78.7528
-73.7932
-61.8386
-52.5677
-46.2792
-42.044
-39.1197
-37.0407
-35.5271
-34.4092
-33.5818
-32.9782
-32.5556
-32.287
-32.1564
-20.9941
-21.0274
-21.0952
-21.2006
-21.3485
-21.5473
-21.8109
-22.1628
-22.6456
-23.3404
-24.4155
-26.2468
-29.7224
-36.8211
-49.6851
-20.0628
-20.083
-20.1237
-20.1861
-20.2717
-20.3835
-20.5268
-20.711
-20.9556
-21.303
-21.8583
-22.9253
-25.5778
-34.5247
-74.5704
-19.1175
-19.1243
-19.1373
-19.1554
-19.1767
-19.198
-19.2142
-19.2174
-19.1944
-19.1216
-18.9459
-18.5009
-17.0563
-10.6554
24.6742
-18.1675
-18.1613
-18.1474
-18.1227
-18.0818
-18.016
-17.9108
-17.7421
-17.4681
-17.0119
-16.2206
-14.7692
-11.9722
-6.87168
-3.47786
-17.222
-17.2037
-17.165
-17.1012
-17.0043
-16.8614
-16.6514
-16.3398
-15.8685
-15.1353
-13.954
-11.9716
-8.48695
-1.89918
13.5478
-16.2892
-16.2603
-16.2
-16.1027
-15.9589
-15.7535
-15.4626
-15.0486
-14.4508
-13.5701
-12.2443
-10.2172
-7.15654
-3.07836
-1.52338
-15.3765
-15.3388
-15.2607
-15.1365
-14.9562
-14.7048
-14.3594
-13.8851
-13.2297
-12.3143
-11.0217
-9.18088
-6.53276
-2.50471
5.58918
-14.4899
-14.4454
-14.3536
-14.2092
-14.003
-13.7216
-13.3455
-12.8473
-12.1891
-11.3206
-10.1801
-8.70527
-6.86735
-4.75413
-2.78072
-13.6344
-13.5848
-13.4832
-13.3248
-13.102
-12.8041
-12.4165
-11.9207
-11.2946
-10.5158
-9.57072
-8.48186
-7.39315
-6.90614
-9.7801
-12.8134
-12.7603
-12.6521
-12.4851
-12.2533
-11.949
-11.5627
-11.0845
-10.5062
-9.82651
-9.0612
-8.25838
-7.50115
-6.72383
-4.02059
-12.0293
-11.974
-11.8621
-11.6905
-11.455
-11.1508
-10.7728
-10.3179
-9.78814
-9.19668
-8.57774
-8.00326
-7.62312
-7.87853
-11.1385
-11.2835
-11.2272
-11.1134
-10.9401
-10.7046
-10.4038
-10.0363
-9.60327
-9.11295
-8.58596
-8.06344
-7.61322
-7.3038
-6.9463
-4.20372
-10.577
-10.5203
-10.4062
-10.2331
-9.99933
-9.70337
-9.34525
-8.92846
-8.46327
-7.97216
-7.49895
-7.12543
-7.0179
-7.67002
-11.681
-9.90978
-9.85335
-9.73988
-9.56829
-9.33732
-9.04608
-8.69499
-8.2873
-7.8316
-7.34597
-6.86525
-6.45296
-6.20451
-6.06087
-3.78363
-9.28179
-9.22602
-9.11397
-8.94473
-8.71718
-8.43037
-8.08406
-7.67952
-7.22074
-6.71637
-6.18406
-5.66674
-5.31836
-5.93307
-12.4648
-8.69257
-8.6378
-8.5278
-8.36168
-8.13822
-7.85602
-7.51359
-7.10942
-6.64158
-6.10621
-5.49248
-4.76321
-3.76344
-1.69593
6.26815
-8.1414
-8.08797
-7.98063
-7.81847
-7.60008
-7.3235
-6.98602
-6.58357
-6.10932
-5.55048
-4.88116
-4.04755
-2.95005
-1.55336
-1.41825
-7.62735
-7.57558
-7.47156
-7.31434
-7.10237
-6.8333
-6.5036
-6.1076
-5.63582
-5.07149
-4.38397
-3.51515
-2.34445
-0.534411
3.55185
-7.14929
-7.09949
-6.99946
-6.84825
-6.64432
-6.38524
-6.06723
-5.68429
-5.2266
-4.67807
-4.01269
-3.1924
-2.18287
-1.09593
-1.20301
-6.70583
-6.65832
-6.56291
-6.4188
-6.22459
-5.97811
-5.67598
-5.31289
-4.8805
-4.3658
-3.74901
-3.00108
-2.07506
-0.828051
1.67239
-6.29537
-6.25042
-6.16022
-6.02415
-5.84117
-5.60965
-5.32708
-4.98964
-4.59158
-4.12444
-3.57642
-2.93344
-2.19018
-1.43039
-1.42038
-5.91616
-5.87396
-5.78939
-5.66209
-5.49148
-5.27665
-5.01629
-4.70851
-4.35066
-3.93926
-3.46979
-2.93546
-2.3168
-1.51184
0.118252
-5.56627
-5.52694
-5.44825
-5.33014
-5.17251
-4.9753
-4.73846
-4.46215
-4.14694
-3.79441
-3.40823
-2.99606
-2.57281
-2.1661
-1.83553
-5.2437
-5.20727
-5.13451
-5.02563
-4.88105
-4.70147
-4.48806
-4.24282
-3.96915
-3.67296
-3.36471
-3.06437
-2.81736
-2.76729
-3.55974
-4.94646
-4.91285
-4.84585
-4.74593
-4.61392
-4.45115
-4.25978
-4.04324
-3.80702
-3.55988
-3.31573
-3.09566
-2.92517
-2.7832
-2.17461
-4.67256
-4.64163
-4.58007
-4.48854
-4.36815
-4.22071
-4.04899
-3.85734
-3.65248
-3.44476
-3.25002
-3.09252
-3.0132
-3.12297
-4.0265
-4.42015
-4.39169
-4.33512
-4.2512
-4.1412
-4.00713
-3.85205
-3.68064
-3.49994
-3.32063
-3.15848
-3.0351
-2.96995
-2.91134
-2.23715
-4.18752
-4.16129
-4.10918
-4.03197
-3.93096
-3.80814
-3.66648
-3.51039
-3.34645
-3.18458
-3.04002
-2.93727
-2.92217
-3.12706
-4.24829
-3.97312
-3.94886
-3.90067
-3.82928
-3.73589
-3.62225
-3.49093
-3.3456
-3.19154
-3.03653
-2.89253
-2.77858
-2.72163
-2.70626
-2.12362
-3.77559
-3.75305
-3.70828
-3.64189
-3.55488
-3.44865
-3.32513
-3.18688
-3.03728
-2.88084
-2.72419
-2.58032
-2.49225
-2.67928
-4.5088
-3.59371
-3.57269
-3.5309
-3.46883
-3.38722
-3.28706
-3.16956
-3.03606
-2.88779
-2.72532
-2.54697
-2.34332
-2.07183
-1.51155
0.676529
-3.42643
-3.40676
-3.36762
-3.30935
-3.23246
-3.13753
-3.02512
-2.89549
-2.74816
-2.58083
-2.38733
-2.15343
-1.85196
-1.47417
-1.45965
-3.27281
-3.25437
-3.21762
-3.1628
-3.09022
-3.00014
-2.89263
-2.76723
-2.62242
-2.45451
-2.25575
-2.01047
-1.68511
-1.18445
-0.0444046
-3.13201
-3.1147
-3.08018
-3.0286
-2.96014
-2.87485
-2.77256
-2.65247
-2.51273
-2.34961
-2.1565
-1.92311
-1.64001
-1.33869
-1.37878
-3.00323
-2.98699
-2.95459
-2.90613
-2.84173
-2.76139
-2.66485
-2.55135
-2.41926
-2.26556
-2.0852
-1.87029
-1.60756
-1.25581
-0.547894
-2.88572
-2.87051
-2.84014
-2.79474
-2.73441
-2.65918
-2.56892
-2.46315
-2.34081
-2.20003
-2.03789
-1.85067
-1.63693
-1.42025
-1.41849
-2.77878
-2.76455
-2.73615
-2.69372
-2.63742
-2.56741
-2.48377
-2.38645
-2.27516
-2.14932
-2.008
-1.84948
-1.66833
-1.43544
-0.96865
-2.68173
-2.66842
-2.6419
-2.60232
-2.54995
-2.4851
-2.40813
-2.31945
-2.21961
-2.10937
-1.99004
-1.864
-1.73566
-1.61307
-1.51386
-2.59393
-2.58148
-2.5567
-2.51982
-2.47116
-2.41121
-2.3406
-2.26021
-2.17128
-2.07574
-1.97674
-1.88013
-1.79899
-1.77446
-1.99017
-2.51476
-2.5031
-2.47992
-2.44548
-2.40021
-2.34472
-2.27987
-2.20689
-2.12755
-2.0445
-1.96179
-1.8855
-1.82302
-1.76903
-1.58621
-2.44369
-2.43273
-2.41095
-2.37866
-2.33635
-2.28472
-2.22479
-2.15799
-2.08639
-2.01302
-1.94239
-1.88127
-1.84114
-1.8531
-2.08537
-2.38022
-2.36986
-2.34927
-2.3188
-2.27896
-2.23049
-2.17447
-2.11241
-2.04645
-1.97964
-1.91638
-1.86247
-1.82308
-1.7842
-1.57866
-2.32396
-2.31407
-2.29446
-2.26545
-2.22755
-2.1815
-2.12835
-2.06954
-2.00708
-1.94381
-1.88386
-1.8336
-1.80465
-1.83108
-2.09641
-2.27455
-2.26504
-2.24618
-2.21826
-2.18179
-2.13744
-2.08616
-2.02921
-1.96827
-1.90566
-1.84461
-1.78993
-1.74775
-1.7121
-1.52495
-2.23174
-2.22251
-2.20417
-2.17702
-2.14149
-2.09818
-2.0479
-1.99163
-1.93063
-1.8664
-1.80094
-1.73756
-1.68633
-1.6984
-2.09701
-2.19534
-2.18628
-2.16827
-2.14158
-2.10657
-2.06377
-2.01378
-1.95734
-1.89521
-1.82801
-1.75582
-1.67676
-1.58092
-1.41634
-0.871603
-2.16523
-2.15625
-2.13841
-2.11191
-2.07708
-2.03433
-1.98414
-1.927
-1.8633
-1.79307
-1.71545
-1.62761
-1.52325
-1.39838
-1.3422
-2.14135
-2.13238
-2.11454
-2.08801
-2.05307
-2.01004
-1.95931
-1.90121
-1.83592
-1.76325
-1.68216
-1.58991
-1.47982
-1.33286
-1.0606
-2.12368
-2.11466
-2.09669
-2.06995
-2.03466
-1.99111
-1.93959
-1.88039
-1.81365
-1.73925
-1.65663
-1.56458
-1.46196
-1.35449
-1.30312
-2.11227
-2.10313
-2.08493
-2.05781
-2.02198
-1.97769
-1.9252
-1.8648
-1.79668
-1.72096
-1.63764
-1.54658
-1.44746
-1.3373
-1.18504
-2.10719
-2.09789
-2.07935
-2.05172
-2.01517
-1.96994
-1.91631
-1.85455
-1.78497
-1.70795
-1.62401
-1.53415
-1.44061
-1.34952
-1.28615
-2.10857
-2.09905
-2.08008
-2.05179
-2.01437
-1.96803
-1.91304
-1.84971
-1.77843
-1.69972
-1.61446
-1.52426
-1.43205
-1.34265
-1.25963
-2.11653
-2.10676
-2.08727
-2.05821
-2.01974
-1.9721
-1.91555
-1.85039
-1.77703
-1.69603
-1.60834
-1.51575
-1.4215
-1.33154
-1.25909
-2.13128
-2.1212
-2.10111
-2.07114
-2.03147
-1.98234
-1.92401
-1.85676
-1.78092
-1.69695
-1.60562
-1.50837
-1.40796
-1.30846
-1.20825
-2.15301
-2.14257
-2.12179
-2.09078
-2.04976
-1.99897
-1.93866
-1.86908
-1.79045
-1.70298
-1.60697
-1.50317
-1.39376
-1.28606
-1.21414
-2.18197
-2.17113
-2.14954
-2.11736
-2.07482
-2.02218
-1.95972
-1.88766
-1.8061
-1.71492
-1.61373
-1.50186
-1.37836
-1.23901
-1.04379
-2.21844
-2.20714
-2.18464
-2.15113
-2.10688
-2.05221
-1.98744
-1.91283
-1.82841
-1.7338
-1.62789
-1.50861
-1.37393
-1.23095
-1.15986
-2.26274
-2.25091
-2.22736
-2.19234
-2.14615
-2.08922
-2.02198
-1.94479
-1.85778
-1.76051
-1.65131
-1.52604
-1.37523
-1.17319
-0.804599
-2.31523
-2.30279
-2.27805
-2.24127
-2.19288
-2.13338
-2.0634
-1.98354
-1.89426
-1.79549
-1.68587
-1.56118
-1.41209
-1.2313
-1.13534
-2.37635
-2.3632
-2.33707
-2.29826
-2.24729
-2.18481
-2.11167
-2.02883
-1.93732
-1.83799
-1.73089
-1.61326
-1.47093
-1.23073
-0.457497
-2.44659
-2.43262
-2.40486
-2.36369
-2.30967
-2.24363
-2.16664
-2.08011
-1.98579
-1.88587
-1.78319
-1.68246
-1.59772
-1.60054
-2.1447
-2.52651
-2.51159
-2.48196
-2.43801
-2.38039
-2.31003
-2.22823
-2.13678
-2.03812
-1.93564
-1.83412
-1.74053
-1.66368
-1.59469
-1.3078
-2.61676
-2.60077
-2.56898
-2.52181
-2.45993
-2.38435
-2.2965
-2.19843
-2.0931
-1.98472
-1.87952
-1.78697
-1.72414
-1.74042
-2.10199
-2.7181
-2.70089
-2.66666
-2.6158
-2.54898
-2.46717
-2.37184
-2.26512
-2.15016
-2.03158
-1.9161
-1.81274
-1.72963
-1.64662
-1.31699
-2.83137
-2.81281
-2.77586
-2.72087
-2.6484
-2.55936
-2.45506
-2.3375
-2.20971
-2.07628
-1.94425
-1.82442
-1.73503
-1.72437
-2.0481
-2.95751
-2.93749
-2.89758
-2.83804
-2.75933
-2.66213
-2.54748
-2.41698
-2.27314
-2.11998
-1.96391
-1.81493
-1.68572
-1.57017
-1.25901
-3.09754
-3.07596
-3.0329
-2.96851
-2.88307
-2.77698
-2.65087
-2.50569
-2.34303
-2.16568
-1.97864
-1.79167
-1.6269
-1.5521
-1.86237
-3.25253
-3.22934
-3.183
-3.11357
-3.02112
-2.90573
-2.76749
-2.60652
-2.42311
-2.21807
-1.99329
-1.75298
-1.50555
-1.26692
-1.07269
-3.42359
-3.39877
-3.34912
-3.27459
-3.17508
-3.05033
-2.89987
-2.7229
-2.5182
-2.28414
-2.01871
-1.71921
-1.37806
-0.951199
-0.148135
-3.61187
-3.58543
-3.53249
-3.45295
-3.34655
-3.21276
-3.05064
-2.85851
-2.63366
-2.37198
-2.06775
-1.71435
-1.31005
-0.897018
-0.845353
-3.8185
-3.79045
-3.73431
-3.64993
-3.537
-3.39486
-3.22222
-3.01681
-2.77467
-2.48935
-2.15092
-1.74481
-1.24808
-0.592178
0.672734
-4.04458
-4.01497
-3.95572
-3.86672
-3.74772
-3.59809
-3.41655
-3.2006
-2.94563
-2.64358
-2.28106
-1.83818
-1.2966
-0.710556
-0.711102
-4.29121
-4.26005
-4.19775
-4.10433
-3.97969
-3.82347
-3.63476
-3.41145
-3.14927
-2.83979
-2.46698
-2.00008
-1.37597
-0.421875
1.68499
-4.55944
-4.52672
-4.46138
-4.36359
-4.23355
-4.0714
-3.87696
-3.64929
-3.38571
-3.07997
-2.71821
-2.27113
-1.68444
-0.934026
-0.806784
-4.85038
-4.81603
-4.74752
-4.64522
-4.50969
-4.34173
-4.14222
-3.91203
-3.65143
-3.35902
-3.02866
-2.63911
-2.10659
-1.01371
3.14073
-5.16515
-5.12905
-5.05711
-4.94989
-4.80834
-4.63393
-4.42878
-4.19586
-3.93921
-3.66441
-3.3802
-3.10635
-2.91785
-3.21978
-6.57643
-5.50496
-5.46692
-5.39116
-5.27837
-5.12979
-4.94745
-4.73459
-4.49614
-4.23957
-3.9763
-3.72452
-3.5143
-3.3885
-3.3048
-2.07493
-5.87116
-5.83098
-5.75092
-5.63169
-5.47464
-5.28215
-5.05816
-4.80899
-4.54455
-4.28019
-4.03997
-3.86361
-3.82989
-4.18605
-6.29465
-6.26524
-6.2227
-6.13784
-6.01124
-5.84409
-5.63871
-5.39919
-5.13242
-4.84945
-4.56731
-4.31104
-4.11385
-4.00048
-3.85063
-2.40342
-6.68883
-6.64378
-6.55373
-6.41891
-6.24006
-6.01894
-5.75911
-5.46707
-5.15376
-4.83644
-4.54106
-4.30586
-4.19639
-4.41644
-6.19247
-7.14368
-7.09609
-7.00069
-6.85714
-6.66537
-6.42603
-6.14138
-5.81648
-5.46082
-5.09032
-4.72926
-4.41053
-4.16343
-3.90201
-2.52963
-7.63155
-7.58158
-7.48104
-7.32884
-7.12368
-6.86456
-6.55157
-6.18722
-5.77817
-5.33763
-4.88804
-4.46546
-4.14038
-4.15938
-5.85853
-8.15408
-8.10216
-7.99725
-7.83729
-7.61944
-7.34046
-6.99742
-6.58897
-6.11736
-5.5912
-5.02805
-4.45265
-3.87836
-3.25027
-2.42265
-8.71265
-8.65951
-8.55165
-8.38591
-8.15763
-7.86082
-7.48865
-7.03456
-6.49442
-5.87044
-5.17655
-4.43906
-3.65368
-2.48001
1.58793
-9.30809
-9.25484
-9.14622
-8.97794
-8.74338
-8.43348
-8.03675
-7.53988
-6.92967
-6.19821
-5.35531
-4.45872
-3.69862
-3.71993
-7.31693
-9.94049
-9.88858
-9.78218
-9.61596
-9.38143
-9.06642
-8.65437
-8.12388
-7.4491
-6.60335
-5.57133
-4.38359
-3.2009
-2.47705
-2.97935
-10.6089
-10.5601
-10.4597
-10.3014
-10.0753
-9.7667
-9.35422
-8.80805
-8.08725
-7.13781
-5.89548
-4.30496
-2.3845
-0.382974
1.00937
-11.3112
-11.2675
-11.1773
-11.0338
-10.8266
-10.5391
-10.1469
-9.61348
-8.88414
-7.87565
-6.46143
-4.45544
-1.62434
2.13383
5.96495
-12.0437
-12.0073
-11.9317
-11.8106
-11.6335
-11.3841
-11.0375
-10.5549
-9.87487
-8.89522
-7.43832
-5.17891
-1.50796
4.59968
13.581
-12.8014
-12.7743
-12.7177
-12.6262
-12.4906
-12.2967
-12.0225
-11.6336
-11.0736
-10.2462
-8.9725
-6.88261
-3.08367
5.0696
27.434
-154.929
-93.0492
-65.0083
-51.609
-44.4317
-40.1444
-37.358
-35.4362
-34.0579
-33.0474
-32.302
-31.759
-31.379
-31.1374
-31.02
-192.846
-87.0567
-57.7218
-46.4165
-40.7452
-37.3751
-35.156
-33.6
-32.4668
-31.6252
-30.9979
-30.5373
-30.2131
-30.0062
-29.9053
50.0206
-27.9725
-37.9148
-37.3113
-35.4606
-33.8063
-32.4934
-31.4701
-30.6732
-30.0541
-29.5781
-29.2208
-28.9656
-28.8011
-28.7206
-7.19826
-16.1466
-25.4311
-29.0723
-30.0394
-30.0005
-29.6296
-29.1829
-28.7561
-28.3836
-28.0756
-27.8334
-27.655
-27.5378
-27.4798
27.6297
-4.08805
-16.8663
-22.6904
-25.3166
-26.4252
-26.8185
-26.8818
-26.8012
-26.6681
-26.5274
-26.4016
-26.3018
-26.2333
-26.1986
-1.34894
-5.18271
-13.1308
-18.5291
-21.6477
-23.3465
-24.2365
-24.6804
-24.8829
-24.9577
-24.9688
-24.9517
-24.9268
-24.9053
-24.8933
12.2498
-3.42099
-11.166
-15.9509
-18.9647
-20.8293
-21.9642
-22.6468
-23.053
-23.2917
-23.4295
-23.5072
-23.5494
-23.5707
-23.5796
-3.18409
-7.16396
-11.2569
-14.6026
-17.0796
-18.8189
-20.006
-20.8049
-21.3393
-21.6956
-21.9321
-22.0873
-22.1863
-22.2448
-22.2719
-15.8541
-10.8291
-11.8666
-13.8575
-15.7069
-17.1918
-18.3172
-19.1468