/*--------------------------------*- C++ -*----------------------------------*\
| =========                 |                                                 |
| \\      /  F ield         | OpenFOAM: The Open Source CFD Toolbox           |
|  \\    /   O peration     | Version:  5.x                                   |
|   \\  /    A nd           | Web:      www.OpenFOAM.org                      |
|    \\/     M anipulation  |                                                 |
\*---------------------------------------------------------------------------*/
FoamFile
{
    version     2.0;
    format      ascii;
    class       volScalarField;
    location    "2.7";
    object      gradTy;
}
// * * * * * * * * * * * * * * * * * * * * * * * * * * * * * * * * * * * * * //

dimensions      [0 -1 0 1 0 0 0];

internalField   nonuniform List<scalar> 
6300
(
32285.1
32255.3
32225.4
32195.4
32165.1
32134.5
32103.5
32072.1
32040.2
32007.9
31975
31941.5
31907.4
31872.7
31837.5
0.0519034
0.155228
0.257079
0.356374
0.451878
0.542165
0.6256
0.700362
0.764498
0.816048
0.853225
0.874648
0.879618
0.868381
0.842312
0.0870247
0.260311
0.431255
0.598107
0.758851
0.91113
1.0522
1.17895
1.288
1.37588
1.43935
1.47581
1.4838
1.46353
1.41727
0.122911
0.367747
0.609535
0.845963
1.07431
1.29133
1.49315
1.67527
1.83271
1.96017
2.05254
2.10549
2.11629
2.08472
2.01384
0.159786
0.47823
0.793176
1.1019
1.40111
1.68673
1.95378
2.1963
2.40739
2.57955
2.70515
2.77733
2.79117
2.74523
2.64297
0.197787
0.592213
0.983041
1.36736
1.74149
2.10071
2.43896
2.74874
3.02102
3.24551
3.4112
3.50749
3.52585
3.46206
3.31895
0.236936
0.709794
1.17942
1.64301
2.0968
2.53565
2.95263
3.33869
3.68246
3.97026
4.18665
4.31562
4.34268
4.25822
4.06191
0.277102
0.830613
1.38183
1.92846
2.46705
2.99246
3.49721
3.97095
4.39987
4.76642
5.04954
5.22565
5.27107
5.16622
4.9024
0.31796
0.953732
1.58882
2.22194
2.85051
3.46993
4.07283
4.64804
5.17965
5.64604
6.01944
6.26637
6.34972
6.23318
5.8896
0.358967
1.07754
1.79778
2.51999
3.24311
3.96394
4.67613
5.36874
6.02465
6.61866
7.11582
7.47067
7.62821
7.52711
7.10578
0.399339
1.19967
2.00478
2.81713
3.63799
4.46662
5.29901
6.12616
6.93158
7.68814
8.3545
8.87224
9.16523
9.14111
8.68831
0.438057
1.31704
2.20453
3.10575
4.02513
4.96555
5.92715
6.90531
7.88737
8.8478
9.74174
10.4985
11.0192
11.1837
10.848
0.473903
1.42591
2.39055
3.37623
4.39124
5.44331
6.53876
7.68058
8.86481
10.0739
11.2661
12.3606
13.2295
13.7265
13.7993
0.505545
1.52216
2.55554
3.6174
4.72028
5.8777
7.104
8.41344
9.81734
11.317
12.888
14.4483
15.8117
16.6949
17.2044
0.531659
1.60166
2.69204
3.81755
4.99481
6.24322
7.58613
9.05187
10.6741
12.4888
14.5205
16.7328
18.8749
20.04
17.7048
31804.7
31774.5
31743.9
31713
31681.8
31650.2
31618.4
31586.4
31554.1
31521.6
31488.9
31456
31423
31389.8
31356.5
31323.1
31289.7
31256.2
31222.6
31189.1
31155.5
31121.9
31088.3
31054.7
31021
30987.4
30953.8
30920.1
30886.5
30852.9
30819.2
30785.6
30752.1
30718.5
30685
30651.6
30618.2
30584.8
30551.4
30518.1
30484.8
30451.5
30418.2
30384.9
30351.7
30318.5
30285.3
30252.2
30219.1
30186.1
30153.1
30120.2
30087.3
30054.4
30021.6
29988.8
29956
29923.3
29890.6
29857.9
29825.3
29792.7
29760.1
29727.7
29695.2
29662.9
29630.6
29598.3
29566.1
29534
29501.9
29469.8
29437.8
29405.8
29373.8
29341.9
29310
29278.2
29246.4
29214.7
29183
29151.3
29119.6
29087.9
29056.2
29024.4
28992.5
28960.6
28928.5
28896.4
0.807116
0.768726
0.726125
0.681438
0.636444
0.59234
0.549616
0.508076
0.466999
0.42542
0.382452
0.337596
0.290963
0.243369
0.196275
0.151578
0.111296
0.0772106
0.0505402
0.0317024
0.0202205
0.0147788
0.0134177
0.0138342
0.0137385
0.0112077
0.00498292
-0.00534255
-0.0192749
-0.035526
-0.0522582
-0.0674285
-0.0791667
-0.086119
-0.0876925
-0.0841612
-0.0766191
-0.0667957
-0.0567646
-0.0485981
-0.0440205
-0.0441181
-0.0491544
-0.0585226
-0.0708492
-0.0842344
-0.0965885
-0.106004
-0.111091
-0.111218
-0.106613
-0.0983186
-0.0880067
-0.0776931
-0.0693946
-0.0647885
-0.0649257
-0.0700484
-0.0795428
-0.0920403
-0.105653
-0.118305
-0.128095
-0.133628
-0.134246
-0.130129
-0.122247
-0.112169
-0.101785
-0.0929591
-0.0871872
-0.0853116
-0.0873327
-0.0923576
-0.0986966
-0.104097
-0.106081
-0.102324
-0.0910257
-0.0711988
-0.0428533
-0.00705572
0.0341362
0.0778468
0.120647
0.158892
0.189097
0.208335
0.214588
0.207014
1.35512
1.28764
1.21324
1.13592
1.05901
0.984698
0.91378
0.84566
0.778705
0.710789
0.639944
0.564983
0.485943
0.404283
0.322764
0.245049
0.175068
0.116314
0.071186
0.0405342
0.0234753
0.017506
0.0188833
0.0232034
0.0260863
0.0238573
0.0141179
-0.00388506
-0.0291606
-0.0591721
-0.0903118
-0.118573
-0.140295
-0.152832
-0.155028
-0.147412
-0.132103
-0.112444
-0.0924408
-0.0760974
-0.0667477
-0.0664965
-0.0758574
-0.0936549
-0.117218
-0.142846
-0.166466
-0.184365
-0.193847
-0.193696
-0.184365
-0.167884
-0.147494
-0.127098
-0.110601
-0.10125
-0.10109
-0.110596
-0.128587
-0.152405
-0.178382
-0.202477
-0.221001
-0.231257
-0.231992
-0.223584
-0.20794
-0.188135
-0.167858
-0.15076
-0.139792
-0.136655
-0.14143
-0.152477
-0.166606
-0.179529
-0.186509
-0.183093
-0.165812
-0.132729
-0.0837676
-0.0208076
0.0524448
0.130775
0.207933
0.277237
0.332256
0.367547
0.379332
0.366025
1.91902
1.81659
1.70465
1.58988
1.4779
1.37226
1.274
1.18166
1.09189
1.00047
0.903466
0.798348
0.684806
0.565103
0.443893
0.327498
0.222794
0.135919
0.0711125
0.0299215
0.0108931
0.0097892
0.0202489
0.0347825
0.0459387
0.0474676
0.0353008
0.00819574
-0.0320735
-0.0810384
-0.132353
-0.178976
-0.214488
-0.234273
-0.236327
-0.221576
-0.193684
-0.158418
-0.122677
-0.0933542
-0.0762006
-0.0748601
-0.0902377
-0.12031
-0.160439
-0.204172
-0.244405
-0.274671
-0.2903
-0.289216
-0.272239
-0.242902
-0.206816
-0.170717
-0.141342
-0.124308
-0.123162
-0.138758
-0.169069
-0.209497
-0.253654
-0.294509
-0.325653
-0.342436
-0.342746
-0.327304
-0.299474
-0.264629
-0.229207
-0.199588
-0.180979
-0.176464
-0.18636
-0.208023
-0.236119
-0.263393
-0.281783
-0.283705
-0.263234
-0.217008
-0.144728
-0.0492724
0.0635462
0.18549
0.306626
0.416242
0.503913
0.560691
0.580287
0.560021
2.50629
2.35925
2.20012
2.03986
1.88765
1.74919
1.62569
1.51395
1.40746
1.2982
1.17867
1.04385
0.892543
0.728098
0.558087
0.393115
0.244848
0.123743
0.0370332
-0.012606
-0.0275012
-0.0145804
0.0157469
0.0512236
0.0796529
0.0907979
0.0779929
0.0392305
-0.022467
-0.0995242
-0.181154
-0.255381
-0.311332
-0.341252
-0.34183
-0.314666
-0.26589
-0.205082
-0.143675
-0.0930936
-0.0628884
-0.0591556
-0.0834645
-0.13249
-0.198475
-0.270547
-0.336704
-0.38606
-0.41083
-0.407628
-0.377919
-0.327648
-0.266166
-0.204662
-0.154322
-0.124495
-0.121134
-0.145738
-0.194994
-0.261225
-0.33369
-0.400532
-0.450991
-0.477345
-0.476189
-0.448871
-0.401117
-0.341963
-0.282204
-0.232566
-0.20188
-0.195524
-0.214353
-0.254308
-0.306822
-0.360051
-0.400774
-0.416562
-0.397745
-0.338804
-0.239064
-0.102739
0.0615076
0.241366
0.421909
0.586849
0.720054
0.807376
0.838641
0.809395
3.12639
2.91933
2.69726
2.47824
2.27762
2.1046
1.96044
1.83866
1.72701
1.61069
1.47591
1.31307
1.1192
0.899101
0.665021
0.434669
0.227779
0.0620322
-0.0504382
-0.105175
-0.105961
-0.0640265
0.00381798
0.0778007
0.138244
0.168603
0.15805
0.103278
0.0092428
-0.111441
-0.24063
-0.35812
-0.445679
-0.490499
-0.487299
-0.438895
-0.355443
-0.252628
-0.149105
-0.0635109
-0.0114765
-0.00309177
-0.0411205
-0.120269
-0.227767
-0.345463
-0.453217
-0.532878
-0.571664
-0.564232
-0.513232
-0.428561
-0.325573
-0.222555
-0.137786
-0.0865952
-0.0788584
-0.117245
-0.196497
-0.304001
-0.421846
-0.530171
-0.611063
-0.651891
-0.647327
-0.599889
-0.519194
-0.420187
-0.320648
-0.238273
-0.187764
-0.178334
-0.211941
-0.282526
-0.376507
-0.474732
-0.555683
-0.599262
-0.590045
-0.519361
-0.386087
-0.196423
0.0369814
0.296248
0.559652
0.803147
1.00226
1.13478
1.18412
1.1427
3.79258
3.50104
3.19001
2.89017
2.62787
2.41847
2.26299
2.14879
2.05329
1.94978
1.81352
1.62696
1.38362
1.09023
0.766578
0.442429
0.151455
-0.0764095
-0.221058
-0.275446
-0.245954
-0.150798
-0.0169653
0.123859
0.24014
0.305307
0.301764
0.223848
0.0793071
-0.111127
-0.316975
-0.503979
-0.641593
-0.70892
-0.697886
-0.613618
-0.472902
-0.301217
-0.128745
0.0143725
0.102765
0.119781
0.0604091
-0.0672516
-0.242404
-0.434722
-0.610212
-0.738584
-0.799081
-0.783602
-0.697063
-0.555883
-0.385051
-0.214199
-0.0729301
0.0138478
0.0298043
-0.0299366
-0.157349
-0.331915
-0.523742
-0.699339
-0.828857
-0.891829
-0.88023
-0.798825
-0.663667
-0.499205
-0.334401
-0.198119
-0.114517
-0.0991925
-0.156302
-0.277072
-0.440101
-0.614302
-0.764423
-0.858004
-0.870867
-0.79006
-0.614323
-0.353104
-0.0247955
0.345161
0.726056
1.08334
1.38035
1.58193
1.6603
1.60179
4.52603
4.11081
3.66669
3.24807
2.90199
2.65474
2.50616
2.43199
2.3911
2.33603
2.22357
2.02259
1.72012
1.32492
0.868843
0.402403
-0.0157578
-0.334697
-0.52167
-0.566522
-0.480522
-0.293279
-0.0478356
0.205241
0.41562
0.540933
0.552557
0.440334
0.215437
-0.0886414
-0.42048
-0.720987
-0.938746
-1.04021
-1.01396
-0.869653
-0.634986
-0.350969
-0.0661431
0.171029
0.319756
0.352621
0.260242
0.0541221
-0.232358
-0.548245
-0.835094
-1.04206
-1.13594
-1.10534
-0.959614
-0.725941
-0.444594
-0.163282
0.0703566
0.216236
0.247434
0.154782
-0.0503351
-0.335007
-0.649044
-0.934897
-1.14251
-1.23918
-1.21369
-1.0752
-0.850372
-0.578747
-0.307112
-0.0821343
0.0570184
0.0842262
-0.00902002
-0.210789
-0.48763
-0.788566
-1.0546
-1.23299
-1.28659
-1.19747
-0.965666
-0.606404
-0.146557
0.378311
0.926443
1.45033
1.89586
2.20647
2.3336
2.25072
5.36466
4.76213
4.10658
3.50149
3.03381
2.74899
2.64221
2.66732
2.74935
2.80494
2.76109
2.56437
2.19013
1.64726
0.986019
0.292843
-0.325866
-0.783033
-1.02695
-1.04604
-0.860899
-0.519592
-0.0897179
0.348087
0.713573
0.940248
0.981668
0.819048
0.465562
-0.0262058
-0.569131
-1.05718
-1.4034
-1.55542
-1.50008
-1.25584
-0.868169
-0.401919
0.0650454
0.45501
0.703555
0.765777
0.623827
0.291177
-0.180002
-0.703622
-1.17504
-1.50844
-1.65208
-1.59288
-1.34886
-0.964689
-0.504127
-0.043759
0.339974
0.583724
0.643366
0.501409
0.171196
-0.295855
-0.814973
-1.28316
-1.61596
-1.76249
-1.7099
-1.47592
-1.10451
-0.658339
-0.212673
0.157403
0.389721
0.441066
0.294504
-0.0364301
-0.500486
-1.01311
-1.471
-1.78772
-1.90782
-1.81036
-1.50056
-1.00456
-0.36196
0.377947
1.16174
1.93011
2.60566
3.09521
3.30927
3.19217
6.38358
5.48959
4.47359
3.55683
2.90218
2.58685
2.58837
2.82072
3.14572
3.41706
3.51873
3.3618
2.90296
2.14006
1.14917
0.0760354
-0.868608
-1.53846
-1.85602
-1.81968
-1.46617
-0.873463
-0.143041
0.59505
1.21139
1.60631
1.70458
1.47259
0.914786
0.109871
-0.796827
-1.59765
-2.14774
-2.36924
-2.25828
-1.84858
-1.21454
-0.453935
0.307079
0.9426
1.35562
1.47291
1.26198
0.727677
-0.0521709
-0.934208
-1.71378
-2.2481
-2.46037
-2.34662
-1.93995
-1.31349
-0.563427
0.186075
0.811122
1.21628
1.32955
1.11908
0.589732
-0.181771
-1.05429
-1.82641
-2.35767
-2.57258
-2.46734
-2.07459
-1.46634
-0.737241
-0.0094209
0.595276
0.982985
1.08286
0.863492
0.329593
-0.443425
-1.31651
-2.09069
-2.62558
-2.84236
-2.72905
-2.30358
-1.61383
-0.717493
0.314381
1.41923
2.54354
3.5833
4.38066
4.76179
4.60028
7.74412
6.39238
4.69724
3.23424
2.28148
1.96821
2.20205
2.84071
3.61938
4.27352
4.64878
4.59398
4.05363
2.96115
1.43074
-0.325807
-1.80707
-2.8012
-3.19471
-3.05008
-2.4159
-1.42567
-0.20743
1.01731
2.02804
2.69954
2.90303
2.59528
1.71983
0.392488
-1.17702
-2.49919
-3.36529
-3.66183
-3.44668
-2.76443
-1.74322
-0.506569
0.729786
1.75055
2.43351
2.65262
2.36576
1.51772
0.222773
-1.31238
-2.60571
-3.45159
-3.73814
-3.52221
-2.84758
-1.84032
-0.621968
0.595078
1.59886
2.26912
2.48189
2.19588
1.35693
0.0777262
-1.43821
-2.71653
-3.55499
-3.84372
-3.63883
-2.98361
-2.00223
-0.814345
0.371089
1.34557
1.99069
2.18432
1.88537
1.03992
-0.2423
-1.76234
-3.05498
-3.92155
-4.25223
-4.09724
-3.4872
-2.52057
-1.26821
0.145731
1.64871
3.27873
4.91
6.2655
6.9957
6.79399
9.81524
7.78977
4.58648
2.17645
0.739331
0.561336
1.23257
2.65906
4.27235
5.53158
6.39813
6.52534
5.99938
4.41286
2.03793
-1.12407
-3.44701
-4.92888
-5.30835
-4.98545
-3.87839
-2.30621
-0.281204
1.74772
3.33317
4.46667
4.83765
4.53543
3.1756
1.0238
-1.9134
-4.05749
-5.40303
-5.69131
-5.30775
-4.1684
-2.58217
-0.558815
1.46291
3.04492
4.17929
4.56092
4.27761
2.95128
0.843575
-2.03884
-4.14202
-5.46053
-5.73954
-5.35839
-4.23424
-2.67117
-0.678674
1.31114
2.86681
3.98069
4.35243
4.06887
2.75803
0.678082
-2.16436
-4.24009
-5.54396
-5.8257
-5.45885
-4.36234
-2.83551
-0.887964
1.05533
2.57009
3.64851
3.99505
3.69417
2.37915
0.301263
-2.53565
-4.63284
-5.9892
-6.36148
-6.12069
-5.1843
-3.83875
-2.05158
-0.151125
1.69528
4.01215
6.63389
9.05083
10.5716
10.4243
13.453
10.8857
3.33552
-0.281645
-2.61609
-2.06871
-0.824607
2.20836
5.43513
7.35512
9.21214
9.39725
9.47235
6.99986
3.77852
-3.13057
-6.29812
-8.64402
-8.43344
-8.05001
-6.01067
-3.83886
-0.36064
3.11674
5.2891
7.33183
7.74168
7.99852
5.77179
2.78605
-3.79188
-6.76575
-8.96326
-8.68829
-8.25717
-6.21593
-4.05061
-0.608741
2.82917
4.98386
7.009
7.42669
7.69136
5.51001
2.57992
-3.88742
-6.8083
-8.9664
-8.6916
-8.26452
-6.25297
-4.12045
-0.731554
2.65232
4.77089
6.76091
7.16654
7.4211
5.26659
2.37639
-3.99461
-6.87516
-9.00482
-8.7417
-8.3296
-6.36078
-4.27466
-0.955492
2.35662
4.42289
6.36021
6.73804
6.96329
4.81686
1.9378
-4.37417
-7.2775
-9.4739
-9.35352
-9.14582
-7.47055
-5.79287
-2.99804
-0.370114
1.06442
4.3066
8.65278
13.1267
16.5497
17.045
20.341
21.1657
-3.57247
-4.58548
-10.1212
-5.70212
-5.45789
1.47851
8.47963
9.26927
14.4336
12.4275
16.6138
10.6651
10.8294
-10.525
-10.3326
-16.0406
-11.8076
-13.4993
-8.3339
-7.25288
-0.439026
6.36482
7.43152
12.5482
10.8659
15.0378
9.46079
9.72091
-10.8604
-10.5922
-16.084
-11.9104
-13.5254
-8.44235
-7.35748
-0.653201
6.04307
7.10915
12.1532
10.5126
14.6272
9.1467
9.40967
-10.8431
-10.5732
-15.9759
-11.8632
-13.4525
-8.44616
-7.37916
-0.777442
5.81529
6.85984
11.8224
10.1979
14.2422
8.8343
9.08682
-10.8513
-10.5917
-15.9115
-11.8724
-13.4422
-8.52834
-7.48962
-1.01307
5.45172
6.46114
11.3173
9.70052
13.6474
8.30937
8.51755
-11.1213
-10.9402
-16.2949
-12.4714
-14.2844
-9.76036
-9.35579
-3.70419
1.12932
-2.16955
3.01108
10.4875
18.7157
26.7432
31.2328
30.1233
68.2225
-44.6385
-2.37063
-31.9594
-3.32168
-19.726
0.657275
20.4705
4.88597
29.9826
6.54308
38.3516
5.53035
48.8693
-48.9439
-5.86762
-37.7493
-6.64734
-28.8194
-4.77249
-18.9189
-0.499708
17.8777
3.74537
27.5586
5.56354
36.119
4.74799
46.6711
-47.9483
-6.1202
-37.1192
-6.79261
-28.4347
-4.90723
-18.7521
-0.681898
17.3687
3.51043
26.9277
5.31536
35.3842
4.51729
45.7865
-47.347
-6.16518
-36.683
-6.81925
-28.1339
-4.96208
-18.6033
-0.805861
16.9722
3.31135
26.3738
5.07093
34.6787
4.25551
44.8763
-46.7886
-6.26974
-36.2908
-6.9222
-27.8872
-5.11158
-18.5311
-1.04972
16.4065
2.96389
25.5995
4.65502
33.7055
3.81886
43.6806
-46.4061
-6.62836
-36.3296
-7.46991
-28.5454
-6.11544
-20.4719
-3.22986
14.3418
-17.6117
-1.58809
11.2418
24.5958
42.0333
70.0891
28860.9
28822
28783.1
28744.1
28705.1
28666.1
28627.1
28588.3
28549.5
28510.9
28472.4
28433.9
28395.6
28357.3
28319.1
0.183974
0.142257
0.088895
0.0299371
-0.0284554
-0.0808521
-0.123096
-0.152525
-0.167928
-0.169345
-0.157791
-0.134978
-0.103077
-0.0645385
-0.0219649
0.32472
0.249766
0.154162
0.0491014
-0.054214
-0.146132
-0.219479
-0.269858
-0.295476
-0.296702
-0.275533
-0.235085
-0.17918
-0.112043
-0.038106
0.495426
0.377984
0.228942
0.0665727
-0.0913224
-0.229941
-0.338793
-0.411919
-0.447387
-0.44643
-0.412536
-0.350637
-0.266507
-0.166343
-0.0565219
0.713106
0.537805
0.31705
0.079572
-0.147705
-0.343516
-0.493829
-0.591635
-0.635719
-0.629096
-0.57754
-0.488417
-0.369866
-0.2303
-0.0781606
1.00104
0.743076
0.421877
0.082368
-0.235555
-0.502588
-0.701374
-0.825074
-0.874758
-0.856693
-0.780111
-0.655626
-0.494239
-0.30683
-0.103981
1.39239
1.01157
0.54501
0.0635737
-0.374297
-0.72991
-0.984002
-1.13253
-1.18155
-1.1428
-1.03059
-0.859736
-0.644633
-0.398799
-0.134915
1.9361
1.36581
0.683006
0.0012076
-0.5953
-1.05875
-1.3722
-1.53949
-1.57609
-1.50239
-1.33969
-1.1081
-0.825758
-0.508815
-0.171797
2.70687
1.83256
0.819981
-0.146458
-0.949363
-1.53761
-1.90654
-2.07715
-2.08093
-1.95098
-1.71768
-1.4072
-1.04149
-0.638907
-0.215253
3.82253
2.43755
0.910807
-0.457667
-1.51809
-2.23577
-2.63921
-2.78164
-2.71951
-2.50291
-2.17284
-1.76155
-1.29407
-0.790074
-0.265562
5.47471
3.18432
0.843357
-1.07693
-2.42958
-3.24817
-3.63287
-3.6907
-3.51254
-3.1683
-2.70922
-2.17207
-1.58318
-0.961754
-0.32248
7.9781
3.98167
0.355246
-2.26383
-3.87511
-4.69448
-4.95341
-4.83574
-4.47165
-3.94853
-3.32368
-2.63433
-1.90481
-1.15128
-0.385081
11.8094
4.4091
-1.14015
-4.45851
-6.11254
-6.7012
-6.65053
-6.22721
-5.58977
-4.83048
-4.00261
-3.13677
-2.25043
-1.3535
-0.45164
17.3291
2.9855
-4.86636
-8.31748
-9.41532
-9.34725
-8.72028
-7.83278
-6.82973
-5.78101
-4.71952
-3.6597
-2.60663
-1.56063
-0.519619
22.0247
-4.93006
-12.9933
-14.5297
-13.884
-12.5522
-11.0506
-9.55388
-8.11534
-6.7443
-5.43476
-4.17587
-2.95575
-1.76278
-0.585828
0.550021
1.65752
2.78787
3.95791
5.18724
6.49981
7.92637
9.50808
11.3018
13.3874
15.875
18.8945
22.4751
25.8167
23.2022
0.561033
1.69091
2.84476
4.04041
5.2989
6.64649
8.11804
9.76246
11.6525
13.9038
16.7152
20.4674
26.0103
35.6667
57.4092
0.566623
1.70766
2.87262
4.07929
5.34868
6.70711
8.1897
9.8463
11.7525
14.0313
16.9018
20.7967
26.6891
37.1234
59.8728
0.566801
1.70781
2.87151
4.07463
5.33663
6.68151
8.14053
9.75687
11.5936
13.748
16.3772
19.7382
24.2123
30.0215
34.7198
0.561835
1.69221
2.84303
4.02908
5.26705
6.57665
7.98212
9.51442
11.2142
13.1351
15.3443
17.9067
20.8067
23.6855
25.3587
0.552216
1.66241
2.79008
3.94747
5.14774
6.40522
7.73565
9.1557
10.6813
12.3222
14.0664
15.8409
17.4152
18.1859
16.6886
0.538595
1.62049
2.7165
3.83611
4.98869
6.18315
7.42692
8.72367
10.0685
11.4377
12.7679
13.9147
14.5822
14.2617
12.5713
0.521711
1.56875
2.62654
3.70185
4.80056
5.92685
7.08141
8.25825
9.43869
10.5803
11.5969
12.3216
12.4358
11.2891
7.15404
0.502315
1.50956
2.52444
3.55133
4.5933
5.65093
6.72043
7.7903
8.83582
9.80986
10.6288
11.1526
11.165
10.392
8.8014
0.481107
1.44506
2.41399
3.39036
4.37517
5.36678
6.35919
7.33928
8.28256
9.14707
9.86553
10.3386
10.4398
10.0627
9.27297
0.458694
1.37711
2.29837
3.22355
4.15233
5.08208
6.00651
6.91381
7.78401
8.58569
9.27267
9.783
10.0469
10.0198
9.77988
0.435569
1.30719
2.18003
3.05424
3.92884
4.80108
5.66575
6.51413
7.33305
8.10397
8.80248
9.39852
9.85587
10.1248
10.1061
0.412114
1.23641
2.06075
2.88468
3.70698
4.52537
5.3363
6.13491
6.91545
7.67254
8.40345
9.11036
9.79576
10.4295
10.8583
0.388615
1.1656
1.94176
2.71626
3.48783
4.25484
5.01543
5.76827
6.51416
7.25929
8.02111
8.83716
9.77154
10.8766
11.8559
0.365285
1.09537
1.82394
2.54986
3.27188
3.98878
4.69995
5.40646
6.11341
6.83449
7.60112
8.48181
9.62882
11.4111
14.8667
0.342294
1.02618
1.70796
2.38619
3.05947
3.72671
4.38771
5.04436
5.70285
6.37807
7.10193
7.94155
9.04496
10.7835
14.3006
0.319788
0.958468
1.59446
2.22596
2.85127
3.46898
4.07852
4.68098
5.28071
5.88788
6.52237
7.2181
8.02005
8.9209
9.41387
0.297904
0.892624
1.48407
2.07003
2.64834
3.21695
3.77426
4.3195
4.8534
5.37875
5.90029
6.42092
6.92647
7.34154
7.47537
0.276777
0.829057
1.37749
1.91943
2.45214
2.97277
3.47838
3.96591
4.43203
4.87229
5.27886
5.63424
5.89574
5.95751
5.54337
0.256535
0.768164
1.27542
1.77525
2.26435
2.73903
3.19505
3.62722
4.02863
4.38924
4.69298
4.91276
5.00373
4.90399
4.60238
0.237294
0.710305
1.17852
1.63853
2.08657
2.51826
2.92831
3.30988
3.65358
3.9457
4.16542
4.28076
4.24416
3.99067
3.42362
0.219149
0.655777
1.08732
1.51014
1.92014
2.31252
2.68136
3.01886
3.31435
3.55244
3.71038
3.75427
3.63524
3.29511
2.75239
0.202164
0.604782
1.00219
1.39064
1.76594
2.12315
2.45616
2.75703
3.01499
3.21484
3.33455
3.34094
3.17986
2.74027
1.67332
0.186369
0.557407
0.923278
1.28029
1.62432
1.9506
2.2533
2.52502
2.75599
2.93292
3.03742
3.04392
2.91791
2.62109
2.17739
0.171753
0.513623
0.850525
1.17894
1.49503
1.79442
2.07195
2.32131
2.53452
2.70131
2.80836
2.83894
2.77458
2.60393
2.34776
0.158274
0.47329
0.783665
1.08617
1.37735
1.65344
1.91018
2.14271
2.3453
2.5112
2.63242
2.6999
2.70508
2.64617
2.5513
0.145862
0.436182
0.722275
1.00126
1.27016
1.52589
1.76524
1.9849
2.18158
2.35214
2.4938
2.60414
2.6801
2.71339
2.67519
0.134423
0.402012
0.665826
0.923355
1.17212
1.40972
1.63397
1.84307
2.03601
2.21315
2.37693
2.53229
2.68476
2.83027
2.93085
0.12386
0.370465
0.613743
0.851543
1.08184
1.30284
1.51323
1.71246
1.90143
2.08346
2.26592
2.46246
2.69426
2.97837
3.23159
0.114071
0.341229
0.565469
0.784947
0.99801
1.20335
1.40024
1.58899
1.77169
1.95349
2.14514
2.36816
2.66746
3.14793
4.10111
0.104964
0.314023
0.520505
0.722811
0.919556
1.10972
1.2929
1.46974
1.64257
1.81669
2.00259
2.22092
2.51486
2.98925
3.96099
0.096463
0.288608
0.478443
0.664542
0.845677
1.02095
1.18999
1.35327
1.51258
1.67171
1.83755
2.02117
2.23697
2.48523
2.62949
0.0885046
0.2648
0.438979
0.609725
0.775875
0.936509
1.09108
1.23958
1.38271
1.5221
1.66017
1.7991
1.93655
2.05344
2.09912
0.0810426
0.242462
0.401903
0.558105
0.709908
0.856287
0.996402
1.12962
1.25546
1.37341
1.4822
1.57808
1.65041
1.67114
1.56478
0.0740436
0.221501
0.367077
0.509545
0.647713
0.780422
0.906523
1.02479
1.13371
1.23109
1.31321
1.37341
1.40014
1.37711
1.30227
0.0674826
0.201848
0.334414
0.463976
0.589314
0.709154
0.822093
0.926449
1.01998
1.09937
1.15946
1.19201
1.18443
1.11909
0.968876
0.0613387
0.183446
0.303838
0.421344
0.534738
0.642685
0.743633
0.835641
0.916068
0.981076
1.02485
1.03849
1.00885
0.920015
0.77748
0.055591
0.166238
0.27527
0.381572
0.483951
0.581081
0.67139
0.752885
0.822878
0.877535
0.911176
0.915038
0.8744
0.758243
0.467577
0.0502153
0.150153
0.248602
0.344527
0.436815
0.524222
0.605273
0.678125
0.740347
0.7886
0.818194
0.822497
0.792401
0.717669
0.605241
0.0451822
0.135104
0.22369
0.31001
0.393075
0.471783
0.544859
0.610757
0.667525
0.712633
0.742785
0.753857
0.741411
0.703284
0.647045
0.0404568
0.120986
0.200353
0.277759
0.352365
0.42326
0.489436
0.549737
0.602811
0.647061
0.680639
0.701561
0.708267
0.70149
0.690069
0.0359993
0.107675
0.17838
0.247458
0.314236
0.378022
0.438101
0.493745
0.544233
0.588913
0.627292
0.659149
0.684498
0.702937
0.710925
0.0317663
0.0950407
0.157541
0.218757
0.27819
0.335363
0.389854
0.441342
0.4897
0.53515
0.578487
0.62127
0.665542
0.711656
0.752063
0.0277133
0.0829451
0.137597
0.191299
0.243717
0.294573
0.343701
0.391121
0.437194
0.482866
0.530079
0.58237
0.645324
0.724355
0.804541
0.0237963
0.071254
0.118314
0.164738
0.210333
0.254991
0.298739
0.341845
0.384978
0.429523
0.478157
0.536079
0.613956
0.736274
0.968872
0.0199736
0.0598407
0.0994759
0.138755
0.177606
0.216046
0.254232
0.292557
0.331792
0.373351
0.419797
0.475945
0.551746
0.67163
0.91176
0.016207
0.04859
0.0808876
0.113073
0.14517
0.177282
0.209636
0.242646
0.277001
0.313797
0.354714
0.402177
0.458939
0.523506
0.559115
0.0124627
0.0374
0.0623798
0.0874569
0.112728
0.138356
0.164592
0.191809
0.220524
0.251391
0.285098
0.321967
0.360729
0.395516
0.413407
0.00871086
0.0261819
0.0438069
0.0617092
0.0800442
0.0990128
0.118873
0.13994
0.162562
0.187023
0.213298
0.240454
0.265296
0.279278
0.259961
0.00492526
0.0148585
0.025044
0.0356645
0.0469244
0.0590564
0.0723223
0.0869994
0.103331
0.121406
0.140898
0.16056
0.177417
0.186178
0.183376
0.00108277
0.00336134
0.00598136
0.00917914
0.0132034
0.0183178
0.0247983
0.032917
0.0428978
0.0548148
0.0683906
0.0826259
0.0951708
0.101123
0.0887481
-0.0028377
-0.00837155
-0.0134801
-0.0178768
-0.0212704
-0.0233644
-0.0238574
-0.0224513
-0.0188722
-0.0129197
-0.00456541
0.00587581
0.0175138
0.0288078
0.039084
-0.00685596
-0.0203984
-0.0334337
-0.0456261
-0.0566428
-0.0661532
-0.0738259
-0.0793218
-0.0822827
-0.0823136
-0.0789616
-0.0716959
-0.059895
-0.042791
-0.0188653
-0.0109914
-0.0327762
-0.0539705
-0.0741887
-0.0930571
-0.110213
-0.1253
-0.137946
-0.147721
-0.154049
-0.156067
-0.152408
-0.140978
-0.119118
-0.0863964
-0.0152637
-0.045563
-0.0751828
-0.103686
-0.130657
-0.155706
-0.178465
-0.198559
-0.215545
-0.228769
-0.237107
-0.238508
-0.229294
-0.202981
-0.145948
-0.0196941
-0.0588204
-0.0971686
-0.134244
-0.169587
-0.202785
-0.233474
-0.261324
-0.285974
-0.306876
-0.322957
-0.331971
-0.329478
-0.308167
-0.263348
-0.0243058
-0.0726169
-0.120036
-0.166002
-0.210003
-0.251601
-0.290449
-0.326305
-0.358999
-0.388323
-0.413707
-0.433417
-0.44272
-0.429667
-0.363738
-0.0291258
-0.0870315
-0.143912
-0.199123
-0.252086
-0.302322
-0.349499
-0.393476
-0.434357
-0.4725
-0.508388
-0.542082
-0.571476
-0.587878
-0.571891
-0.0341854
-0.102157
-0.168944
-0.233802
-0.296058
-0.355165
-0.410765
-0.462791
-0.511611
-0.558235
-0.604584
-0.653725
-0.709245
-0.768568
-0.778291
-0.0395219
-0.118104
-0.195316
-0.270284
-0.342214
-0.410438
-0.474508
-0.534327
-0.590385
-0.644154
-0.698832
-0.760931
-0.844362
-0.983691
-1.28746
-0.0451782
-0.135003
-0.223243
-0.308875
-0.390939
-0.468594
-0.541199
-0.60847
-0.670742
-0.729434
-0.78792
-0.853312
-0.940652
-1.08461
-1.37741
-0.0512034
-0.153002
-0.252979
-0.34994
-0.442725
-0.530253
-0.611589
-0.686079
-0.753579
-0.81485
-0.872206
-0.930443
-0.997616
-1.08214
-1.16546
-0.0576508
-0.172264
-0.284809
-0.393902
-0.498159
-0.596208
-0.686729
-0.768538
-0.840736
-0.90298
-0.955871
-1.00136
-1.04252
-1.08051
-1.10483
-0.0645761
-0.192961
-0.319034
-0.441222
-0.557902
-0.667387
-0.767916
-0.857666
-0.934801
-0.997598
-1.04467
-1.07528
-1.08961
-1.08835
-1.07035
-0.072034
-0.215263
-0.355956
-0.492364
-0.622639
-0.744783
-0.856586
-0.95555
-1.03882
-1.10313
-1.14489
-1.16051
-1.14752
-1.10781
-1.05578
-0.0800744
-0.239324
-0.395853
-0.547763
-0.693019
-0.829357
-0.954168
-1.06433
-1.15599
-1.22432
-1.26327
-1.26559
-1.22397
-1.13583
-1.01726
-0.088739
-0.265274
-0.438955
-0.607782
-0.76959
-0.921934
-1.06192
-1.18595
-1.28937
-1.36592
-1.40707
-1.40117
-1.33274
-1.18497
-0.968841
-0.0980578
-0.293206
-0.485427
-0.672674
-0.852732
-1.02309
-1.18075
-1.32189
-1.4414
-1.53209
-1.58356
-1.58017
-1.49661
-1.28157
-0.775518
-0.108048
-0.323171
-0.535352
-0.742557
-0.942607
-1.13307
-1.31104
-1.47285
-1.61343
-1.7255
-1.79812
-1.81485
-1.75177
-1.58025
-1.30788
-0.118714
-0.355177
-0.588733
-0.817406
-1.03914
-1.25171
-1.45257
-1.63853
-1.80526
-1.94629
-2.05151
-2.10494
-2.08223
-1.94897
-1.6514
-0.13005
-0.3892
-0.645503
-0.897074
-1.14203
-1.37848
-1.60443
-1.81758
-2.01494
-2.19195
-2.34086
-2.44792
-2.48946
-2.43178
-2.26571
-0.142046
-0.4252
-0.705559
-0.981331
-1.25083
-1.51255
-1.76518
-2.00759
-2.23875
-2.45711
-2.65928
-2.83638
-2.9656
-2.98985
-2.76124
-0.154694
-0.463141
-0.7688
-1.06994
-1.36504
-1.65293
-1.93301
-2.20543
-2.47143
-2.73353
-2.9951
-3.2581
-3.51463
-3.72352
-3.7828
-0.167995
-0.503016
-0.835179
-1.16274
-1.48425
-1.79875
-2.10615
-2.40771
-2.70684
-3.0103
-3.32991
-3.68432
-4.09675
-4.56108
-4.80695
-0.181967
-0.544876
-0.904754
-1.25975
-1.60831
-1.94949
-2.28335
-2.61167
-2.93923
-3.27586
-3.64055
-4.07025
-4.64282
-5.55034
-7.38572
-0.196652
-0.58884
-0.977719
-1.36121
-1.73751
-2.10532
-2.46438
-2.81617
-3.16532
-3.52193
-3.90605
-4.35697
-4.95628
-5.89526
-7.70559
-0.21211
-0.635103
-1.05442
-1.46767
-1.87258
-2.26724
-2.65045
-3.0225
-3.38621
-3.74891
-4.12516
-4.54063
-5.03387
-5.63507
-6.1934
-0.228419
-0.683913
-1.13535
-1.57993
-2.01478
-2.43709
-2.84429
-3.2346
-3.60782
-3.96646
-4.31703
-4.67028
-5.03649
-5.40466
-5.69149
-0.245661
-0.735543
-1.22103
-1.69892
-2.1657
-2.61743
-3.04985
-3.45857
-3.83954
-4.18962
-4.50704
-4.79093
-5.03774
-5.23073
-5.3142
-0.263903
-0.790227
-1.31197
-1.82564
-2.32706
-2.81118
-3.27185
-3.70181
-4.09272
-4.43545
-4.72034
-4.93732
-5.07636
-5.13285
-5.13801
-0.283172
-0.848089
-1.40853
-1.96086
-2.50044
-3.0212
-3.51518
-3.97216
-4.37936
-4.72145
-4.98078
-5.13783
-5.1723
-5.07062
-4.86383
-0.303432
-0.909056
-1.51072
-2.10493
-2.68689
-3.24982
-3.78421
-4.27706
-4.7112
-5.06491
-5.31225
-5.42346
-5.3628
-5.08138
-4.58071
-0.324552
-0.972776
-1.61807
-2.25751
-2.88656
-3.49825
-4.08207
-4.62274
-5.09888
-5.48224
-5.73826
-5.82845
-5.70658
-5.24441
-3.69133
-0.346284
-1.03853
-1.72949
-2.41729
-3.09827
-3.76602
-4.4099
-5.01322
-5.55099
-5.98799
-6.2794
-6.3807
-6.28669
-6.16502
-6.85028
-0.368241
-1.10516
-1.84312
-2.5818
-3.31917
-4.05036
-4.76589
-5.44922
-6.07308
-6.59484
-6.95256
-7.06858
-6.886
-6.52525
-6.88245
-0.389892
-1.17108
-1.95624
-2.74721
-3.54437
-4.34555
-5.14423
-5.92651
-6.66604
-7.3156
-7.79356
-7.96381
-7.60904
-6.38686
-3.60469
-0.410569
-1.23423
-2.06532
-2.90831
-3.76677
-4.64248
-5.53396
-6.43347
-7.32147
-8.15552
-8.84823
-9.22363
-8.93445
-7.33177
-3.40139
-0.429495
-1.29221
-2.16613
-3.05868
-3.97717
-4.92846
-5.91809
-6.94842
-8.01436
-9.09356
-10.1233
-10.945
-11.172
-9.89311
-5.19282
-0.44583
-1.34243
-2.25399
-3.19101
-4.1648
-5.18781
-6.27394
-7.43861
-8.69803
-10.066
-11.5427
-13.0792
-14.4553
-14.8304
-10.9324
-0.458737
-1.38225
-2.32416
-3.29781
-4.31824
-5.40331
-6.57524
-7.863
-9.30634
-10.9628
-12.9206
-15.325
-18.4337
-22.7352
-29.1488
-12.0527
-27.3803
-25.8682
-22.0943
-18.5913
-15.655
-13.1958
-11.0908
-9.24206
-7.57877
-6.04985
-4.61773
-3.25377
-1.93505
-0.64221
-117.743
-61.4137
-39.6506
-28.9015
-22.4934
-18.1361
-14.8877
-12.2986
-10.1284
-8.23699
-6.53648
-4.96825
-3.49068
-2.0722
-0.687126
-130.876
-71.443
-45.7842
-32.6941
-24.9712
-19.8471
-16.1217
-13.2155
-10.8212
-8.76261
-6.93121
-5.2558
-3.68654
-2.18613
-0.724529
-71.8507
-58.0176
-43.1894
-32.7595
-25.6443
-20.5867
-16.7869
-13.7768
-11.2809
-9.13043
-7.21762
-5.46963
-3.83459
-2.27311
-0.753219
-50.6969
-45.2832
-37.5402
-30.5229
-24.8883
-20.4529
-16.9035
-13.9811
-11.5005
-9.33323
-7.38954
-5.60503
-3.93153
-2.33122
-0.772563
-32.1874
-34.1664
-31.387
-27.3261
-23.2996
-19.7038
-16.5846
-13.8787
-11.5026
-9.38072
-7.45091
-5.66332
-3.97764
-2.36038
-0.78251
-23.7461
-26.3541
-26.1236
-24.1053
-21.4118
-18.6237
-15.9787
-13.5471
-11.3281
-9.29483
-7.41351
-5.65082
-3.97623
-2.3622
-0.783527
-13.2119
-20.5128
-22.1017
-21.3535
-19.5896
-17.4442
-15.2245
-13.0678
-11.0246
-9.10342
-7.29371
-5.57712
-3.93276
-2.33946
-0.776473
-15.9575
-18.6382
-19.7027
-19.307
-18.0322
-16.3162
-14.4267
-12.5097