/*--------------------------------*- C++ -*----------------------------------*\
| =========                 |                                                 |
| \\      /  F ield         | OpenFOAM: The Open Source CFD Toolbox           |
|  \\    /   O peration     | Version:  5.x                                   |
|   \\  /    A nd           | Web:      www.OpenFOAM.org                      |
|    \\/     M anipulation  |                                                 |
\*---------------------------------------------------------------------------*/
FoamFile
{
    version     2.0;
    format      ascii;
    class       volScalarField;
    location    "1.1001";
    object      T;
}
// * * * * * * * * * * * * * * * * * * * * * * * * * * * * * * * * * * * * * //

dimensions      [0 0 0 1 0 0 0];

internalField   nonuniform List<scalar> 
6300
(
322.853
322.56
322.265
321.969
321.67
321.368
321.063
320.754
320.44
320.122
319.798
319.468
319.133
318.792
318.445
322.854
322.561
322.267
321.971
321.673
321.372
321.067
320.759
320.445
320.127
319.803
319.474
319.139
318.798
318.451
322.854
322.563
322.27
321.976
321.679
321.379
321.075
320.768
320.455
320.138
319.814
319.485
319.15
318.809
318.462
322.855
322.566
322.275
321.983
321.688
321.39
321.088
320.782
320.47
320.154
319.831
319.503
319.168
318.826
318.479
322.857
322.57
322.282
321.992
321.7
321.404
321.105
320.801
320.491
320.176
319.855
319.526
319.192
318.85
318.501
322.859
322.575
322.291
322.004
321.715
321.423
321.126
320.825
320.518
320.204
319.884
319.557
319.222
318.88
318.53
322.861
322.582
322.301
322.019
321.734
321.445
321.153
320.854
320.55
320.24
319.921
319.595
319.261
318.918
318.566
322.863
322.589
322.314
322.036
321.756
321.472
321.184
320.89
320.59
320.282
319.966
319.642
319.307
318.963
318.61
322.866
322.598
322.328
322.057
321.782
321.504
321.221
320.932
320.637
320.333
320.02
319.698
319.364
319.019
318.662
322.869
322.608
322.345
322.08
321.812
321.54
321.264
320.981
320.691
320.393
320.084
319.764
319.432
319.086
318.725
322.873
322.619
322.363
322.106
321.846
321.582
321.313
321.037
320.755
320.463
320.16
319.844
319.513
319.166
318.802
322.877
322.631
322.384
322.135
321.883
321.628
321.368
321.101
320.827
320.543
320.248
319.938
319.612
319.265
318.896
322.882
322.645
322.407
322.167
321.925
321.679
321.429
321.173
320.909
320.636
320.351
320.05
319.729
319.386
319.014
322.886
322.659
322.431
322.201
321.969
321.735
321.496
321.252
321.001
320.741
320.469
320.181
319.871
319.534
319.166
322.892
322.674
322.457
322.238
322.017
321.794
321.568
321.337
321.101
320.858
320.603
320.333
320.039
319.713
319.352
318.123
317.826
317.525
317.221
316.915
316.605
316.292
315.978
315.66
315.341
315.02
314.697
314.372
314.047
313.72
313.392
313.063
312.734
312.405
312.075
311.745
311.415
311.085
310.755
310.425
310.094
309.764
309.433
309.103
308.772
308.442
308.112
307.781
307.451
307.122
306.792
306.463
306.134
305.806
305.477
305.148
304.819
304.491
304.162
303.833
303.505
303.176
302.848
302.52
302.192
301.864
301.536
301.209
300.882
300.554
300.227
299.899
299.572
299.244
298.917
298.589
298.262
297.935
297.608
297.281
296.954
296.628
296.302
295.976
295.65
295.324
294.999
294.673
294.348
294.022
293.697
293.372
293.047
292.723
292.398
292.074
291.75
291.425
291.101
290.775
290.449
290.122
289.794
289.465
289.135
318.128
317.831
317.53
317.226
316.919
316.609
316.296
315.981
315.663
315.344
315.022
314.699
314.374
314.048
313.721
313.393
313.064
312.735
312.405
312.075
311.745
311.415
311.085
310.755
310.425
310.095
309.764
309.433
309.103
308.772
308.442
308.111
307.781
307.451
307.121
306.792
306.463
306.134
305.805
305.477
305.148
304.819
304.491
304.162
303.833
303.504
303.176
302.848
302.519
302.191
301.864
301.536
301.209
300.882
300.554
300.227
299.899
299.572
299.244
298.917
298.589
298.262
297.934
297.607
297.28
296.954
296.628
296.302
295.976
295.65
295.324
294.999
294.673
294.347
294.022
293.697
293.372
293.047
292.722
292.398
292.074
291.75
291.426
291.101
290.776
290.45
290.124
289.796
289.467
289.137
318.138
317.841
317.539
317.235
316.927
316.616
316.303
315.988
315.67
315.349
315.027
314.703
314.378
314.051
313.723
313.395
313.065
312.736
312.406
312.076
311.746
311.416
311.086
310.755
310.425
310.095
309.764
309.434
309.103
308.772
308.441
308.111
307.78
307.45
307.121
306.791
306.462
306.134
305.805
305.477
305.148
304.819
304.491
304.162
303.833
303.504
303.175
302.847
302.519
302.191
301.863
301.536
301.209
300.881
300.554
300.227
299.9
299.572
299.244
298.916
298.589
298.261
297.934
297.606
297.28
296.953
296.627
296.301
295.975
295.65
295.324
294.998
294.673
294.347
294.021
293.696
293.371
293.046
292.722
292.398
292.074
291.75
291.427
291.103
290.778
290.453
290.127
289.799
289.47
289.14
318.154
317.856
317.554
317.248
316.94
316.628
316.314
315.997
315.679
315.358
315.035
314.71
314.384
314.056
313.727
313.398
313.068
312.737
312.407
312.076
311.746
311.416
311.086
310.756
310.426
310.095
309.765
309.434
309.103
308.772
308.441
308.11
307.779
307.449
307.119
306.79
306.462
306.133
305.805
305.477
305.148
304.819
304.491
304.162
303.833
303.503
303.174
302.846
302.518
302.19
301.862
301.535
301.208
300.881
300.554
300.227
299.9
299.572
299.244
298.916
298.588
298.26
297.932
297.605
297.278
296.952
296.626
296.3
295.975
295.649
295.324
294.998
294.672
294.346
294.021
293.695
293.37
293.045
292.721
292.397
292.074
291.751
291.428
291.105
290.782
290.457
290.131
289.804
289.475
289.145
318.176
317.876
317.573
317.266
316.956
316.643
316.328
316.011
315.691
315.369
315.045
314.719
314.392
314.062
313.732
313.401
313.07
312.739
312.407
312.077
311.746
311.416
311.086
310.757
310.427
310.096
309.766
309.434
309.103
308.771
308.44
308.108
307.777
307.447
307.117
306.789
306.46
306.132
305.804
305.477
305.148
304.82
304.491
304.162
303.832
303.503
303.173
302.844
302.516
302.188
301.861
301.534
301.208
300.881
300.555
300.228
299.901
299.573
299.244
298.916
298.587
298.259
297.931
297.603
297.276
296.95
296.625
296.299
295.974
295.649
295.324
294.998
294.672
294.346
294.019
293.693
293.368
293.043
292.719
292.395
292.073
291.751
291.43
291.108
290.786
290.463
290.138
289.812
289.483
289.152
318.204
317.902
317.597
317.288
316.976
316.662
316.346
316.027
315.706
315.383
315.058
314.731
314.401
314.07
313.738
313.405
313.072
312.74
312.408
312.076
311.746
311.416
311.087
310.757
310.428
310.098
309.767
309.435
309.103
308.771
308.438
308.106
307.774
307.444
307.114
306.786
306.458
306.131
305.804
305.477
305.149
304.821
304.492
304.162
303.832
303.501
303.171
302.842
302.513
302.186
301.859
301.533
301.207
300.882
300.556
300.229
299.902
299.574
299.245
298.916
298.586
298.257
297.928
297.6
297.274
296.948
296.623
296.298
295.974
295.649
295.324
294.998
294.672
294.345
294.018
293.691
293.365
293.039
292.715
292.393
292.071
291.751
291.432
291.112
290.792
290.471
290.148
289.822
289.494
289.163
318.237
317.934
317.626
317.315
317.001
316.685
316.367
316.047
315.725
315.401
315.074
314.745
314.413
314.08
313.745
313.41
313.075
312.74
312.407
312.075
311.744
311.415
311.087
310.759
310.43
310.1
309.77
309.437
309.104
308.77
308.436
308.103
307.77
307.439
307.11
306.782
306.456
306.13
305.804
305.478
305.151
304.823
304.494
304.163
303.831
303.5
303.168
302.838
302.509
302.182
301.856
301.531
301.207
300.882
300.558
300.232
299.905
299.576
299.246
298.915
298.585
298.254
297.924
297.596
297.269
296.944
296.62
296.297
295.973
295.65
295.325
294.999
294.672
294.345
294.016
293.688
293.36
293.034
292.71
292.388
292.068
291.75
291.433
291.117
290.8
290.481
290.161
289.837
289.509
289.177
318.278
317.971
317.659
317.345
317.028
316.71
316.39
316.069
315.747
315.421
315.094
314.763
314.429
314.092
313.753
313.414
313.076
312.738
312.403
312.071
311.741
311.413
311.087
310.76
310.433
310.105
309.774
309.441
309.106
308.77
308.434
308.098
307.764
307.432
307.103
306.777
306.452
306.128
305.805
305.481
305.155
304.827
304.497
304.165
303.831
303.498
303.164
302.832
302.503
302.176
301.851
301.528
301.206
300.884
300.561
300.236
299.909
299.58
299.249
298.916
298.582
298.25
297.918
297.589
297.263
296.939
296.616
296.295
295.974
295.652
295.328
295.002
294.674
294.345
294.014
293.683
293.354
293.026
292.701
292.38
292.062
291.747
291.434
291.122
290.809
290.495
290.178
289.857
289.53
289.198
318.326
318.014
317.698
317.378
317.057
316.737
316.416
316.094
315.772
315.446
315.118
314.785
314.447
314.106
313.762
313.418
313.074
312.734
312.397
312.064
311.735
311.41
311.086
310.763
310.439
310.112
309.781
309.447
309.11
308.77
308.43
308.091
307.754
307.421
307.093
306.768
306.446
306.127
305.807
305.486
305.162
304.835
304.503
304.169
303.832
303.494
303.158
302.824
302.493
302.166
301.844
301.523
301.205
300.887
300.567
300.244
299.917
299.587
299.253
298.917
298.579
298.243
297.909
297.579
297.253
296.93
296.611
296.293
295.975
295.656
295.334
295.008
294.679
294.347
294.012
293.677
293.344
293.014
292.688
292.368
292.052
291.741
291.433
291.127
290.822
290.514
290.202
289.884
289.559
289.226
318.383
318.064
317.74
317.413
317.087
316.764
316.442
316.122
315.8
315.476
315.148
314.813
314.472
314.124
313.773
313.42
313.069
312.723
312.383
312.051
311.725
311.404
311.086
310.768
310.448
310.124
309.794
309.458
309.117
308.771
308.425
308.08
307.739
307.405
307.077
306.755
306.439
306.124
305.811
305.494
305.174
304.847
304.515
304.176
303.834
303.49
303.148
302.81
302.477
302.152
301.832
301.517
301.204
300.891
300.576
300.257
299.931
299.599
299.261
298.919
298.575
298.233
297.895
297.563
297.238
296.918
296.603
296.291
295.978
295.664
295.344
295.019
294.688
294.351
294.011
293.669
293.329
292.995
292.667
292.348
292.036
291.73
291.43
291.133
290.836
290.538
290.234
289.923
289.6
289.265
318.451
318.122
317.785
317.448
317.114
316.787
316.466
316.15
315.833
315.513
315.187
314.851
314.504
314.148
313.785
313.419
313.057
312.703
312.36
312.028
311.707
311.393
311.084
310.776
310.463
310.144
309.816
309.478
309.13
308.774
308.417
308.062
307.715
307.378
307.052
306.736
306.427
306.122
305.818
305.509
305.194
304.869
304.534
304.19
303.838
303.483
303.131
302.787
302.453
302.128
301.814
301.507
301.203
300.9
300.592
300.278
299.954
299.619
299.275
298.923
298.569
298.217
297.872
297.538
297.214
296.899
296.592
296.288
295.985
295.678
295.363
295.04
294.706
294.362
294.011
293.658
293.308
292.966
292.636
292.317
292.01
291.712
291.423
291.137
290.854
290.569
290.279
289.977
289.66
289.323
318.535
318.189
317.832
317.477
317.132
316.802
316.485
316.177
315.871
315.56
315.239
314.903
314.551
314.182
313.801
313.414
313.034
312.668
312.321
311.991
311.678
311.376
311.082
310.788
310.489
310.178
309.853
309.511
309.153
308.781
308.404
308.033
307.676
307.336
307.013
306.705
306.409
306.119
305.83
305.534
305.227
304.906
304.568
304.213
303.846
303.472
303.104
302.75
302.413
302.092
301.786
301.491
301.202
300.914
300.619
300.313
299.992
299.654
299.299
298.932
298.558
298.19
297.835
297.498
297.176
296.87
296.575
296.286
295.998
295.702
295.396
295.075
294.737
294.382
294.015
293.641
293.274
292.921
292.586
292.269
291.969
291.683
291.408
291.14
290.874
290.608
290.338
290.054
289.747
289.408
318.644
318.274
317.875
317.49
317.129
316.798
316.49
316.202
315.917
315.622
315.312
314.979
314.622
314.235
313.825
313.397
312.99
312.607
312.256
311.931
311.631
311.348
311.079
310.81
310.53
310.233
309.912
309.568
309.194
308.797
308.382
307.986
307.613
307.27
306.952
306.658
306.381
306.116
305.852
305.575
305.282
304.966
304.626
304.255
303.862
303.451
303.059
302.689
302.349
302.033
301.741
301.465
301.201
300.938
300.662
300.369
300.053
299.713
299.343
298.949
298.538
298.144
297.774
297.434
297.117
296.824
296.548
296.284
296.02
295.743
295.45
295.133
294.792
294.421
294.027
293.615
293.221
292.851
292.512
292.197
291.908
291.638
291.385
291.138
290.892
290.654
290.418
290.166
289.879
289.54
318.799
318.403
317.897
317.471
317.08
316.761
316.469
316.22
315.978
315.705
315.42
315.087
314.737
314.32
313.875
313.352
312.91
312.498
312.155
311.833
311.56
311.301
311.075
310.85
310.593
310.323
310.006
309.669
309.268
308.839
308.333
307.904
307.504
307.17
306.856
306.588
306.335
306.113
305.892
305.639
305.372
305.059
304.727
304.33
303.905
303.405
302.98
302.583
302.252
301.94
301.674
301.421
301.201
300.98
300.727
300.461
300.148
299.816
299.419
298.993
298.491
298.066
297.668
297.336
297.023
296.756
296.503
296.282
296.06
295.807
295.539
295.225
294.892
294.492
294.065
293.561
293.134
292.735
292.402
292.088
291.821
291.569
291.351
291.136
290.899
290.7
290.519
290.327
290.089
289.761
319.043
318.69
317.804
317.4
316.929
316.686
316.383
316.231
316.083
315.804
315.596
315.223
314.948
314.444
314.038
313.191
312.787
312.292
312.024
311.666
311.467
311.206
311.07
310.935
310.676
310.48
310.127
309.865
309.382
308.99
308.173
307.782
307.301
307.041
306.692
306.498
306.242
306.11
305.977
305.722
305.528
305.18
304.922
304.445
304.057
303.248
302.861
302.385
302.127
301.779
301.587
301.332
301.2
301.067
300.813
300.62
300.272
300.013
299.535
299.147
298.335
297.947
297.469
297.21
296.861
296.668
296.412
296.279
296.146
295.89
295.696
295.346
295.085
294.605
294.214
293.397
293.007
292.525
292.263
291.91
291.714
291.451
291.313
291.165
290.85
290.719
290.635
290.553
290.431
290.184
288.771
288.372
287.972
287.571
287.17
286.769
286.369
285.969
285.57
285.172
284.776
284.38
283.985
283.591
283.197
288.772
288.373
287.973
287.572
287.17
286.769
286.368
285.968
285.569
285.171
284.775
284.379
283.984
283.59
283.197
288.775
288.375
287.974
287.572
287.17
286.768
286.367
285.966
285.567
285.169
284.772
284.377
283.983
283.589
283.196
288.779
288.379
287.976
287.573
287.17
286.766
286.364
285.963
285.563
285.165
284.769
284.374
283.981
283.588
283.196
288.786
288.384
287.98
287.574
287.169
286.764
286.36
285.958
285.558
285.16
284.764
284.37
283.978
283.586
283.195
288.795
288.391
287.984
287.576
287.167
286.76
286.355
285.951
285.551
285.153
284.758
284.365
283.973
283.583
283.194
288.808
288.401
287.99
287.577
287.165
286.755
286.347
285.942
285.541
285.143
284.749
284.357
283.968
283.58
283.193
288.826
288.413
287.997
287.579
287.161
286.746
286.336
285.929
285.528
285.13
284.737
284.347
283.96
283.575
283.192
288.85
288.43
288.005
287.579
287.155
286.734
286.32
285.912
285.51
285.113
284.722
284.335
283.951
283.57
283.19
288.884
288.453
288.016
287.578
287.144
286.717
286.298
285.888
285.486
285.091
284.703
284.319
283.94
283.563
283.187
288.931
288.483
288.027
287.572
287.125
286.69
286.267
285.856
285.455
285.063
284.678
284.3
283.925
283.554
283.184
288.999
288.521
288.036
287.558
287.096
286.652
286.225
285.814
285.415
285.028
284.648
284.275
283.908
283.543
283.181
289.098
288.568
288.037
287.528
287.049
286.596
286.168
285.759
285.365
284.983
284.611
284.246
283.887
283.531
283.177
289.244
288.615
288.016
287.47
286.973
286.517
286.091
285.688
285.303
284.93
284.567
284.212
283.862
283.516
283.172
289.457
288.633
287.941
287.361
286.859
286.408
285.992
285.6
285.227
284.866
284.516
284.172
283.834
283.499
283.166
322.896
322.689
322.481
322.273
322.063
321.851
321.638
321.421
321.201
320.975
320.741
320.494
320.224
319.909
319.5
322.901
322.703
322.504
322.305
322.106
321.905
321.703
321.5
321.295
321.087
320.875
320.656
320.424
320.153
319.745
322.906
322.717
322.528
322.339
322.149
321.96
321.77
321.58
321.391
321.202
321.014
320.828
320.649
320.492
320.439
322.91
322.731
322.551
322.372
322.193
322.014
321.837
321.661
321.487
321.316
321.151
320.996
320.86
320.76
320.724
322.915
322.744
322.574
322.405
322.236
322.069
321.903
321.739
321.58
321.426
321.281
321.151
321.045
320.983
321.007
322.919
322.758
322.597
322.437
322.279
322.121
321.967
321.816
321.669
321.53
321.401
321.288
321.199
321.146
321.138
322.924
322.771
322.62
322.469
322.32
322.173
322.029
321.888
321.754
321.627
321.51
321.409
321.329
321.279
321.279
322.928
322.784
322.641
322.5
322.36
322.222
322.087
321.957
321.833
321.716
321.609
321.514
321.436
321.379
321.343
322.932
322.797
322.662
322.529
322.398
322.269
322.143
322.022
321.907
321.798
321.698
321.609
321.531
321.463
321.395
322.936
322.809
322.682
322.557
322.434
322.313
322.196
322.084
321.976
321.875
321.781
321.695
321.617
321.547
321.485
322.94
322.82
322.701
322.584
322.468
322.356
322.246
322.141
322.041
321.946
321.858
321.776
321.699
321.625
321.544
322.944
322.831
322.719
322.609
322.501
322.396
322.293
322.195
322.102
322.013
321.931
321.853
321.779
321.708
321.642
322.947
322.841
322.737
322.633
322.532
322.433
322.338
322.246
322.159
322.077
322
321.927
321.857
321.788
321.707
322.95
322.851
322.753
322.656
322.561
322.468
322.379
322.294
322.213
322.137
322.065
321.999
321.936
321.875
321.816
322.953
322.86
322.768
322.677
322.588
322.501
322.418
322.339
322.263
322.193
322.128
322.068
322.013
321.961
321.895
322.956
322.869
322.782
322.697
322.613
322.532
322.454
322.38
322.311
322.246
322.187
322.134
322.089
322.056
322.051
322.959
322.877
322.795
322.715
322.637
322.561
322.488
322.419
322.354
322.295
322.241
322.194
322.157
322.132
322.122
322.961
322.884
322.807
322.732
322.659
322.588
322.519
322.455
322.395
322.339
322.29
322.248
322.216
322.197
322.2
322.963
322.891
322.819
322.748
322.679
322.612
322.548
322.488
322.431
322.38
322.334
322.296
322.266
322.247
322.239
322.966
322.897
322.829
322.763
322.698
322.635
322.575
322.518
322.465
322.416
322.374
322.337
322.309
322.29
322.286
322.968
322.903
322.839
322.776
322.715
322.655
322.599
322.545
322.495
322.449
322.408
322.373
322.345
322.324
322.31
322.969
322.908
322.848
322.788
322.73
322.674
322.621
322.57
322.522
322.478
322.439
322.404
322.375
322.353
322.339
322.971
322.913
322.856
322.8
322.745
322.692
322.641
322.592
322.547
322.505
322.466
322.432
322.401
322.375
322.353
322.973
322.918
322.864
322.81
322.758
322.708
322.659
322.613
322.569
322.528
322.491
322.456
322.424
322.395
322.364
322.974
322.922
322.87
322.82
322.77
322.722
322.676
322.632
322.59
322.55
322.513
322.478
322.446
322.415
322.386
322.975
322.926
322.877
322.829
322.781
322.736
322.691
322.649
322.608
322.57
322.534
322.499
322.467
322.434
322.4
322.976
322.929
322.883
322.837
322.792
322.748
322.705
322.665
322.626
322.589
322.553
322.519
322.487
322.455
322.424
322.977
322.932
322.888
322.844
322.801
322.759
322.718
322.679
322.642
322.606
322.572
322.539
322.507
322.475
322.439
322.978
322.935
322.893
322.851
322.809
322.769
322.73
322.693
322.656
322.622
322.589
322.557
322.527
322.496
322.467
322.979
322.938
322.897
322.857
322.817
322.779
322.741
322.705
322.67
322.637
322.605
322.575
322.546
322.518
322.487
322.98
322.941
322.901
322.863
322.825
322.787
322.751
322.716
322.683
322.651
322.621
322.592
322.566
322.542
322.526
322.981
322.943
322.905
322.868
322.831
322.795
322.761
322.727
322.695
322.664
322.635
322.608
322.583
322.561
322.544
322.982
322.945
322.909
322.873
322.837
322.803
322.769
322.737
322.705
322.676
322.648
322.622
322.598
322.578
322.563
322.982
322.947
322.912
322.877
322.843
322.809
322.777
322.745
322.715
322.686
322.659
322.634
322.611
322.591
322.573
322.983
322.949
322.914
322.881
322.848
322.815
322.784
322.753
322.724
322.695
322.669
322.644
322.622
322.602
322.585
322.983
322.95
322.917
322.884
322.852
322.821
322.79
322.76
322.731
322.704
322.678
322.653
322.631
322.61
322.591
322.984
322.951
322.919
322.888
322.856
322.825
322.795
322.766
322.738
322.711
322.685
322.661
322.638
322.617
322.598
322.984
322.953
322.921
322.89
322.86
322.83
322.8
322.772
322.744
322.718
322.692
322.668
322.645
322.623
322.602
322.985
322.954
322.923
322.893
322.863
322.834
322.805
322.777
322.75
322.723
322.698
322.674
322.65
322.627
322.605
322.985
322.955
322.925
322.895
322.866
322.837
322.809
322.781
322.755
322.729
322.703
322.679
322.655
322.632
322.61
322.985
322.956
322.926
322.897
322.869
322.84
322.812
322.785
322.759
322.733
322.708
322.684
322.66
322.637
322.613
322.985
322.956
322.928
322.899
322.871
322.843
322.816
322.789
322.763
322.737
322.712
322.688
322.664
322.641
322.618
322.986
322.957
322.929
322.901
322.873
322.845
322.818
322.792
322.766
322.741
322.716
322.692
322.669
322.645
322.622
322.986
322.958
322.93
322.902
322.874
322.847
322.821
322.795
322.769
322.744
322.72
322.696
322.673
322.65
322.627
322.986
322.958
322.931
322.903
322.876
322.849
322.823
322.797
322.772
322.747
322.723
322.699
322.676
322.654
322.631
322.986
322.959
322.931
322.904
322.877
322.851
322.824
322.799
322.774
322.749
322.725
322.702
322.68
322.658
322.638
322.986
322.959
322.932
322.905
322.878
322.852
322.826
322.8
322.775
322.751
322.728
322.705
322.682
322.661
322.641
322.986
322.959
322.932
322.905
322.879
322.853
322.827
322.801
322.777
322.753
322.729
322.706
322.685
322.664
322.644
322.986
322.959
322.932
322.906
322.879
322.853
322.827
322.802
322.778
322.754
322.73
322.708
322.686
322.665
322.645
322.986
322.959
322.933
322.906
322.879
322.853
322.828
322.803
322.778
322.754
322.731
322.709
322.687
322.666
322.646
322.986
322.959
322.932
322.906
322.879
322.853
322.828
322.803
322.778
322.754
322.731
322.709
322.687
322.667
322.646
322.986
322.959
322.932
322.906
322.879
322.853
322.827
322.802
322.778
322.754
322.731
322.709
322.687
322.666
322.646
322.986
322.959
322.932
322.905
322.879
322.852
322.827
322.802
322.777
322.753
322.73
322.708
322.686
322.666
322.646
322.986
322.959
322.932
322.904
322.878
322.851
322.826
322.8
322.776
322.752
322.729
322.706
322.685
322.665
322.645
322.986
322.958
322.931
322.904
322.877
322.85
322.824
322.799
322.774
322.75
322.727
322.704
322.683
322.663
322.644
322.986
322.958
322.93
322.903
322.875
322.848
322.822
322.796
322.772
322.747
322.724
322.702
322.681
322.661
322.642
322.986
322.957
322.929
322.901
322.874
322.846
322.82
322.794
322.769
322.744
322.721
322.698
322.677
322.657
322.639
322.986
322.957
322.928
322.9
322.872
322.844
322.817
322.791
322.765
322.741
322.717
322.694
322.673
322.653
322.636
322.985
322.956
322.927
322.898
322.869
322.841
322.814
322.787
322.761
322.736
322.712
322.689
322.667
322.647
322.629
322.985
322.955
322.925
322.896
322.867
322.838
322.81
322.783
322.757
322.731
322.707
322.683
322.661
322.64
322.622
322.985
322.954
322.923
322.893
322.864
322.834
322.806
322.778
322.751
322.725
322.7
322.676
322.653
322.631
322.607
322.984
322.953
322.921
322.891
322.86
322.83
322.801
322.773
322.746
322.719
322.694
322.669
322.645
322.622
322.6
322.984
322.951
322.919
322.888
322.856
322.826
322.796
322.767
322.739
322.712
322.686
322.661
322.637
322.613
322.588
322.983
322.95
322.917
322.884
322.852
322.821
322.79
322.76
322.732
322.704
322.678
322.653
322.628
322.605
322.582
322.983
322.948
322.914
322.88
322.847
322.815
322.783
322.753
322.724
322.696
322.669
322.644
322.62
322.596
322.571
322.982
322.946
322.911
322.876
322.842
322.808
322.776
322.745
322.715
322.687
322.66
322.634
322.61
322.587
322.565
322.981
322.944
322.908
322.871
322.836
322.801
322.768
322.736
322.705
322.676
322.649
322.624
322.6
322.578
322.556
322.981
322.942
322.904
322.866
322.829
322.794
322.759
322.726
322.694
322.665
322.637
322.612
322.589
322.568
322.55
322.98
322.94
322.9
322.861
322.822
322.785
322.749
322.715
322.682
322.652
322.624
322.599
322.576
322.558
322.543
322.979
322.937
322.895
322.854
322.814
322.775
322.738
322.702
322.668
322.637
322.608
322.583
322.561
322.543
322.53
322.978
322.934
322.89
322.847
322.805
322.765
322.725
322.688
322.653
322.621
322.591
322.565
322.543
322.527
322.518
322.977
322.931
322.885
322.84
322.796
322.753
322.712
322.673
322.636
322.602
322.571
322.544
322.522
322.505
322.494
322.976
322.927
322.879
322.831
322.785
322.74
322.697
322.656
322.617
322.581
322.548
322.52
322.496
322.48
322.474
322.974
322.923
322.872
322.822
322.773
322.726
322.681
322.637
322.596
322.558
322.523
322.492
322.466
322.446
322.435
322.973
322.919
322.865
322.812
322.761
322.711
322.663
322.617
322.573
322.533
322.495
322.461
322.431
322.408
322.399
322.971
322.914
322.857
322.802
322.747
322.694
322.643
322.595
322.548
322.505
322.465
322.427
322.392
322.359
322.318
322.97
322.909
322.849
322.79
322.732
322.676
322.622
322.571
322.522
322.476
322.432
322.391
322.352
322.314
322.277
322.968
322.904
322.84
322.777
322.716
322.657
322.6
322.545
322.493
322.444
322.398
322.354
322.312
322.269
322.22
322.966
322.898
322.83
322.764
322.699
322.636
322.576
322.518
322.463
322.411
322.362
322.316
322.271
322.228
322.187
322.964
322.891
322.82
322.749
322.68
322.614
322.549
322.488
322.43
322.375
322.324
322.276
322.23
322.185
322.135
322.961
322.885
322.808
322.733
322.66
322.589
322.521
322.456
322.395
322.338
322.284
322.235
322.188
322.145
322.104
322.959
322.877
322.796
322.716
322.639
322.563
322.491
322.422
322.357
322.297
322.242
322.191
322.145
322.102
322.056
322.956
322.869
322.783
322.698
322.615
322.535
322.458
322.385
322.317
322.253
322.196
322.145
322.1
322.061
322.029
322.954
322.861
322.769
322.679
322.59
322.505
322.422
322.345
322.272
322.206
322.146
322.094
322.05
322.015
321.996
322.951
322.852
322.754
322.658
322.563
322.472
322.384
322.301
322.223
322.153
322.091
322.038
321.995
321.958
321.916
322.947
322.842
322.738
322.635
322.534
322.436
322.342
322.253
322.17
322.094
322.029
321.975
321.935
321.906
321.881
322.944
322.832
322.721
322.611
322.503
322.398
322.297
322.2
322.11
322.029
321.959
321.903
321.866
321.851
321.855
322.94
322.821
322.703
322.586
322.47
322.358
322.248
322.144
322.045
321.956
321.879
321.819
321.783
321.781
321.823
322.937
322.81
322.684
322.559
322.436
322.315
322.196
322.082
321.974
321.874
321.787
321.717
321.676
321.682
321.767
322.933
322.799
322.665
322.532
322.4
322.269
322.142
322.017
321.897
321.785
321.682
321.595
321.536
321.528
321.636
289.68
288.528
287.769
287.191
286.706
286.275
285.878
285.503
285.146
284.799
284.462
284.131
283.805
283.482
283.16
289.275
288.16
287.487
286.972
286.53
286.131
285.758
285.404
285.063
284.732
284.409
284.091
283.776
283.465
283.155
287.676
287.484
287.096
286.701
286.325
285.968
285.626
285.295
284.974
284.66
284.352
284.047
283.746
283.447
283.149
287.047
286.945
286.71
286.417
286.107
285.795
285.485
285.18
284.88
284.584
284.292
284.002
283.714
283.428
283.143
286.455
286.499
286.363
286.145
285.89
285.619
285.342
285.062
284.783
284.506
284.23
283.955
283.681
283.408
283.136
286.187
286.177
286.073
285.899
285.685
285.448
285.199
284.944
284.686
284.426
284.167
283.907
283.648
283.388
283.129
285.91
285.919
285.831
285.682
285.496
285.285
285.061
284.827
284.589
284.347
284.103
283.859
283.614
283.368
283.123
285.786
285.73
285.63
285.491
285.323
285.133
284.929
284.715
284.494
284.269
284.041
283.811
283.58
283.348
283.116
285.687
285.573
285.457
285.321
285.164
284.99
284.803
284.606
284.402
284.193
283.98
283.765
283.547
283.329
283.11
285.517
285.416
285.297
285.165
285.018
284.857
284.685
284.503
284.314
284.12
283.921
283.719
283.515
283.31
283.103
285.406
285.271
285.147
285.019
284.881
284.732
284.572
284.405
284.23
284.049
283.864
283.675
283.484
283.291
283.097
285.224
285.118
285.001
284.88
284.751
284.613
284.466
284.312
284.15
283.982
283.809
283.633
283.454
283.273
283.091
285.106
284.972
284.859
284.746
284.627
284.501
284.366
284.223
284.073
283.918
283.757
283.593
283.425
283.256
283.085
284.905
284.812
284.716
284.616
284.509
284.394
284.271
284.14
284.001
283.857
283.708
283.554
283.398
283.24
283.08
284.759
284.655
284.575
284.49
284.397
284.294
284.182
284.061
283.933
283.8
283.661
283.518
283.372
283.224
283.075
284.474
284.481
284.437
284.371
284.291
284.2
284.098
283.987
283.87
283.746
283.617
283.484
283.348
283.21
283.07
284.346
284.344
284.314
284.262
284.194
284.112
284.02
283.919
283.81
283.696
283.576
283.452
283.325
283.196
283.065
284.204
284.225
284.207
284.165
284.105
284.032
283.948
283.856
283.755
283.649
283.538
283.422
283.304
283.183
283.061
284.133
284.134
284.117
284.079
284.026
283.96
283.883
283.797
283.705
283.606
283.502
283.394
283.284
283.171
283.057
284.048
284.057
284.04
284.005
283.956
283.895
283.824
283.744
283.658
283.566
283.469
283.369
283.265
283.16
283.053
284.004
283.996
283.976
283.941
283.894
283.836
283.77
283.696
283.615
283.529
283.439
283.345
283.248
283.15
283.05
283.953
283.945
283.921
283.885
283.839
283.784
283.721
283.652
283.576
283.496
283.411
283.323
283.233
283.14
283.047
283.929
283.905
283.875
283.836
283.791
283.737
283.678
283.612
283.541
283.465
283.386
283.303
283.218
283.132
283.044
283.907
283.87
283.834
283.793
283.747
283.695
283.638
283.576
283.509
283.437
283.363
283.285
283.205
283.124
283.041
283.87
283.834
283.795
283.753
283.708
283.657
283.602
283.543
283.479
283.412
283.341
283.268
283.193
283.116
283.039
283.845
283.8
283.759
283.716
283.671
283.622
283.569
283.513
283.452
283.389
283.322
283.253
283.182
283.11
283.037
283.803
283.764
283.724
283.681
283.637
283.59
283.539
283.485
283.428
283.367
283.304
283.239
283.172
283.104
283.035
283.775
283.73
283.689
283.648
283.605
283.56
283.511
283.46
283.405
283.348
283.288
283.226
283.163
283.098
283.033
283.728
283.692
283.654
283.616
283.575
283.532
283.486
283.436
283.384
283.33
283.273
283.214
283.154
283.093
283.031
283.694
283.655
283.621
283.585
283.547
283.506
283.462
283.415
283.366
283.314
283.26
283.204
283.147
283.088
283.03
283.628
283.614
283.588
283.556
283.521
283.482
283.44
283.396
283.348
283.299
283.247
283.194
283.14
283.084
283.028
283.598
283.582
283.559
283.53
283.497
283.46
283.421
283.378
283.333
283.285
283.236
283.185
283.133
283.08
283.027
283.565
283.554
283.534
283.507
283.476
283.441
283.403
283.362
283.319
283.273
283.226
283.177
283.128
283.077
283.026
283.549
283.533
283.513
283.487
283.457
283.424
283.387
283.348
283.306
283.263
283.217
283.17
283.123
283.074
283.025
283.53
283.516
283.495
283.47
283.441
283.408
283.373
283.335
283.295
283.253
283.209
283.164
283.118
283.071
283.024
283.52
283.502
283.481
283.456
283.427
283.395
283.361
283.324
283.285
283.244
283.202
283.158
283.114
283.069
283.023
283.509