/*--------------------------------*- C++ -*----------------------------------*\
| =========                 |                                                 |
| \\      /  F ield         | OpenFOAM: The Open Source CFD Toolbox           |
|  \\    /   O peration     | Version:  5.x                                   |
|   \\  /    A nd           | Web:      www.OpenFOAM.org                      |
|    \\/     M anipulation  |                                                 |
\*---------------------------------------------------------------------------*/
FoamFile
{
    version     2.0;
    format      ascii;
    class       volScalarField;
    location    "5.9";
    object      gradTx;
}
// * * * * * * * * * * * * * * * * * * * * * * * * * * * * * * * * * * * * * //

dimensions      [0 -1 0 1 0 0 0];

internalField   nonuniform List<scalar> 
3200
(
45.2098
3.71199
1.64877
1.54023
0.814979
0.77139
0.466737
0.44728
0.293827
0.282721
0.170832
0.166689
0.180693
0.180843
0.173154
0.172313
0.159536
0.158419
0.144299
0.143117
0.128835
0.127665
0.113865
0.112771
0.100233
0.099346
0.090174
0.0901683
0.0951073
0.164812
0.0825312
0.0552829
0.0534543
0.0417037
0.0408764
0.033277
0.0327181
0.0269996
0.0265699
0.0220099
0.0216633
0.0179227
0.0176349
0.0144855
0.0142382
0.0114684
0.0112411
0.00857646
0.0083375
0.00521126
0.00508038
0.00508098
0.00503343
0.00396856
0.00385549
0.00220459
0.0020391
-0.000268087
-0.000505557
-0.00386403
-0.00422646
-0.00949353
-0.0100987
-0.0191717
-0.0203196
-0.0381769
-0.0408492
-0.0840372
-0.0929594
-0.238773
-0.617402
-0.436296
-0.681746
-0.713113
-1.26841
-1.24279
-0.0558042
-0.00753058
-0.00152571
-52.9467
47.8945
3.10532
1.57734
1.35455
0.774088
0.681029
0.436329
0.394726
0.271788
0.248194
0.16033
0.151484
0.160984
0.161192
0.155215
0.153442
0.143364
0.141
0.129826
0.12732
0.11601
0.113531
0.102605
0.100287
0.0903838
0.0885208
0.0814515
0.0816033
0.0883959
0.137417
0.0766292
0.0516405
0.0475681
0.038034
0.0362598
0.0302015
0.0290126
0.0244709
0.0235586
0.0199405
0.0192047
0.0162375
0.0156269
0.0131283
0.0126035
0.010405
0.00992255
0.007806
0.00730164
0.00486177
0.00458369
0.00453942
0.00443553
0.00359496
0.00335533
0.00204613
0.00169474
-0.000138599
-0.00064338
-0.00331579
-0.00408705
-0.00828578
-0.00957614
-0.0168341
-0.0192926
-0.0336929
-0.0394817
-0.0750603
-0.0949806
-0.227121
-0.517806
-0.414924
-0.602164
-0.666746
-1.0852
-1.03155
-0.121864
-0.020901
-0.0043872
-54.7428
50.5623
2.57652
1.4537
1.18317
0.713701
0.596733
0.397797
0.345424
0.245775
0.216238
0.146667
0.135546
0.141647
0.141789
0.137109
0.134904
0.126883
0.123934
0.115006
0.111876
0.102832
0.0997351
0.0910011
0.0881068
0.0802132
0.0779039
0.0724402
0.0727726
0.0799954
0.114414
0.0692953
0.0471613
0.0419004
0.0340539
0.0318145
0.0269312
0.0254413
0.021797
0.0206554
0.0177557
0.0168354
0.014458
0.0136943
0.0116922
0.0110357
0.00927302
0.00866931
0.00697103
0.00634318
0.0044258
0.00407764
0.00400022
0.00386709
0.00319732
0.00289794
0.00184935
0.00140965
-6.22642e-05
-0.000694509
-0.00284361
-0.00381055
-0.00719437
-0.00881487
-0.0146886
-0.0177879
-0.0295534
-0.0369226
-0.0667098
-0.092513
-0.209126
-0.433952
-0.381946
-0.527489
-0.606223
-0.920878
-0.854551
-0.155575
-0.0308935
-0.00673243
-56.5387
53.2095
2.11328
1.29596
1.01976
0.639213
0.515716
0.353403
0.298014
0.216957
0.185883
0.130666
0.118919
0.122547
0.122579
0.118903
0.116599
0.110199
0.107106
0.0999537
0.0966675
0.089416
0.0861644
0.0791633
0.0761265
0.0698192
0.0674131
0.063197
0.0636663
0.0705069
0.0945925
0.0610419
0.0420072
0.0363362
0.0298494
0.027475
0.0235251
0.0219561
0.019023
0.0178226
0.0154917
0.0145244
0.012614
0.0118113
0.0102023
0.00951208
0.00809465
0.00745984
0.00609324
0.00543629
0.00392705
0.00356074
0.00346325
0.0033201
0.00278484
0.00247051
0.0016282
0.00116584
-1.95268e-05
-0.000684975
-0.00241872
-0.00343739
-0.0061735
-0.00788348
-0.012654
-0.0159366
-0.0255897
-0.0334669
-0.0585186
-0.0864131
-0.186803
-0.361172
-0.341066
-0.455487
-0.536264
-0.771792
-0.702858
-0.166314
-0.0368651
-0.00833219
-58.3344
55.8353
1.70416
1.11658
0.860514
0.554444
0.436252
0.304731
0.25163
0.18614
0.156494
0.112926
0.101677
0.103592
0.103516
0.100643
0.0984578
0.0933836
0.0904415
0.084747
0.081618
0.07584
0.0727437
0.0671668
0.0642771
0.0592692
0.0569947
0.0537663
0.0543052
0.0603287
0.0770764
0.0522079
0.0363185
0.0308045
0.0254804
0.0231985
0.0200237
0.0185254
0.0161796
0.015035
0.0131732
0.0122511
0.0107256
0.00996052
0.00867556
0.00801757
0.00688496
0.00627964
0.00518705
0.00456348
0.00338258
0.00303309
0.00292809
0.00278878
0.00236352
0.00206419
0.00139185
0.000950933
2.40446e-06
-0.000632718
-0.00202244
-0.00299554
-0.00519369
-0.00682967
-0.010679
-0.0138304
-0.0216971
-0.0293241
-0.0502137
-0.0774133
-0.161522
-0.296171
-0.294806
-0.38483
-0.460115
-0.634884
-0.569869
-0.16077
-0.0388002
-0.00906349
-60.1298
58.4409
1.33873
0.923946
0.703271
0.462159
0.357321
0.252923
0.205742
0.15389
0.127662
0.0938929
0.0839078
0.0847165
0.0845662
0.0823546
0.080432
0.0764825
0.0738867
0.0694377
0.0666745
0.0621567
0.0594221
0.0550629
0.0525124
0.0486098
0.0466144
0.044185
0.0447246
0.0497214
0.061225
0.0430147
0.0302148
0.0252652
0.0209898
0.0189576
0.0164553
0.0151286
0.0132882
0.012276
0.010817
0.0100019
0.00880683
0.00813052
0.00712374
0.00654204
0.00565417
0.00511891
0.00426209
0.00371296
0.00280485
0.00249566
0.0023943
0.00226889
0.00193716
0.00167278
0.00114623
0.000756326
1.17914e-05
-0.000550284
-0.00164284
-0.0025047
-0.00423637
-0.00568734
-0.0087319
-0.0115357
-0.017814
-0.0246509
-0.0416565
-0.0661373
-0.134218
-0.236611
-0.24489
-0.314763
-0.379987
-0.507568
-0.450644
-0.14374
-0.0370459
-0.00890143
-61.9249
61.0289
1.00751
0.723543
0.546846
0.364424
0.278372
0.198826
0.160041
0.120614
0.0991312
0.0739088
0.0657072
0.0658793
0.0656985
0.064055
0.0624872
0.0595273
0.057406
0.054061
0.0518012
0.0484021
0.0461655
0.0428866
0.0408018
0.0378741
0.0362515
0.0344849
0.0349658
0.0388539
0.0465622
0.033605
0.0237971
0.0196989
0.0164094
0.0147356
0.0128398
0.0117524
0.0103637
0.00953493
0.00843512
0.00776795
0.00686728
0.00631372
0.00555492
0.00507875
0.00440926
0.00397104
0.00332481
0.0028768
0.00220315
0.0019499
0.00186146
0.00175726
0.0015081
0.00129185
0.000895138
0.000575898
1.38733e-05
-0.000446638
-0.00127247
-0.00197907
-0.00329029
-0.00448127
-0.00679443
-0.00910198
-0.0139086
-0.0195709
-0.0328003
-0.0531172
-0.105542
-0.180815
-0.19251
-0.244882
-0.297365
-0.387632
-0.341418
-0.118702
-0.0321497
-0.00790375
-63.7197
63.6026
0.701957
0.518848
0.39065
0.262834
0.199163
0.143099
0.114365
0.0866211
0.0707503
0.053244
0.0471717
0.0470561
0.0468893
0.0457523
0.0445982
0.0425385
0.0409743
0.0386408
0.0369735
0.034601
0.0329507
0.0306626
0.0291248
0.0270862
0.0258943
0.0246948
0.0250706
0.0278335
0.0327259
0.0240693
0.017151
0.0141003
0.0117643
0.0105224
0.00919199
0.00838823
0.00741671
0.00680467
0.00603589
0.00554329
0.00491383
0.00450512
0.00397478
0.00362319
0.0031551
0.00283148
0.0023796
0.00204965
0.00158463
0.00139754
0.00132925
0.00125141
0.00107771
0.000918131
0.000640942
0.000405176
1.18895e-05
-0.000328385
-0.000906874
-0.00142926
-0.00234901
-0.00323032
-0.00485719
-0.00656831
-0.00996904
-0.0141883
-0.0236605
-0.0388129
-0.0759524
-0.127562
-0.138503
-0.174997
-0.213231
-0.273156
-0.239253
-0.0882171
-0.0247612
-0.00619338
-65.5143
66.1658
0.414202
0.311958
0.234439
0.158678
0.11965
0.0862784
0.06865
0.052153
0.0424348
0.0321218
0.028398
0.028235
0.0281189
0.0274504
0.0267453
0.02553
0.0245734
0.023194
0.0221739
0.0207711
0.0197613
0.0184085
0.0174679
0.0162644
0.0155375
0.0148418
0.0150799
0.016728
0.0194316
0.0144641
0.0103501
0.00847301
0.00707549
0.00631276
0.0055231
0.00503075
0.00445536
0.00408068
0.00362562
0.00332409
0.00295155
0.00270139
0.00238749
0.00217227
0.00189516
0.00169705
0.00142951
0.0012279
0.000954992
0.000840436
0.00079742
0.000749395
0.000646757
0.000549115
0.000385086
0.000240751
7.78154e-06
-0.000200606
-0.000543526
-0.000863556
-0.00140928
-0.00194954
-0.00291658
-0.00396705
-0.0059967
-0.00859557
-0.0142936
-0.0236291
-0.0457839
-0.0759367
-0.0834744
-0.105042
-0.12823
-0.162432
-0.141772
-0.0542293
-0.0155772
-0.00394147
-67.3087
68.7227
0.136916
0.104078
0.0781571
0.053052
0.0399109
0.028828
0.0228895
0.0174137
0.0141431
0.010736
0.00948178
0.00941205
0.00937057
0.00914991
0.00891291
0.00851106
0.00818932
0.00773285
0.00738969
0.00692535
0.00658566
0.00613791
0.00582156
0.00542351
0.00517938
0.00495139
0.00503285
0.00558022
0.00644408
0.00482476
0.0034598
0.00282658
0.00236127
0.00210419
0.00184232
0.00167659
0.00148598
0.0013599
0.0012092
0.00110774
0.000984374
0.0009002
0.000796252
0.000723833
0.000632056
0.000565391
0.000476782
0.000409005
0.000319017
0.000280464
0.000265786
0.000249562
0.000215601
0.000182753
0.000128439
7.98692e-05
2.68806e-06
-6.74486e-05
-0.000181096
-0.000288828
-0.000469774
-0.000651701
-0.000972633
-0.00132663
-0.0020016
-0.00287886
-0.00478119
-0.00793251
-0.0152954
-0.0252155
-0.0278844
-0.0350223
-0.0427879
-0.0539034
-0.0469675
-0.0182859
-0.00531257
-0.00135202
-69.1029
68.7151
0.150878
0.128425
0.107468
0.0852123
0.0726974
0.0607384
0.0533358
0.0448793
0.0387594
0.031002
0.0281902
0.0283026
0.0282003
0.027366
0.0264677
0.0249515
0.0237646
0.0221203
0.0209266
0.0193702
0.0182747
0.016888
0.0159423
0.0147974
0.0141206
0.0135304
0.0138277
0.0155045
0.0180883
0.0137146
0.0100601
0.00838193
0.00717146
0.00650551
0.00582726
0.00539439
0.00489044
0.00455238
0.00414148
0.00386037
0.00351223
0.00327044
0.0029658
0.00274875
0.00246652
0.00225414
0.00196092
0.00172557
0.00140376
0.00129119
0.00130883
0.00131054
0.00127779
0.00123924
0.00117151
0.00111744
0.0010412
0.000984624
0.000908819
0.000852082
0.000774081
0.000708643
0.000605563
0.000491455
0.000265314
-7.8377e-05
-0.00089633
-0.00243646
-0.00622631
-0.0117988
-0.0150826
-0.0220691
-0.0295048
-0.0404498
-0.0360605
-0.0140927
-0.00409906
-0.00104353
-69.8074
66.1427
0.456004
0.385214
0.322456
0.255247
0.21807
0.182033
0.16005
0.134544
0.116344
0.0928083
0.0844537
0.0849163
0.0846303
0.0821007
0.0794278
0.0748414
0.071312
0.0663428
0.0627945
0.0580923
0.0548358
0.0506463
0.0478349
0.0443734
0.0423584
0.0405557
0.0414278
0.0464772
0.0545433
0.0411151
0.0301012
0.0251271
0.0214926
0.019517
0.017472
0.016186
0.0146647
0.0136601
0.0124193
0.0115838
0.0105324
0.00981385
0.0088939
0.00824887
0.00739677
0.00676567
0.00588045
0.00518018
0.00420291
0.00386835
0.00392714
0.00393301
0.0038336
0.00371888
0.00351399
0.0033532
0.00312283
0.00295465
0.0027257
0.0025571
0.00232174
0.00212744
0.00181713
0.00147885
0.000800649
-0.000216157
-0.0026601
-0.0072194
-0.0186076
-0.0354879
-0.0450996
-0.0661893
-0.088374
-0.121963
-0.108885
-0.0417992
-0.0120196
-0.00304223
-69.4222
63.563
0.771322
0.641682
0.537623
0.424081
0.363397
0.302765
0.266904
0.223917
0.194141
0.154007
0.140365
0.14156
0.14115
0.136841
0.132464
0.124689
0.118917
0.110509
0.104708
0.0967566
0.0914343
0.0843495
0.0797535
0.0738916
0.0705877
0.067474
0.0688609
0.0773292
0.091858
0.0684191
0.0499008
0.0418187
0.0357474
0.0325314
0.0290863
0.0269871
0.0244183
0.0227772
0.0206808
0.0193159
0.0175394
0.0163653
0.014811
0.0137573
0.0123182
0.0112874
0.0097926
0.00864587
0.00697637
0.00642979
0.00654757
0.0065597
0.00639003
0.00620215
0.00585472
0.00559176
0.00520198
0.00492711
0.00454018
0.0042648
0.00386778
0.00355088
0.00302983
0.00247985
0.00134954
-0.000296839
-0.00433924
-0.0117292
-0.0307692
-0.0594678
-0.0746574
-0.110266
-0.146787
-0.205342
-0.183869
-0.0680135
-0.0191081
-0.00478057
-69.0369
60.9712
1.10391
0.897127
0.753169
0.590801
0.508722
0.422507
0.374044
0.312762
0.272353
0.214147
0.195682
0.198268
0.197826
0.191584
0.185637
0.174456
0.166628
0.15457
0.146709
0.135316
0.128103
0.117953
0.111723
0.103308
0.0988094
0.0942123
0.0960109
0.107939
0.130692
0.0955264
0.0692831
0.05843
0.0498881
0.0455549
0.0406469
0.037807
0.0341349
0.0319126
0.0289132
0.0270645
0.0245222
0.0229321
0.0207082
0.0192812
0.0172233
0.0158277
0.0136909
0.0121325
0.00970494
0.00896469
0.00917225
0.00919368
0.00894722
0.00869182
0.00819209
0.00783541
0.00727655
0.00690408
0.00635021
0.00597739
0.00541062
0.00498251
0.00424371
0.00350409
0.00191909
-0.000281661
-0.00588446
-0.0157729
-0.0425445
-0.0839879
-0.103398
-0.154305
-0.204319
-0.291923
-0.262629
-0.0915497
-0.0248135
-0.00610114
-68.6514
58.3629
1.46124
1.15006
0.969451
0.754308
0.654212
0.540738
0.481697
0.400771
0.351277
0.272696
0.250157
0.255097
0.254733
0.246316
0.239019
0.22409
0.214507
0.198464
0.18885
0.173708
0.16489
0.1514
0.14378
0.132567
0.127035
0.120695
0.122756
0.138116
0.171842
0.122277
0.0880498
0.0749488
0.0638605
0.0586015
0.0521249
0.0486603
0.0437935
0.0410792
0.0370996
0.0348408
0.031467
0.0295242
0.0265735
0.0248303
0.022102
0.0203977
0.017566
0.015654
0.012366
0.0114617
0.0118044
0.0118384
0.0115048
0.0111913
0.0105238
0.0100872
0.0093437
0.00888833
0.00815304
0.00769776
0.00694795
0.0064266
0.00545764
0.00456217
0.0025133
-0.000130371
-0.00725821
-0.0191412
-0.0537327
-0.109389
-0.130879
-0.198381
-0.260347
-0.383179
-0.34706
-0.110912
-0.0285979
-0.00687177
-68.2657
55.7343
1.85133
1.39777
1.18711
0.913214
0.800238
0.656792
0.590224
0.487523
0.431364
0.329004
0.303533
0.312138
0.311963
0.301002
0.292706
0.27351
0.262646
0.2421
0.231213
0.211847
0.201863
0.184612
0.17598
0.161599
0.155293
0.146842
0.148969
0.167558
0.216324
0.148414
0.105972
0.0913873
0.0775998
0.0716969
0.0634824
0.0595697
0.0533661
0.0502964
0.0452173
0.0426619
0.0383547
0.0361567
0.0323906
0.030419
0.0269399
0.0250128
0.0214045
0.0192305
0.0149319
0.0139089
0.014449
0.0144979
0.0140616
0.013705
0.0128463
0.0123513
0.0113994
0.0108838
0.0099447
0.00942995
0.00847618
0.00788862
0.00666867
0.00566641
0.00313133
0.000200323
-0.00844172
-0.0216012
-0.0640783
-0.136157
-0.15652
-0.242677
-0.31394
-0.480793
-0.439491
-0.124121
-0.0299587
-0.00699744
-67.8798
53.0825
2.28277
1.63576
1.40731
1.06568
0.947482
0.769771
0.700198
0.572414
0.5133
0.382237
0.355547
0.369531
0.369625
0.355582
0.34683
0.322596
0.311171
0.285351
0.273914
0.249611
0.239128
0.21748
0.208411
0.190308
0.183638
0.172565
0.174523
0.195793
0.265474
0.173533
0.122779
0.107794
0.0910238
0.0848849
0.074668
0.0705709
0.0628135
0.0595941
0.0532341
0.0505531
0.0451581
0.0428521
0.038136
0.036068
0.0317157
0.0296953
0.0251856
0.0228921
0.0173667
0.0162936
0.0171132
0.0171768
0.0166153
0.0162388
0.0151542
0.0146337
0.0134376
0.0128963
0.0117194
0.0111798
0.0099898
0.00937599
0.00787103
0.00683201
0.00376525
0.000759504
-0.00944447
-0.0228884
-0.0732398
-0.164994
-0.179528
-0.28757
-0.363709
-0.586734
-0.542886
-0.128482
-0.0284715
-0.00643337
-67.4937
50.4061
2.76471
1.85701
1.63203
1.20922
1.09711
0.878424
0.812499
0.654557
0.598113
0.431295
0.405933
0.427479
0.427851
0.409951
0.401573
0.37117
0.360273
0.328026
0.317131
0.286822
0.276839
0.249845
0.241203
0.21856
0.212158
0.197768
0.199306
0.222093
0.321088
0.197004
0.138156
0.124272
0.104023
0.0982362
0.085609
0.0817186
0.0720794
0.0690176
0.0611038
0.0585531
0.051838
0.0496439
0.0437755
0.0418084
0.0363983
0.0344774
0.0288781
0.026683
0.0196235
0.0186026
0.0198078
0.0198808
0.0191616
0.018801
0.0174397
0.0169432
0.0154498
0.0149343
0.0134687
0.0129556
0.0114804
0.010899
0.00905481
0.00807878
0.00439678
0.00160667
-0.0103176
-0.0226992
-0.0807449
-0.196918
-0.198797
-0.333738
-0.407602
-0.703349
-0.661102
-0.120267
-0.0238654
-0.00519857
-67.1074
47.7059
3.30667
2.05095
1.86466
1.34032
1.25099
0.980967
0.928482
0.732641
0.687341
0.474694
0.454443
0.486274
0.486809
0.463939
0.457197
0.418965
0.410228
0.369847
0.361124
0.32322
0.31523
0.281476
0.274555
0.246163
0.240998
0.222333
0.223238
0.245344
0.385626
0.217866
0.151735
0.141005
0.116443
0.111861
0.0962006
0.0930964
0.0810825
0.0786353
0.0687592
0.0667197
0.0583373
0.0565829
0.0492592
0.0476868
0.0409414
0.0394068
0.0324346
0.0306685
0.0216388
0.0208226
0.0225477
0.0226166
0.0216937
0.0214033
0.0196907
0.0192926
0.0174229
0.0170103
0.01518
0.01477
0.0129354
0.0124727
0.0102039
0.00943383
0.00499268
0.00281926
-0.0111723
-0.0206833
-0.0859249
-0.233415
-0.212742
-0.382349
-0.44262
-0.833483
-0.799262
-0.0942741
-0.0161499
-0.00338787
-66.7209
44.9866
3.91804
2.20211
2.11082
1.45402
1.41211
1.07481
1.0502
0.804703
0.783264
0.510398
0.500869
0.546322
0.546704
0.517281
0.51408
0.465579
0.46145
0.410402
0.406285
0.358422
0.354653
0.312033
0.308766
0.272837
0.270378
0.246116
0.246323
0.263868
0.462487
0.234663
0.163098
0.158292
0.128065
0.12593
0.10629
0.104831
0.089703
0.0885503
0.0761013
0.0751401
0.0645715
0.0637448
0.0545129
0.0537721
0.0452763
0.0445538
0.035783
0.0349448
0.0233257
0.0229411
0.0253539
0.0253921
0.0242006
0.0240626
0.0218892
0.021701
0.0193377
0.0191431
0.0168345
0.0166415
0.0143355
0.0141186
0.0112931
0.0109358
0.00549795
0.00450465
-0.0122062
-0.0164382
-0.0878147
-0.276638
-0.219076
-0.435333
-0.464414
-0.980621
-0.964252
-0.0432068
-0.00581991
-0.00117822
-66.3342
44.9866
3.91804
2.20211
2.11082
1.45402
1.41211
1.07481
1.0502
0.804704
0.783264
0.510398
0.500869
0.546322
0.546704
0.517281
0.514081
0.465579
0.46145
0.410402
0.406286
0.358422
0.354653
0.312033
0.308766
0.272837
0.270379
0.246117
0.246323
0.263869
0.462488
0.234664
0.163098
0.158292
0.128065
0.12593
0.10629
0.104831
0.0897032
0.0885506
0.0761015
0.0751404
0.0645717
0.063745
0.0545131
0.0537723
0.0452764
0.0445539
0.0357831
0.0349449
0.0233257
0.0229412
0.025354
0.0253922
0.0242007
0.0240627
0.0218893
0.0217011
0.0193378
0.0191432
0.0168346
0.0166416
0.0143356
0.0141187
0.0112933
0.0109359
0.00549813
0.00450484
-0.0122057
-0.0164376
-0.0878129
-0.276633
-0.219072
-0.435326
-0.464407
-0.980607
-0.964238
-0.0432062
-0.00581982
-0.00117822
-66.3343
47.7059
3.30667
2.05095
1.86466
1.34032
1.25099
0.980967
0.928482
0.732641
0.687342
0.474694
0.454443
0.486275
0.48681
0.463939
0.457197
0.418965
0.410228
0.369847
0.361125
0.32322
0.315231
0.281476
0.274555
0.246164
0.240998
0.222334
0.223239
0.245344
0.385627
0.217867
0.151735
0.141006
0.116444
0.111862
0.0962009
0.0930966
0.0810827
0.0786356
0.0687594
0.0667199
0.0583375
0.0565831
0.0492594
0.047687
0.0409416
0.0394069
0.0324348
0.0306687
0.0216389
0.0208227
0.0225478
0.0226167
0.0216938
0.0214034
0.0196908
0.0192927
0.017423
0.0170104
0.0151801
0.0147701
0.0129355
0.0124728
0.010204
0.00943396
0.00499285
0.00281946
-0.0111719
-0.0206827
-0.0859232
-0.233411
-0.212738
-0.382343
-0.442613
-0.833471
-0.799251
-0.0942726
-0.0161497
-0.00338783
-66.7209
50.4061
2.76471
1.85701
1.63203
1.20922
1.09711
0.878424
0.8125
0.654558
0.598113
0.431295
0.405933
0.427479
0.427852
0.409951
0.401573
0.371171
0.360273
0.328026
0.317131
0.286822
0.276839
0.249845
0.241203
0.218561
0.212158
0.197768
0.199306
0.222093
0.321089
0.197005
0.138157
0.124273
0.104023
0.0982365
0.0856092
0.0817188
0.0720797
0.0690178
0.0611041
0.0585533
0.0518382
0.0496441
0.0437757
0.0418086
0.0363984
0.0344776
0.0288783
0.0266831
0.0196236
0.0186027
0.0198078
0.0198809
0.0191617
0.0188011
0.0174398
0.0169433
0.0154499
0.0149344
0.0134688
0.0129557
0.0114805
0.0108991
0.00905492
0.00807889
0.00439693
0.00160686
-0.0103172
-0.0226986
-0.0807434
-0.196915
-0.198793
-0.333732
-0.407596
-0.703339
-0.661093
-0.120265
-0.023865
-0.00519847
-67.1074
53.0825
2.28277
1.63576
1.40731
1.06568
0.947482
0.769771
0.700198
0.572414
0.5133
0.382237
0.355547
0.369531
0.369625
0.355582
0.34683
0.322596
0.311171
0.285351
0.273915
0.249611
0.239128
0.21748
0.208411
0.190309
0.183638
0.172565
0.174524
0.195794
0.265474
0.173533
0.122779
0.107794
0.0910241
0.0848852
0.0746683
0.0705711
0.0628137
0.0595943
0.0532343
0.0505533
0.0451583
0.0428523
0.0381361
0.0360681
0.0317158
0.0296954
0.0251857
0.0228922
0.0173668
0.0162936
0.0171133
0.0171769
0.0166154
0.0162389
0.0151543
0.0146338
0.0134377
0.0128964
0.0117195
0.0111798
0.00998989
0.00937607
0.00787113
0.00683212
0.00376538
0.000759679
-0.00944414
-0.0228878
-0.0732383
-0.16499
-0.179525
-0.287565
-0.363703
-0.586725
-0.542878
-0.12848
-0.0284711
-0.00643321
-67.4937
55.7343
1.85133
1.39777
1.18711
0.913214
0.800238
0.656792
0.590225
0.487523
0.431364
0.329005
0.303533
0.312139
0.311963
0.301002
0.292707
0.27351
0.262646
0.2421
0.231213
0.211847
0.201864
0.184613
0.17598
0.161599
0.155294
0.146842
0.148969
0.167558
0.216325
0.148414
0.105972
0.0913876
0.0776
0.0716972
0.0634826
0.0595699
0.0533663
0.0502966
0.0452174
0.0426621
0.0383549
0.0361569
0.0323907
0.0304191
0.02694
0.0250129
0.0214046
0.0192306
0.0149319
0.0139089
0.014449
0.014498
0.0140617
0.0137051
0.0128463
0.0123513
0.0113994
0.0108839
0.00994477
0.00943003
0.00847625
0.0078887
0.00666875
0.0056665
0.00313145
0.000200475
-0.00844143
-0.0216007
-0.0640771
-0.136155
-0.156517
-0.242673
-0.313935
-0.480786
-0.439485
-0.124119
-0.0299583
-0.00699724
-67.8799
58.3629
1.46124
1.15006
0.96945
0.754308
0.654213
0.540738
0.481697
0.400771
0.351277
0.272696
0.250157
0.255097
0.254733
0.246316
0.239019
0.22409
0.214507
0.198464
0.18885
0.173708
0.16489
0.1514
0.14378
0.132567
0.127035
0.120695
0.122756
0.138116
0.171842
0.122277
0.08805
0.074949
0.0638607
0.0586017
0.052125
0.0486604
0.0437936
0.0410793
0.0370997
0.034841
0.0314672
0.0295243
0.0265736
0.0248304
0.0221021
0.0203978
0.0175661
0.015654
0.0123661
0.0114617
0.0118045
0.0118385
0.0115049
0.0111914
0.0105238
0.0100872
0.00934377
0.00888839
0.0081531
0.00769782
0.00694801
0.00642666
0.0054577
0.00456224
0.00251339
-0.000130245
-0.00725798
-0.0191408
-0.0537317
-0.109387
-0.130877
-0.198377
-0.260342
-0.383174
-0.347054
-0.11091
-0.0285974
-0.00687156
-68.2657
60.9712
1.10391
0.897126
0.753168
0.590801
0.508722
0.422507
0.374044
0.312762
0.272353
0.214147
0.195682
0.198268
0.197826
0.191584
0.185637
0.174457
0.166628
0.15457
0.146709
0.135316
0.128103
0.117953
0.111723
0.103308
0.0988096
0.0942124
0.096011
0.107939
0.130692
0.0955267
0.0692833
0.0584301
0.0498882
0.045555
0.0406471
0.0378071
0.034135
0.0319127
0.0289133
0.0270646
0.0245223
0.0229322
0.0207083
0.0192812
0.0172234
0.0158277
0.0136909
0.0121326
0.00970498
0.00896472
0.00917229
0.00919372
0.00894726
0.00869187
0.00819213
0.00783546
0.0072766
0.00690412
0.00635026
0.00597744
0.00541067
0.00498256
0.00424376
0.00350414
0.00191916
-0.000281562
-0.00588427
-0.0157725
-0.0425437
-0.0839864
-0.103397
-0.154303
-0.204315
-0.291918
-0.262625
-0.0915483
-0.0248131
-0.00610094
-68.6514
63.563
0.771321
0.641682
0.537623
0.424081
0.363397
0.302765
0.266904
0.223917
0.194141
0.154007
0.140365
0.14156
0.14115
0.136841
0.132464
0.124689
0.118917
0.110509
0.104709
0.0967566
0.0914343
0.0843496
0.0797536
0.0738917
0.0705878
0.0674741
0.068861
0.0773293
0.0918582
0.0684193
0.049901
0.0418188
0.0357475
0.0325315
0.0290864
0.0269872
0.0244184
0.0227773
0.0206809
0.0193159
0.0175394
0.0163654
0.0148111
0.0137574
0.0123183
0.0112874
0.00979265
0.00864591
0.0069764
0.00642981
0.00654759
0.00655972
0.00639006
0.00620218
0.00585475
0.00559179
0.00520201
0.00492714
0.00454021
0.00426483
0.00386781
0.00355091
0.00302987
0.00247989
0.00134959
-0.000296769
-0.00433911
-0.0117289
-0.0307687
-0.0594667
-0.0746561
-0.110264
-0.146785
-0.205339
-0.183866
-0.0680124
-0.0191078
-0.0047804
-69.0369
66.1427
0.456003
0.385214
0.322456
0.255247
0.21807
0.182033
0.16005
0.134544
0.116344
0.0928083
0.0844538
0.0849164
0.0846303
0.0821007
0.0794278
0.0748414
0.071312
0.0663429
0.0627945
0.0580924
0.0548359
0.0506463
0.0478349
0.0443735
0.0423584
0.0405557
0.0414279
0.0464772
0.0545434
0.0411153
0.0301013
0.0251272
0.0214927
0.0195171
0.017472
0.0161861
0.0146647
0.0136601
0.0124193
0.0115838
0.0105325
0.00981389
0.00889394
0.0082489
0.0073968
0.0067657
0.00588048
0.0051802
0.00420293
0.00386836
0.00392715
0.00393302
0.00383361
0.0037189
0.00351401
0.00335322
0.00312285
0.00295466
0.00272572
0.00255712
0.00232176
0.00212746
0.00181715
0.00147887
0.000800677
-0.000216115
-0.00266002
-0.00721926
-0.0186073
-0.0354873
-0.0450988
-0.0661882
-0.0883727
-0.121961
-0.108883
-0.0417986
-0.0120194
-0.00304212
-69.4222
68.7151
0.150878
0.128425
0.107468
0.0852123
0.0726974
0.0607384
0.0533358
0.0448793
0.0387594
0.031002
0.0281902
0.0283026
0.0282003
0.027366
0.0264677
0.0249515
0.0237646
0.0221203
0.0209267
0.0193703
0.0182747
0.016888
0.0159423
0.0147974
0.0141206
0.0135304
0.0138277
0.0155045
0.0180883
0.0137147
0.0100601
0.00838196
0.00717148
0.00650553
0.00582727
0.0053944
0.00489046
0.00455239
0.00414149
0.00386038
0.00351224
0.00327045
0.00296581
0.00274876
0.00246653
0.00225415
0.00196093
0.00172558
0.00140376
0.00129119
0.00130884
0.00131055
0.00127779
0.00123924
0.00117152
0.00111744
0.00104121
0.00098463
0.000908825
0.000852088
0.000774087
0.000708648
0.000605569
0.000491462
0.000265324
-7.83637e-05
-0.000896305
-0.00243642
-0.00622621
-0.0117986
-0.0150823
-0.0220687
-0.0295044
-0.0404492
-0.03606
-0.0140925
-0.00409899
-0.00104349
-69.8074
68.7222
0.136748
0.1038
0.0777638
0.0524448
0.0390551
0.0275036
0.0210896
0.0150024
0.0125849
0.0119228
0.0115728
0.0110196
0.0105815
0.00996772
0.00952184
0.00893961
0.0085217
0.00797859
0.00758771
0.00707823
0.00671291
0.00623986
0.00590878
0.00549578
0.00524305
0.00500681
0.00508545
0.00563414
0.00650352
0.00486773
0.0034892
0.00284975
0.00237999
0.00212051
0.0018563
0.00168913
0.00149694
0.00136983
0.00121793
0.00111568
0.000991376
0.000906573
0.000801864
0.000728925
0.000636501
0.000569373
0.00048016
0.000411925
0.000321336
0.000282556
0.000267863
0.000251611
0.000217559
0.000184623
0.000130169
8.1493e-05
4.16791e-06
-6.60716e-05
-0.000179851
-0.000287674
-0.000468735
-0.000650741
-0.00097177
-0.00132583
-0.00200088
-0.00287818
-0.00478056
-0.00793189
-0.0152947
-0.0252147
-0.0278838
-0.0350219
-0.0427875
-0.0539031
-0.0469673
-0.0182858
-0.00531254
-0.00135197
-69.1029
66.1646
0.4137
0.311124
0.233263
0.156857
0.117092
0.0823053
0.0632559
0.0448605
0.0376843
0.0357561
0.0347265
0.0330542
0.0317516
0.0298964
0.028571
0.0268123
0.0255701
0.0239297
0.0227679
0.0212289
0.020143
0.0187139
0.0177296
0.0164809
0.0157285
0.0150078
0.0152375
0.0168896
0.0196108
0.0145929
0.010438
0.00854248
0.00713156
0.00636172
0.00556502
0.0050684
0.0044882
0.00411047
0.00365179
0.00334792
0.00297255
0.00272052
0.00240432
0.00218755
0.00190849
0.001709
0.00143964
0.00123667
0.000961936
0.000846704
0.00080365
0.000755545
0.000652631
0.000554728
0.000390275
0.000245624
1.22196e-05
-0.000196474
-0.000539792
-0.000860094
-0.00140617
-0.00194666
-0.00291399
-0.00396465
-0.00599454
-0.00859354
-0.0142917
-0.0236272
-0.0457818
-0.0759343
-0.0834726
-0.105041
-0.128229
-0.162431
-0.141772
-0.054229
-0.0155771
-0.00394134
-67.3087
63.6005
0.701123
0.517459
0.388704
0.259804
0.194929
0.136477
0.105396
0.0742698
0.0625739
0.0595533
0.057906
0.0550741
0.0529437
0.049804
0.0476374
0.0446643
0.0426344
0.0398616
0.0379631
0.0353615
0.0335869
0.0311702
0.029561
0.0274462
0.0262127
0.0249709
0.0253327
0.0281023
0.0330276
0.0242835
0.0172965
0.0142158
0.0118575
0.010604
0.00926173
0.00845101
0.00747137
0.00685435
0.00607947
0.00558303
0.00494878
0.00453702
0.0040028
0.00364867
0.00317729
0.00285142
0.00239646
0.00206428
0.00159615
0.00140796
0.00133964
0.00126167
0.0010875
0.000927493
0.000649588
0.000413304
1.92808e-05
-0.000321493
-0.000900656
-0.00142349
-0.00234383
-0.00322551
-0.00485288
-0.00656431
-0.00996543
-0.0141849
-0.0236574
-0.0388098
-0.075949
-0.127558
-0.1385
-0.174995
-0.213229
-0.273154
-0.239252
-0.0882167
-0.024761
-0.0061932
-65.5143
61.026
1.00635
0.721597
0.54415
0.36019
0.27251
0.189555
0.147538
0.102902
0.0871165
0.0832957
0.0811328
0.0770659
0.0741763
0.0696726
0.0667362
0.0624785
0.0597285
0.0557586
0.0531865
0.049461
0.0470564
0.0435941
0.0414127
0.0383763
0.0366971
0.0348697
0.0353316
0.0392287
0.0469912
0.0339039
0.0239987
0.0198602
0.0165392
0.0148498
0.0129372
0.0118404
0.01044
0.00960453
0.00849599
0.00782363
0.00691611
0.00635842
0.00559407
0.00511447
0.00444027
0.003999
0.00334837
0.00289733
0.00221917
0.00196443
0.00187601
0.00177164
0.0015218
0.00130497
0.000907231
0.000587289
2.42084e-05
-0.00043698
-0.00126378
-0.00197098
-0.00328304
-0.00447454
-0.0067884
-0.00909638
-0.0139036
-0.0195662
-0.0327959
-0.0531129
-0.105537
-0.180809
-0.192506
-0.244879
-0.297362
-0.38763
-0.341417
-0.118701
-0.0321495
-0.00790355
-63.7197
58.4372
1.33724
0.921444
0.699857
0.456725
0.349902
0.240995
0.189784
0.13038
0.11118
0.106972
0.104436
0.0990106
0.0954734
0.0894785
0.0858877
0.0802325
0.0768713
0.0715997
0.068456
0.0635077
0.0605682
0.0559668
0.0532985
0.049252
0.0471876
0.044677
0.045193
0.0502005
0.0617887
0.0433969
0.0304702
0.0254719
0.0211556
0.0191046
0.01658
0.0152419
0.0133861
0.0123656
0.0108951
0.0100736
0.00886944
0.00818808
0.00717394
0.00658805
0.00569392
0.00515495
0.00429229
0.00373945
0.00282525
0.00251423
0.00241301
0.00228742
0.00195477
0.00168968
0.00116176
0.000770995
2.50551e-05
-0.000537849
-0.00163168
-0.00249428
-0.00422707
-0.00567867
-0.00872417
-0.0115285
-0.0178076
-0.0246448
-0.0416509
-0.0661317
-0.134212
-0.236603
-0.244884
-0.314759
-0.379984
-0.507566
-0.450642
-0.143739
-0.0370457
-0.00890123
-61.9249
55.8309
1.70237
1.11352
0.856426
0.547807
0.427377
0.290127
0.232359
0.15625
0.134645
0.130581
0.127854
0.12088
0.116869
0.109188
0.105122
0.0978947
0.0940906
0.0873556
0.0837977
0.077474
0.0741465
0.0682622
0.0652394
0.0600485
0.0576958
0.0543632
0.0548748
0.0609091
0.0777854
0.0526714
0.0366246
0.0310564
0.0256815
0.0233782
0.0201753
0.018664
0.0162987
0.0151447
0.0132682
0.0123389
0.0108018
0.010031
0.00873667
0.00807396
0.00693336
0.00632384
0.00522381
0.00459602
0.00340719
0.00305564
0.00295098
0.00281148
0.00238504
0.00208489
0.00141079
0.0009689
1.85736e-05
-0.000617486
-0.00200885
-0.00298279
-0.00518236
-0.00681906
-0.0106696
-0.0138216
-0.0216892
-0.0293167
-0.0502069
-0.0774065
-0.161514
-0.296162
-0.294799
-0.384825
-0.460111
-0.634881
-0.569867
-0.160769
-0.0387999
-0.00906331
-60.1298
53.2043
2.11119
1.29233
1.01506
0.631362
0.505525
0.336079
0.275667
0.17994
0.157407
0.154137
0.151443
0.14263
0.138411
0.128754
0.124482
0.11542
0.111427
0.102985
0.09925
0.0913204
0.0878271
0.0804431
0.0772671