/*--------------------------------*- C++ -*----------------------------------*\
| =========                 |                                                 |
| \\      /  F ield         | OpenFOAM: The Open Source CFD Toolbox           |
|  \\    /   O peration     | Version:  5.x                                   |
|   \\  /    A nd           | Web:      www.OpenFOAM.org                      |
|    \\/     M anipulation  |                                                 |
\*---------------------------------------------------------------------------*/
FoamFile
{
    version     2.0;
    format      ascii;
    class       volScalarField;
    location    "5.9";
    object      gradTy;
}
// * * * * * * * * * * * * * * * * * * * * * * * * * * * * * * * * * * * * * //

dimensions      [0 -1 0 1 0 0 0];

internalField   nonuniform List<scalar> 
3200
(
18.2498
8.63629
11.7305
8.31288
9.75032
8.0403
8.7945
7.79325
8.24215
7.60133
7.87672
7.51785
7.72831
7.31799
7.53023
7.13997
7.33914
6.98058
7.16235
6.83844
7.00176
6.71281
6.8579
6.60275
6.73077
6.5066
6.62087
6.42121
6.53621
6.36705
6.23187
6.31904
6.20053
6.2582
6.16602
6.21068
6.13667
6.17259
6.11244
6.14166
6.09259
6.11639
6.07643
6.09574
6.06344
6.07889
6.05332
6.06522
6.0461
6.05428
6.04321
6.04934
6.03778
6.04316
6.03424
6.03786
6.03295
6.03398
6.03466
6.03198
6.04074
6.0324
6.05376
6.03593
6.07872
6.04286
6.12659
6.04843
6.22322
6.00084
6.29319
7.10877
6.42161
7.94741
6.78052
9.89573
9.12522
9.00739
8.98306
8.97782
17.0102
9.75226
11.3328
8.77688
9.54754
8.27048
8.67426
7.92578
8.16498
7.68552
7.83256
7.56469
7.67685
7.36946
7.48158
7.18923
7.29454
7.02597
7.12211
6.8795
6.9659
6.74949
6.82625
6.63517
6.70293
6.53507
6.59572
6.4464
6.50875
6.37084
6.25676
6.30466
6.21615
6.24689
6.1779
6.20158
6.14617
6.1652
6.12016
6.13562
6.09888
6.11149
6.08156
6.09178
6.06759
6.07577
6.05662
6.06291
6.04859
6.05294
6.04466
6.04793
6.03926
6.04209
6.0354
6.03731
6.03363
6.03416
6.03466
6.03321
6.03976
6.03529
6.05125
6.04171
6.07367
6.05437
6.11679
6.074
6.20342
6.07624
6.35166
6.99349
6.62341
7.76477
7.15786
9.50245
9.09906
9.0036
8.98225
8.97756
16.0608
10.5147
11.1006
9.10777
9.42664
8.4334
8.60008
8.01877
8.11652
7.74462
7.80496
7.59629
7.64213
7.40411
7.44907
7.22255
7.26485
7.05673
7.09538
6.90737
6.94212
6.7744
6.80528
6.65719
6.68448
6.55436
6.57894
6.46309
6.48926
6.37365
6.27514
6.29571
6.22697
6.23955
6.18605
6.19562
6.15267
6.16034
6.12543
6.13166
6.10318
6.10826
6.08506
6.08918
6.07043
6.07373
6.05888
6.06141
6.05032
6.05209
6.04565
6.04697
6.04026
6.04139
6.03621
6.03697
6.03412
6.03433
6.03472
6.03412
6.0392
6.03737
6.04977
6.04583
6.07067
6.06261
6.11118
6.09268
6.19389
6.13552
6.39548
6.91869
6.76476
7.65208
7.41717
9.21914
9.06063
8.99689
8.98081
8.97716
15.3333
11.0318
10.9715
9.34621
9.35822
8.54992
8.55581
8.08459
8.08684
7.78642
7.78812
7.61771
7.61878
7.42744
7.42741
7.24511
7.24518
7.07761
7.07772
6.92632
6.92643
6.79136
6.79147
6.67219
6.67233
6.56747
6.56778
6.4741
6.47544
6.37577
6.28876
6.29033
6.23454
6.23485
6.19167
6.19177
6.15714
6.15719
6.12905
6.12909
6.10614
6.10617
6.08748
6.0875
6.07239
6.07241
6.06045
6.06046
6.05153
6.05156
6.04632
6.04634
6.04096
6.04095
6.03679
6.03678
6.0345
6.03448
6.03482
6.03479
6.03893
6.03887
6.04893
6.04879
6.06898
6.06858
6.10826
6.10657
6.19074
6.18207
6.42876
6.87098
6.86447
7.58427
7.59501
9.01424
9.01841
8.98827
8.97888
8.97662
14.7778
11.3792
10.905
9.51914
9.32261
8.63387
8.53063
8.13148
8.06927
7.81614
7.77817
7.63228
7.60311
7.44312
7.41305
7.26038
7.23221
7.09179
7.06612
6.93921
6.91615
6.80292
6.78244
6.68242
6.66437
6.57637
6.56038
6.48131
6.46567
6.37738
6.29883
6.28725
6.23987
6.23189
6.19557
6.1893
6.16022
6.15517
6.13155
6.12743
6.10817
6.10482
6.08914
6.08642
6.07375
6.07157
6.06154
6.05986
6.05239
6.05125
6.04678
6.04592
6.04143
6.04066
6.03719
6.03668
6.03478
6.03463
6.03494
6.0353
6.03882
6.03996
6.0485
6.05095
6.06812
6.07295
6.10699
6.11703
6.1913
6.21841
6.45423
6.84122
6.93511
7.54483
7.7165
8.86595
8.97757
8.97882
8.97666
8.97598
14.3583
11.6097
10.875
9.64451
9.30669
8.69441
8.51729
8.16488
8.05934
7.83725
7.77253
7.64217
7.59268
7.4536
7.40359
7.27066
7.22374
7.10138
7.05856
6.94795
6.90948
6.81076
6.77659
6.68936
6.65921
6.58239
6.55549
6.48598
6.4588
6.37861
6.30623
6.28559
6.24362
6.23006
6.19826
6.18775
6.16234
6.15388
6.13326
6.12638
6.10957
6.10397
6.09028
6.08573
6.07468
6.07104
6.0623
6.0595
6.05299
6.05106
6.04709
6.04565
6.04176
6.04049
6.03748
6.03663
6.035
6.03475
6.03506
6.03568
6.03881
6.04077
6.04832
6.05251
6.06775
6.07615
6.10669
6.12492
6.19375
6.2464
6.47365
6.82318
6.98513
7.52292
7.79888
8.75918
8.94114
8.96952
8.97439
8.97531
14.0487
11.7596
10.8648
9.73416
9.30174
8.73753
8.51095
8.18841
8.05407
7.85207
7.76951
7.64882
7.58583
7.46052
7.39745
7.27751
7.21828
7.10779
7.05372
6.95381
6.90521
6.81603
6.77285
6.69403
6.65592
6.58641
6.55232
6.48896
6.45405
6.37952
6.31155
6.28479
6.24623
6.22897
6.2001
6.18679
6.16379
6.15309
6.13443
6.12573
6.11052
6.10344
6.09106
6.08531
6.07531
6.07072
6.06282
6.05928
6.05341
6.05096
6.04731
6.04547
6.04198
6.04039
6.03768
6.03661
6.03516
6.03486
6.03516
6.03597
6.03884
6.04134
6.04827
6.05363
6.06765
6.07847
6.10687
6.13078
6.19685
6.2674
6.48818
6.81264
7.02011
7.51147
7.85389
8.68353
8.91085
8.96115
8.97227
8.97469
13.8307
11.8538
10.8641
9.79589
9.30207
8.76715
8.50846
8.20441
8.05151
7.86211
7.76802
7.65317
7.58148
7.46495
7.39358
7.28193
7.21487
7.11194
7.05071
6.95761
6.90257
6.81945
6.77055
6.69706
6.65388
6.58901
6.55031
6.4908
6.45088
6.38017
6.31523
6.28446
6.24799
6.22833
6.20132
6.18622
6.16474
6.15261
6.1352
6.12534
6.11115
6.10312
6.09157
6.08506
6.07573
6.07053
6.06316
6.05916
6.05369
6.05091
6.04745
6.04536
6.04213
6.04033
6.03782
6.03661
6.03527
6.03494
6.03524
6.03617
6.03888
6.04174
6.04829
6.0544
6.06768
6.08008
6.10724
6.13495
6.19977
6.28239
6.49856
6.80679
7.04374
7.50599
7.88942
8.63199
8.88764
8.95435
8.97051
8.97416
13.6917
11.9085
10.8665
9.83463
9.30404
8.78572
8.50778
8.21437
8.0504
7.86833
7.76736
7.65579
7.57891
7.46757
7.39132
7.28456
7.21289
7.11442
7.04897
6.95988
6.90105
6.8215
6.76923
6.69888
6.65271
6.59057
6.54913
6.49185
6.44895
6.38058
6.31754
6.28436
6.24908
6.22799
6.20207
6.1859
6.16532
6.15234
6.13566
6.12512
6.11153
6.10294
6.09188
6.08492
6.07599
6.07042
6.06337
6.05909
6.05386
6.05089
6.04753
6.0453
6.04222
6.04029
6.0379
6.03662
6.03534
6.03499
6.0353
6.03629
6.03893
6.042
6.04832
6.05489
6.06774
6.0811
6.10758
6.13764
6.20198
6.29205
6.50526
6.80378
7.05836
7.50365
7.91057
8.59991
8.872
8.94957
8.96924
8.97378
13.6241
11.9335
10.8685
9.85333
9.30552
8.79468
8.50771
8.21915
8.05002
7.87131
7.76713
7.65703
7.57773
7.46879
7.39028
7.28579
7.21199
7.11558
7.04818
6.96095
6.90036
6.82247
6.76862
6.69974
6.65218
6.5913
6.54859
6.49233
6.44803
6.38079
6.31865
6.28434
6.2496
6.22785
6.20242
6.18576
6.16559
6.15223
6.13588
6.12502
6.11171
6.10286
6.09203
6.08486
6.07611
6.07037
6.06347
6.05906
6.05394
6.05088
6.04757
6.04527
6.04226
6.04028
6.03795
6.03662
6.03538
6.03502
6.03533
6.03636
6.03895
6.04212
6.04834
6.05512
6.06779
6.08159
6.10778
6.13897
6.20316
6.29677
6.50855
6.80253
7.06535
7.50286
7.92043
8.58453
8.86413
8.94711
8.96858
8.97358
-13.7583
-11.9529
-10.7239
-9.38469
-8.57426
-7.68239
-7.12043
-6.46854
-6.0535
-5.57142
-5.27798
-4.95237
-4.71476
-4.38627
-4.15061
-3.83894
-3.62113
-3.33997
-3.14575
-2.89766
-2.72715
-2.51034
-2.36159
-2.17267
-2.04271
-1.87682
-1.76031
-1.60639
-1.48403
-1.29648
-1.12088
-1.02233
-0.92007
-0.854787
-0.77675
-0.724675
-0.660253
-0.616773
-0.562478
-0.52571
-0.479674
-0.44849
-0.409451
-0.383068
-0.350152
-0.32808
-0.300836
-0.282981
-0.261629
-0.248452
-0.233596
-0.222655
-0.207416
-0.196437
-0.181859
-0.171646
-0.158431
-0.149293
-0.137611
-0.129597
-0.119439
-0.112551
-0.103959
-0.0983704
-0.091846
-0.0885189
-0.0865162
-0.0899916
-0.104298
-0.138271
-0.228468
-0.374705
-0.529379
-0.815996
-1.11877
-1.62806
-1.8435
-1.90752
-1.92409
-1.92795
-13.8305
-11.9298
-10.7283
-9.36354
-8.57753
-7.6692
-7.12403
-6.45907
-6.05619
-5.56388
-5.27928
-4.94885
-4.7184
-4.38256
-4.15366
-3.83519
-3.62367
-3.3365
-3.14791
-2.89456
-2.729
-2.50763
-2.3632
-2.17032
-2.04415
-1.87485
-1.76181
-1.60513
-1.48665
-1.29601
-1.1178
-1.02248
-0.918593
-0.8553
-0.775714
-0.725171
-0.659418
-0.617207
-0.561779
-0.526083
-0.479082
-0.448806
-0.408946
-0.383331
-0.34972
-0.328289
-0.300462
-0.283122
-0.261303
-0.248521
-0.23344
-0.222828
-0.207247
-0.196582
-0.181685
-0.171768
-0.158269
-0.149396
-0.137466
-0.129684
-0.119309
-0.11262
-0.10384
-0.0984087
-0.0917189
-0.0884667
-0.0862978
-0.089559
-0.103512
-0.136023
-0.226227
-0.374367
-0.524101
-0.81535
-1.11051
-1.63981
-1.84956
-1.90942
-1.9246
-1.9281
-13.9788
-11.8788
-10.7392
-9.31925
-8.58569
-7.64149
-7.13243
-6.43912
-6.06245
-5.54803
-5.28241
-4.94134
-4.72627
-4.37458
-4.16029
-3.82716
-3.62924
-3.32909
-3.15266
-2.88795
-2.73309
-2.50184
-2.36676
-2.1653
-2.04732
-1.87063
-1.76506
-1.60235
-1.49215
-1.29504
-1.11141
-1.02298
-0.915496
-0.856468
-0.773519
-0.726278
-0.657644
-0.618173
-0.560293
-0.526911
-0.477823
-0.449507
-0.407874
-0.383916
-0.348803
-0.328755
-0.29967
-0.283445
-0.260618
-0.248683
-0.233108
-0.223201
-0.206882
-0.196898
-0.181314
-0.172033
-0.157924
-0.149622
-0.137155
-0.129875
-0.119033
-0.112774
-0.103588
-0.0984983
-0.0914553
-0.0883721
-0.0858631
-0.0886996
-0.101985
-0.131467
-0.221669
-0.373967
-0.513163
-0.814547
-1.09289
-1.66435
-1.86161
-1.9131
-1.92558
-1.92839
-14.211
-11.7894
-10.7614
-9.24751
-8.60228
-7.59637
-7.1482
-6.40651
-6.07424
-5.52224
-5.28856
-4.9288
-4.7396
-4.36111
-4.17168
-3.81374
-3.63891
-3.31673
-3.16095
-2.87696
-2.74025
-2.4922
-2.37297
-2.15695
-2.05284
-1.86357
-1.7706
-1.59747
-1.50113
-1.29353
-1.10121
-1.02425
-0.910464
-0.858595
-0.769898
-0.728244
-0.654706
-0.619878
-0.55783
-0.528369
-0.475736
-0.450744
-0.406097
-0.384949
-0.347285
-0.329584
-0.298366
-0.284033
-0.259499
-0.248992
-0.23255
-0.223833
-0.206266
-0.197439
-0.180692
-0.172494
-0.157347
-0.150016
-0.136638
-0.13021
-0.118574
-0.113046
-0.103173
-0.0986669
-0.0910342
-0.0882554
-0.0852154
-0.087423
-0.0998103
-0.124483
-0.214628
-0.374091
-0.495738
-0.814667
-1.06354
-1.70385
-1.87949
-1.91834
-1.92694
-1.9288
-14.5402
-11.6442
-10.803
-9.14103
-8.6333
-7.52896
-7.17572
-6.35753
-6.09482
-5.48372
-5.29976
-4.90943
-4.7605
-4.34008
-4.18982
-3.79299
-3.65447
-3.29773
-3.17438
-2.86007
-2.75186
-2.47742
-2.38306
-2.14412
-2.06177
-1.85267
-1.77935
-1.58952
-1.51456
-1.29142
-1.0864
-1.02699
-0.902957
-0.862198
-0.764399
-0.731488
-0.650222
-0.622675
-0.554065
-0.530756
-0.472545
-0.452769
-0.403382
-0.386645
-0.34497
-0.330956
-0.296388
-0.285031
-0.25782
-0.249541
-0.231685
-0.22482
-0.205302
-0.198299
-0.17973
-0.173233
-0.156459
-0.150654
-0.135845
-0.130755
-0.117872
-0.113492
-0.102545
-0.0989617
-0.0904199
-0.08815
-0.0843587
-0.0857401
-0.097145
-0.114882
-0.204814
-0.375728
-0.470422
-0.817588
-1.01853
-1.76194
-1.90284
-1.9248
-1.92857
-1.92928
-14.9851
-11.4169
-10.8775
-8.98838
-8.68819
-7.4315
-7.22184
-6.28634
-6.12934
-5.42812
-5.31922
-4.88042
-4.79228
-4.30825
-4.21782
-3.76192
-3.67877
-3.26939
-3.19545
-2.83495
-2.77012
-2.45544
-2.39893
-2.12504
-2.07578
-1.83633
-1.79277
-1.57698
-1.53393
-1.28859
-1.06577
-1.03231
-0.892124
-0.868086
-0.756307
-0.736669
-0.643591
-0.627116
-0.548491
-0.534542
-0.467819
-0.45598
-0.399364
-0.389341
-0.341551
-0.333152
-0.293483
-0.286664
-0.255386
-0.250474
-0.230382
-0.226315
-0.203838
-0.199623
-0.178286
-0.174385
-0.155133
-0.151652
-0.134664
-0.131613
-0.116832
-0.114203
-0.101623
-0.0994557
-0.0895556
-0.0881064
-0.0832958
-0.0836571
-0.0942271
-0.102393
-0.191762
-0.380414
-0.435007
-0.826359
-0.951818
-1.84413
-1.93095
-1.93198
-1.93032
-1.92979
-15.5728
-11.0684
-11.0059
-8.77218
-8.78135
-7.29217
-7.297
-6.18401
-6.18563
-5.34884
-5.35189
-4.83739
-4.83989
-4.26068
-4.26045
-3.71594
-3.71612
-3.22764
-3.22798
-2.79801
-2.79839
-2.42313
-2.42351
-2.09697
-2.0974
-1.81217
-1.81308
-1.55754
-1.56139
-1.28486
-1.03757
-1.04191
-0.876647
-0.877487
-0.744532
-0.744791
-0.633899
-0.634046
-0.540333
-0.54044
-0.4609
-0.460985
-0.393483
-0.393549
-0.336559
-0.336601
-0.289266
-0.289278
-0.251898
-0.252016
-0.22844
-0.228547
-0.201646
-0.201632
-0.176146
-0.176152
-0.153178
-0.153193
-0.132926
-0.13294
-0.115306
-0.115312
-0.100285
-0.10026
-0.0883542
-0.0881982
-0.082027
-0.0811665
-0.0914062
-0.0866564
-0.174739
-0.390463
-0.386122
-0.845766
-0.854436
-1.95854
-1.96249
-1.93927
-1.93202
-1.93028
-16.3407
-10.5422
-11.2212
-8.46626
-8.93445
-7.09308
-7.41688
-6.0371
-6.27546
-5.23597
-5.40526
-4.77368
-4.91078
-4.18996
-4.32485
-3.64818
-3.77302
-3.16634
-3.27773
-2.74386
-2.84168
-2.37581
-2.46117
-2.05583
-2.13045
-1.77656
-1.84365
-1.52772
-1.60007
-1.27997
-0.999307
-1.0583
-0.854529
-0.892242
-0.727431
-0.757361
-0.619769
-0.644733
-0.528424
-0.549528
-0.450798
-0.468695
-0.384902
-0.400041
-0.329286
-0.341947
-0.283157
-0.293389
-0.246912
-0.254507
-0.225552
-0.231861
-0.198379
-0.204663
-0.172987
-0.17884
-0.150305
-0.155545
-0.130379
-0.134975
-0.113076
-0.117024
-0.0983482
-0.101541
-0.0866837
-0.0885314
-0.0805466
-0.0782326
-0.0891857
-0.0672074
-0.152611
-0.409315
-0.318678
-0.883211
-0.713236
-2.11696
-1.99512
-1.94592
-1.93351
-1.93069
-17.3405
-9.75696
-11.5739
-8.03143
-9.17993
-6.8074
-7.60491
-5.82548
-6.41642
-5.07475
-5.49067
-4.67923
-5.01598
-4.08502
-4.42172
-3.54837
-3.85918
-3.07632
-3.3533
-2.66444
-2.90753
-2.30644
-2.51846
-1.9955
-2.18064
-1.72412
-1.88954
-1.48237
-1.65445
-1.2735
-0.947462
-1.0852
-0.822755
-0.915102
-0.702544
-0.776635
-0.599138
-0.661074
-0.511021
-0.56341
-0.436033
-0.480475
-0.372366
-0.409971
-0.318679
-0.350152
-0.274289
-0.299771
-0.239765
-0.258462
-0.221254
-0.236769
-0.193524
-0.209213
-0.168329
-0.182905
-0.146082
-0.159115
-0.126642
-0.138071
-0.109813
-0.119642
-0.0955377
-0.103544
-0.084346
-0.0892589
-0.0788401
-0.074769
-0.0882831
-0.0434638
-0.123632
-0.44206
-0.225028
-0.950037
-0.509088
-2.3364
-2.02484
-1.9511
-1.93461
-1.931
-18.644
-8.596
-12.1412
-7.40929
-9.56659
-6.39524
-7.89635
-5.51937
-6.63501
-4.84356
-5.6255
-4.53918
-5.17223
-3.92969
-4.56732
-3.4015
-3.98942
-2.94422
-3.46781
-2.54804
-3.00744
-2.20483
-2.60543
-1.90711
-2.25677
-1.64705
-1.95859
-1.4141
-1.7312
-1.26505
-0.877269
-1.12831
-0.776978
-0.950346
-0.666366
-0.806147
-0.569093
-0.686057
-0.48567
-0.584634
-0.414535
-0.498496
-0.35413
-0.425185
-0.303281
-0.36277
-0.261477
-0.309681
-0.229573
-0.264755
-0.214945
-0.244124
-0.186402
-0.216116
-0.161537
-0.18911
-0.139943
-0.164584
-0.121222
-0.142827
-0.105094
-0.123684
-0.091505
-0.106698
-0.0811012
-0.090657
-0.0769322
-0.0706543
-0.0897601
-0.0147671
-0.0851577
-0.496244
-0.0937157
-1.0635
-0.214209
-2.64136
-2.04502
-1.95395
-1.93517
-1.93112
18.644
8.596
12.1412
7.40929
9.56659
6.39524
7.89635
5.51937
6.63501
4.84355
5.6255
4.53918
5.17223
3.92969
4.56732
3.4015
3.98941
2.94422
3.46781
2.54804
3.00744
2.20483
2.60543
1.90711
2.25677
1.64705
1.95859
1.4141
1.7312
1.26505
0.877268
1.12831
0.776976
0.950346
0.666365
0.806147
0.569092
0.686056
0.485669
0.584634
0.414534
0.498496
0.354129
0.425185
0.30328
0.36277
0.261477
0.309681
0.229572
0.264755
0.214945
0.244124
0.186401
0.216116
0.161537
0.18911
0.139942
0.164584
0.121221
0.142827
0.105094
0.123684
0.0915047
0.106698
0.081101
0.090657
0.0769318
0.0706545
0.0897594
0.0147682
0.085157
0.496236
0.0937149
1.06348
0.214206
2.64132
2.04499
1.95393
1.93514
1.9311
17.3405
9.75696
11.5739
8.03144
9.17994
6.8074
7.60492
5.82548
6.41642
5.07475
5.49067
4.67923
5.01599
4.08502
4.42173
3.54837
3.85919
3.07633
3.3533
2.66445
2.90753
2.30644
2.51846
1.9955
2.18064
1.72412
1.88954
1.48238
1.65446
1.2735
0.947463
1.0852
0.822756
0.915103
0.702545
0.776636
0.59914
0.661075
0.511022
0.563412
0.436035
0.480476
0.372367
0.409972
0.31868
0.350154
0.27429
0.299772
0.239766
0.258463
0.221255
0.23677
0.193525
0.209214
0.16833
0.182906
0.146083
0.159116
0.126643
0.138072
0.109814
0.119643
0.0955383
0.103545
0.0843466
0.0892596
0.0788406
0.0747697
0.0882832
0.0434649
0.123631
0.442054
0.225025
0.950022
0.50908
2.33636
2.02481
1.95107
1.93458
1.93097
16.3407
10.5422
11.2212
8.46627
8.93446
7.09309
7.41689
6.03711
6.27547
5.23597
5.40526
4.77369
4.91078
4.18997
4.32486
3.64819
3.77303
3.16635
3.27774
2.74386
2.84169
2.37582
2.46118
2.05584
2.13045
1.77656
1.84365
1.52772
1.60008
1.27997
0.999312
1.0583
0.854533
0.892246
0.727435
0.757365
0.619772
0.644737
0.528427
0.549531
0.450801
0.468698
0.384905
0.400043
0.329289
0.341949
0.28316
0.293392
0.246914
0.254509
0.225554
0.231864
0.198381
0.204665
0.172989
0.178842
0.150307
0.155547
0.13038
0.134977
0.113078
0.117026
0.0983496
0.101542
0.086685
0.0885328
0.0805477
0.0782338
0.0891864
0.0672084
0.15261
0.409309
0.318674
0.883198
0.713225
2.11693
1.99509
1.94589
1.93348
1.93066
15.5728
11.0684
11.0059
8.77219
8.78136
7.29218
7.29701
6.18402
6.18564
5.34885
5.3519
4.8374
4.8399
4.26069
4.26046
3.71595
3.71612
3.22765
3.22799
2.79802
2.7984
2.42314
2.42352
2.09698
2.09741
1.81217
1.81308
1.55754
1.5614
1.28487
1.03758
1.04192
0.876652
0.877492
0.744536
0.744795
0.633903
0.63405
0.540336
0.540444
0.460903
0.460988
0.393486
0.393552
0.336561
0.336604
0.289269
0.289281
0.251901
0.252018
0.228442
0.22855
0.201648
0.201635
0.176148
0.176154
0.15318
0.153195
0.132928
0.132942
0.115308
0.115314
0.100287
0.100262
0.0883558
0.0881997
0.0820283
0.0811678
0.0914071
0.0866573
0.174738
0.390458
0.386117
0.845753
0.854423
1.95851
1.96246
1.93924
1.932
1.93025
14.9851
11.4169
10.8775
8.98839
8.6882
7.43151
7.22185
6.28635
6.12935
5.42813
5.31923
4.88043
4.79229
4.30826
4.21783
3.76193
3.67877
3.2694
3.19546
2.83496
2.77013
2.45545
2.39894
2.12505
2.07579
1.83634
1.79277
1.57699
1.53394
1.2886
1.06578
1.03232
0.892129
0.868091
0.756312
0.736674
0.643595
0.627121
0.548495
0.534545
0.467823
0.455984
0.399367
0.389344
0.341554
0.333155
0.293486
0.286667
0.255388
0.250477
0.230385
0.226317
0.203841
0.199625
0.178288
0.174387
0.155136
0.151655
0.134666
0.131615
0.116834
0.114205
0.101624
0.0994574
0.0895572
0.088108
0.0832973
0.0836584
0.0942281
0.102393
0.191761
0.380409
0.435002
0.826347
0.951804
1.84411
1.93092
1.93195
1.93029
1.92976
14.5402
11.6442
10.803
9.14104
8.63331
7.52897
7.17573
6.35754
6.09483
5.48373
5.29977
4.90944
4.76051
4.34009
4.18983
3.793
3.65448
3.29773
3.17439
2.86008
2.75187
2.47743
2.38307
2.14413
2.06178
1.85267
1.77936
1.58953
1.51457
1.29143
1.08641
1.02699
0.902963
0.862203
0.764404
0.731493
0.650226
0.622679
0.554069
0.53076
0.472549
0.452772
0.403386
0.386649
0.344974
0.330959
0.296391
0.285034
0.257823
0.249544
0.231688
0.224823
0.205304
0.198301
0.179732
0.173235
0.156461
0.150656
0.135847
0.130757
0.117874
0.113494
0.102547
0.0989634
0.0904215
0.0881517
0.0843601
0.0857415
0.0971459
0.114882
0.204813
0.375724
0.470416
0.817576
1.01851
1.76192
1.90281
1.92477
1.92854
1.92925
14.211
11.7894
10.7614
9.24752
8.60229
7.59638
7.14821
6.40652
6.07425
5.52225
5.28857
4.92881
4.73961
4.36112
4.17169
3.81375
3.63892
3.31674
3.16096
2.87697
2.74026
2.49221
2.37298
2.15696
2.05285
1.86358
1.77061
1.59747
1.50113
1.29354
1.10121
1.02425
0.910469
0.8586
0.769903
0.728249
0.65471
0.619883
0.557834
0.528373
0.475739
0.450747
0.406101
0.384953
0.347288
0.329587
0.298369
0.284036
0.259501
0.248995
0.232553
0.223836
0.206269
0.197442
0.180695
0.172496
0.157349
0.150019
0.136641
0.130212
0.118576
0.113047
0.103175
0.0986687
0.0910359
0.088257
0.0852169
0.0874244
0.0998112
0.124484
0.214626
0.374087
0.495732
0.814655
1.06352
1.70383
1.87946
1.91832
1.92691
1.92877
13.9788
11.8788
10.7393
9.31926
8.5857
7.6415
7.13244
6.43913
6.06246
5.54804
5.28242
4.94135
4.72627
4.37459
4.1603
3.82717
3.62925
3.3291
3.15267
2.88796
2.7331
2.50184
2.36676
2.16531
2.04732
1.87064
1.76507
1.60235
1.49215
1.29504
1.11141
1.02299
0.915501
0.856473
0.773523
0.726283
0.657648
0.618178
0.560297
0.526914
0.477827
0.449511
0.407878
0.383919
0.348806
0.328758
0.299673
0.283448
0.260621
0.248686
0.233111
0.223204
0.206885
0.1969
0.181317
0.172036
0.157926
0.149624
0.137157
0.129877
0.119034
0.112776
0.10359
0.0985
0.0914569
0.0883737
0.0858645
0.0887009
0.101986
0.131467
0.221668
0.373963
0.513157
0.814536
1.09287
1.66432
1.86158
1.91307
1.92555
1.92837
13.8305
11.9298
10.7283
9.36355
8.57754
7.66921
7.12404
6.45908
6.05619
5.56389
5.27928
4.94886
4.71841
4.38257
4.15366
3.8352
3.62368
3.33651
3.14792
2.89457
2.72901
2.50763
2.36321
2.17033
2.04415
1.87486
1.76182
1.60514
1.48665
1.29601
1.1178
1.02249
0.918598
0.855305
0.775718
0.725175
0.659422
0.617211
0.561783
0.526087
0.479086
0.448809
0.40895
0.383334
0.349723
0.328291
0.300465
0.283125
0.261306
0.248523
0.233443
0.22283
0.207249
0.196584
0.181688
0.17177
0.158272
0.149398
0.137468
0.129685
0.119311
0.112622
0.103842
0.0984104
0.0917205
0.0884682
0.0862992
0.0895603
0.103513
0.136023
0.226226
0.374363
0.524095
0.815339
1.1105
1.63979
1.84953
1.90939
1.92457
1.92807
13.7583
11.9529
10.7239
9.3847
8.57427
7.6824
7.12043
6.46854
6.05351
5.57143
5.27799
4.95237
4.71477
4.38628
4.15062
3.83895
3.62114
3.33998
3.14576
2.89766
2.72715
2.51035
2.3616
2.17268
2.04271
1.87683
1.76032
1.6064
1.48404
1.29649
1.12088
1.02234
0.920074
0.854792
0.776754
0.724679
0.660257
0.616776
0.562481
0.525714
0.479677
0.448493
0.409454
0.383071
0.350155
0.328083
0.300838
0.282983
0.261631
0.248455
0.233598
0.222657
0.207418
0.196439
0.181861
0.171648
0.158433
0.149295
0.137613
0.129599
0.11944
0.112552
0.103961
0.098372
0.0918475
0.0885203
0.0865175
0.0899927
0.104299
0.138271
0.228467
0.374701
0.529372
0.815985
1.11876
1.62804
1.84347
1.90749
1.92406
1.92792
-13.6276
-11.9385
-10.8753
-9.86386
-9.32022
-8.81735
-8.53948
-8.26831
-8.11775
-7.96899
-7.86641
-7.7306
-7.63491
-7.51023
-7.42325
-7.31091
-7.23278
-7.13215
-7.06232
-6.97261
-6.91054
-6.83107
-6.77626
-6.7063
-6.65807
-6.59642
-6.55321
-6.49635
-6.4516
-6.38373
-6.32103
-6.28642
-6.25139
-6.22946
-6.20383
-6.18705
-6.16673
-6.15326
-6.1368
-6.12586
-6.11245
-6.10354
-6.09263
-6.08541
-6.0766
-6.07083
-6.06388
-6.05943
-6.05428
-6.05119
-6.04786
-6.04555
-6.04251
-6.04051
-6.03815
-6.03681
-6.03555
-6.03518
-6.03547
-6.03649
-6.03907
-6.04223
-6.04844
-6.05522
-6.06787
-6.08167
-6.10785
-6.13903
-6.20321
-6.29682
-6.50859
-6.80257
-7.06537
-7.50288
-7.92045
-8.58455
-8.86415
-8.94713
-8.9686
-8.97359
-13.6952
-11.9134
-10.8733
-9.84515
-9.31858
-8.80835
-8.53921
-8.26348
-8.11768
-7.96715
-7.86774
-7.72899
-7.63607
-7.50872
-7.42426
-7.30954
-7.23368
-7.13092
-7.06312
-6.9715
-6.91124
-6.83008
-6.77687
-6.70543
-6.65861
-6.59568
-6.55376
-6.49586
-6.45252
-6.38352
-6.3199
-6.28644
-6.25087
-6.22961
-6.20348
-6.18719
-6.16645
-6.15338
-6.13658
-6.12596
-6.11227
-6.10362
-6.09249
-6.08547
-6.07648
-6.07087
-6.06378
-6.05946
-6.0542
-6.0512
-6.04782
-6.04557
-6.04246
-6.04052
-6.03811
-6.03681
-6.03552
-6.03515
-6.03544
-6.03643
-6.03904
-6.04211
-6.04842
-6.05498
-6.06783
-6.08117
-6.10765
-6.13771
-6.20203
-6.2921
-6.5053
-6.80381
-7.05839
-7.50368
-7.91059
-8.59993
-8.87202
-8.94959
-8.96926
-8.97379
-13.834
-11.8587
-10.8707
-9.80637
-9.3163
-8.78971
-8.53921
-8.25346
-8.1178
-7.96325
-7.87064
-7.72555
-7.63861
-7.5055
-7.42648
-7.30662
-7.23566
-7.12828
-7.06486
-6.96914
-6.91277
-6.82798
-6.7782
-6.70358
-6.65979
-6.5941
-6.55495
-6.49479
-6.45448
-6.3831
-6.31757
-6.28654
-6.24977
-6.22995
-6.20273
-6.18751
-6.16587
-6.15365
-6.13611
-6.12618
-6.11189
-6.1038
-6.09217
-6.08561
-6.07622
-6.07098
-6.06357
-6.05953
-6.05402
-6.05123
-6.04774
-6.04564
-6.04237
-6.04056
-6.03803
-6.03681
-6.03544
-6.0351
-6.03538
-6.0363
-6.039
-6.04185
-6.04839
-6.05449
-6.06776
-6.08015
-6.10731
-6.13502
-6.19983
-6.28244
-6.4986
-6.80682
-7.04377
-7.50601
-7.88944
-8.632
-8.88766
-8.95437
-8.97052
-8.97418
-14.0518
-11.7645
-10.8712
-9.74462
-9.31547
-8.76002
-8.54061
-8.23743
-8.11867
-7.95688
-7.87564
-7.71979
-7.64299
-7.50011
-7.43034
-7.30173
-7.23909
-7.12389
-7.0679
-6.9652
-6.91544
-6.82447
-6.78053
-6.70049
-6.66184
-6.59146
-6.55697
-6.49293
-6.45767
-6.38244
-6.31386
-6.28687
-6.24799
-6.23059
-6.2015
-6.18809
-6.16491
-6.15413
-6.13534
-6.12658
-6.11126
-6.10412
-6.09166
-6.08587
-6.0758
-6.07117
-6.06322
-6.05965
-6.05374
-6.05128
-6.04759
-6.04575
-6.04223
-6.04062
-6.03789
-6.03681
-6.03533
-6.03502
-6.0353
-6.0361
-6.03896
-6.04145
-6.04837
-6.05372
-6.06773
-6.07854
-6.10694
-6.13084
-6.19691
-6.26745
-6.48822
-6.81267
-7.02014
-7.5115
-7.85392
-8.68355
-8.91087
-8.96117
-8.97229
-8.97471
-14.3612
-11.6146
-10.8811
-9.65497
-9.3197
-8.71689
-8.54537
-8.21403
-8.12126
-7.94729
-7.88362
-7.71086
-7.65001
-7.49179
-7.43655
-7.29421
-7.24462
-7.11713
-7.07281
-6.95915
-6.91975
-6.81908
-6.7843
-6.69574
-6.66517
-6.58738
-6.56018
-6.48992
-6.46246
-6.38151
-6.30849
-6.28768
-6.24536
-6.2317
-6.19965
-6.18905
-6.16346
-6.15493
-6.13416
-6.12723
-6.1103
-6.10466
-6.09087
-6.08629
-6.07516
-6.0715
-6.0627
-6.05987
-6.05332
-6.05138
-6.04738
-6.04592
-6.042
-6.04072
-6.03769
-6.03682
-6.03517
-6.03492
-6.0352
-6.03582
-6.03892
-6.04088
-6.04842
-6.0526
-6.06783
-6.07623
-6.10675
-6.12498
-6.19381
-6.24645
-6.47369
-6.82321
-6.98516
-7.52294
-7.7989
-8.7592
-8.94115
-8.96953
-8.97441
-8.97533
-14.7804
-11.3841
-10.9106
-9.52969
-9.33463
-8.6565
-8.55651
-8.18108
-8.1271
-7.93328
-7.89596
-7.69746
-7.66093
-7.47936
-7.44624
-7.28299
-7.25327
-7.10705
-7.08049
-6.95012
-6.92652
-6.81106
-6.79022
-6.68868
-6.67038
-6.58128
-6.5651
-6.48519
-6.46939
-6.38027
-6.30102
-6.28934
-6.24158
-6.23354
-6.19693
-6.19062
-6.16132
-6.15623
-6.13243
-6.12829
-6.10889
-6.10552
-6.08972
-6.08698
-6.07422
-6.07203
-6.06193
-6.06024
-6.05271
-6.05156
-6.04706
-6.0462
-6.04167
-6.0409
-6.0374
-6.03687
-6.03495
-6.03479
-6.03508
-6.03544
-6.03894
-6.04008
-6.0486
-6.05104
-6.06819
-6.07303
-6.10706
-6.11709
-6.19136
-6.21846
-6.45427
-6.84125
-6.93514
-7.54486
-7.71652
-8.86597
-8.97759
-8.97884
-8.97668
-8.976
-15.3354
-11.0367
-10.9765
-9.35697
-9.36888
-8.573
-8.57868
-8.13528
-8.13853
-7.91302
-7.91476
-7.67758
-7.67765
-7.46099
-7.46114
-7.26641
-7.26657
-7.09217
-7.09232
-6.93683
-6.93696
-6.79925
-6.79937
-6.67828
-6.67842
-6.57226
-6.57258
-6.4779
-6.47925
-6.37863
-6.29086
-6.29245
-6.23621
-6.23652
-6.19301
-6.1931
-6.15821
-6.15826
-6.12992
-6.12996
-6.10684
-6.10687
-6.08805
-6.08807
-6.07286
-6.07287
-6.06083
-6.06084
-6.05185
-6.05188
-6.0466
-6.04662
-6.04119
-6.04118
-6.03699
-6.03698
-6.03467
-6.03465
-6.03496
-6.03493
-6.03904
-6.03898
-6.04903
-6.04889
-6.06906
-6.06866
-6.10833
-6.10664
-6.19079
-6.18212
-6.4288
-6.87101
-6.86449
-7.5843
-7.59503
-9.01426
-9.01843
-8.98829
-8.9789
-8.97663
-16.0624
-10.5198
-11.1047
-9.119
-9.43543
-8.45742
-8.6188
-8.0716
-8.15911
-7.88366
-7.94311
-7.6482
-7.70304
-7.43394
-7.48383
-7.24205
-7.28686
-7.07032
-7.11037
-6.91731
-6.95291
-6.78193
-6.81337
-6.66304
-6.69072
-6.55898
-6.58385
-6.46676
-6.49319
-6.37648
-6.27712
-6.29787
-6.22857
-6.24125
-6.18734
-6.19699
-6.15371
-6.16144
-6.12627
-6.13255
-6.10387
-6.10898
-6.08562
-6.08977
-6.07089
-6.0742
-6.05925
-6.0618
-6.05063
-6.05241
-6.04592
-6.04726
-6.0405
-6.04164
-6.03641
-6.03717
-6.03429
-6.03449
-6.03485
-6.03426
-6.03932
-6.03748
-6.04986
-6.04592
-6.07074
-6.06269
-6.11125
-6.09275
-6.19394
-6.13557
-6.39552
-6.91872
-6.76479
-7.6521
-7.41719
-9.21915
-9.06065
-8.9969
-8.98083
-8.97718
-17.0111
-9.75779
-11.3357
-8.78894
-9.55377
-8.29627
-8.68727
-7.98254
-8.19421
-7.84091
-7.98563
-7.60484
-7.74138
-7.39414
-7.51819
-7.20621
-7.31761
-7.0382
-7.13775
-6.88864
-6.97712
-6.7565
-6.83464
-6.64067
-6.70939
-6.53944
-6.60081
-6.44989
-6.51286
-6.37364
-6.25857
-6.30689
-6.21766
-6.24865
-6.17912
-6.20299
-6.14716
-6.16633
-6.12096
-6.13654
-6.09954
-6.11223
-6.08209
-6.09238
-6.06803
-6.07626
-6.05697
-6.06331
-6.04889
-6.05327
-6.04493
-6.04822
-6.03949
-6.04234
-6.03559
-6.03752
-6.03378
-6.03433
-6.03479
-6.03336
-6.03986
-6.03541
-6.05134
-6.04181
-6.07374
-6.05445
-6.11685
-6.07407
-6.20347
-6.07629
-6.3517
-6.99351
-6.62344
-7.76479
-7.15789
-9.50247
-9.09908
-9.00362
-8.98227
-8.97758
-18.2498
-8.64249
-11.7316
-8.32638
-9.75297
-8.06915
-8.79953
-7.85679
-8.25188
-7.7782
-8.04914
-7.54074
-7.79904
-7.33544
-7.56995
-7.15341
-7.36394
-6.99088
-7.17904
-6.84642
-7.01366
-6.71909
-6.86675
-6.60776
-6.73757
-6.51061
-6.62622
-6.42442
-6.54058
-6.36979
-6.23346
-6.32139
-6.20191
-6.26004
-6.16715
-6.21215
-6.13759
-6.17378
-6.11319
-6.14261
-6.0932
-6.11717
-6.07693
-6.09637
-6.06385
-6.0794
-6.05365
-6.06564
-6.04638
-6.05462
-6.04347
-6.04965
-6.038
-6.04342
-6.03442
-6.03807
-6.0331
-6.03417
-6.03478
-6.03213
-6.04084
-6.03252
-6.05384
-6.03603
-6.07878
-6.04294
-6.12665
-6.0485
-6.22326
-6.0009
-6.29323
-7.10879
-6.42165
-7.94743
-6.78054
-9.89574
-9.12524
-9.00741
-8.98308
-8.97784
)
;

boundaryField
{
    F1_1
    {
        type            calculated;
        value           nonuniform List<scalar> 
80
(
18.9521
7.97396
11.98
8.04149
9.87658
7.90525
8.86854
7.71524
8.2894
7.55179
7.90381
7.48986
7.75902
7.28722
7.55938
7.11058
7.3659
6.95352
7.18651
6.81396
7.0233
6.69096
6.87691
6.58344
6.7475
6.48962
6.63594
6.40606
6.55227
6.36486
6.21754
6.32786
6.19128
6.26504
6.15896
6.21616
6.13103
6.17705
6.10786
6.14529
6.08885
6.11935
6.07338
6.09813
6.06098
6.08077
6.05136
6.06661
6.04463
6.0551
6.04234
6.05019
6.0369
6.04381
6.03355
6.03819
6.03256
6.03389
6.03469
6.03127
6.04137
6.0307
6.05531
6.03254
6.08186
6.03613
6.13278
6.0336
6.23625
5.95864
6.25967
7.17852
6.30279
8.06
6.55692
10.1245
9.13392
9.00844
8.98331
8.97793
)
;
    }
    F1_2
    {
        type            calculated;
        value           nonuniform List<scalar> 
80
(
-19.3821
-7.90445
-12.4903
-7.04267
-9.80254
-6.1516
-8.07324
-5.33827
-6.76772
-4.70727
-5.70792
-4.45556
-5.26564
-3.83705
-4.65477
-3.31409
-4.06779
-2.86567
-3.53679
-2.47887
-3.06766
-2.14447
-2.65787
-1.8546
-2.30266
-1.60122
-2.00011
-1.37315
-1.77617
-1.2603
-0.83691
-1.15479
-0.749955
-0.971724
-0.644947
-0.82401
-0.551297
-0.701172
-0.470656
-0.597478
-0.401807
-0.509406
-0.343338