/*--------------------------------*- C++ -*----------------------------------*\
| =========                 |                                                 |
| \\      /  F ield         | OpenFOAM: The Open Source CFD Toolbox           |
|  \\    /   O peration     | Version:  5.x                                   |
|   \\  /    A nd           | Web:      www.OpenFOAM.org                      |
|    \\/     M anipulation  |                                                 |
\*---------------------------------------------------------------------------*/
FoamFile
{
    version     2.0;
    format      ascii;
    class       volScalarField;
    location    "4.8";
    object      gradTy;
}
// * * * * * * * * * * * * * * * * * * * * * * * * * * * * * * * * * * * * * //

dimensions      [0 -1 0 1 0 0 0];

internalField   nonuniform List<scalar> 
2048
(
-26.4236
-26.396
-26.3416
-26.262
-26.1592
-26.0358
-25.8946
-25.7383
-25.5697
-25.3915
-25.2061
-25.0154
-24.8216
-24.6263
-24.4309
-24.2369
-24.0453
-23.857
-23.6728
-23.4933
-23.3189
-23.15
-22.9868
-22.8296
-22.6785
-22.5339
-22.3961
-22.2653
-22.1419
-22.0264
-21.9194
-21.8216
-21.7335
-21.6562
-21.5905
-21.5374
-21.4981
-21.4737
-21.4655
-21.4747
-21.5025
-21.5502
-21.6191
-21.7102
-21.8247
-21.9631
-22.1259
-22.313
-22.5238
-22.7569
-23.0098
-23.2795
-23.5615
-23.8506
-24.1408
-24.4254
-24.6978
-24.9513
-25.1798
-25.3779
-25.5414
-25.6668
-25.7517
-25.7945
-26.4459
-26.4177
-26.3621
-26.2807
-26.1759
-26.0503
-25.9067
-25.7482
-25.5776
-25.3974
-25.2102
-25.018
-24.8228
-24.6263
-24.4299
-24.2349
-24.0426
-23.8537
-23.669
-23.4892
-23.3145
-23.1454
-22.982
-22.8246
-22.6733
-22.5285
-22.3904
-22.2592
-22.1355
-22.0196
-21.9121
-21.8136
-21.7249
-21.6468
-21.5802
-21.5263
-21.486
-21.4607
-21.4514
-21.4596
-21.4864
-21.5331
-21.6011
-21.6914
-21.8052
-21.9433
-22.1062
-22.2939
-22.5058
-22.7407
-22.9964
-23.2695
-23.5557
-23.8497
-24.1452
-24.4354
-24.7131
-24.9715
-25.2043
-25.406
-25.5722
-25.6996
-25.7857
-25.8292
-26.4886
-26.4591
-26.4011
-26.3164
-26.2076
-26.0776
-25.9297
-25.7669
-25.5922
-25.4084
-25.2179
-25.0228
-24.825
-24.6262
-24.4278
-24.2311
-24.0374
-23.8473
-23.6618
-23.4813
-23.3061
-23.1366
-22.9728
-22.8151
-22.6635
-22.5182
-22.3796
-22.2479
-22.1234
-22.0067
-21.8982
-21.7986
-21.7086
-21.629
-21.5609
-21.5053
-21.4632
-21.436
-21.4248
-21.431
-21.4558
-21.5007
-21.5669
-21.6557
-21.7683
-21.9057
-22.0686
-22.2572
-22.4712
-22.7096
-22.9703
-23.25
-23.5444
-23.8478
-24.1536
-24.4543
-24.7423
-25.0102
-25.2512
-25.4597
-25.6311
-25.7621
-25.8506
-25.8951
-26.5499
-26.5185
-26.4568
-26.3672
-26.2525
-26.1162
-25.9619
-25.7929
-25.6126
-25.4236
-25.2285
-25.0293
-24.8278
-24.6257
-24.4246
-24.2255
-24.0298
-23.8382
-23.6514
-23.47
-23.2942
-23.1241
-22.96
-22.8018
-22.6497
-22.5039
-22.3645
-22.232
-22.1065
-21.9886
-21.8788
-21.7775
-21.6857
-21.6041
-21.5338
-21.4757
-21.4311
-21.4013
-21.3873
-21.3907
-21.4128
-21.4549
-21.5185
-21.605
-21.7158
-21.8521
-22.0148
-22.2045
-22.4214
-22.6645
-22.9321
-23.2212
-23.5273
-23.8443
-24.165
-24.4812
-24.7842
-25.0658
-25.3186
-25.5366
-25.7152
-25.8514
-25.943
-25.9891
-26.6283
-26.5943
-26.5279
-26.4316
-26.3092
-26.1646
-26.0019
-25.8251
-25.6375
-25.4421
-25.2412
-25.0369
-24.8309
-24.6248
-24.4201
-24.2181
-24.0199
-23.8263
-23.6381
-23.4556
-23.2791
-23.1085
-22.9439
-22.7852
-22.6325
-22.486
-22.3458
-22.2122
-22.0856
-21.9663
-21.8547
-21.7515
-21.6574
-21.5732
-21.5
-21.439
-21.3912
-21.3579
-21.3405
-21.3404
-21.3589
-21.3975
-21.4577
-21.5412
-21.6495
-21.7841
-21.9463
-22.1371
-22.357
-22.6058
-22.8821
-23.183
-23.504
-23.8387
-24.1788
-24.5152
-24.8378
-25.1371
-25.4051
-25.6351
-25.8226
-25.9648
-26.0602
-26.108
-26.7229
-26.6856
-26.613
-26.5084
-26.3761
-26.2212
-26.0484
-25.8621
-25.6659
-25.4629
-25.2553
-25.0451
-24.8338
-24.6231
-24.4143
-24.2088
-24.0077
-23.8119
-23.6221
-23.4385
-23.2612
-23.0901
-22.925
-22.7658
-22.6125
-22.4652
-22.3241
-22.1894
-22.0614
-21.9404
-21.8268
-21.7213
-21.6245
-21.5373
-21.4608
-21.3961
-21.3445
-21.3073
-21.2858
-21.2815
-21.2957
-21.3301
-21.3862
-21.4659
-21.5709
-21.7031
-21.8642
-22.0557
-22.2788
-22.5339
-22.82
-23.1349
-23.4739
-23.8301
-24.1943
-24.5556
-24.9024
-25.2235
-25.5096
-25.7537
-25.9514
-26.1004
-26.1998
-26.2494
-26.833
-26.7916
-26.7114
-26.5964
-26.4522
-26.2849
-26.1
-25.9027
-25.6968
-25.4852
-25.2702
-25.0535
-24.8364
-24.6205
-24.407
-24.1975
-23.9932
-23.795
-23.6035
-23.4188
-23.2408
-23.0693
-22.9039
-22.7442
-22.5902
-22.4421
-22.2999
-22.1639
-22.0344
-21.9117
-21.7959
-21.6878
-21.5879
-21.4973
-21.4169
-21.3482
-21.2923
-21.2506
-21.2244
-21.2153
-21.2246
-21.254
-21.3053
-21.3804
-21.4813
-21.6103
-21.7695
-21.9612
-22.1872
-22.4486
-22.7456
-23.0761
-23.436
-23.8177
-24.2107
-24.602
-24.9778
-25.3247
-25.6318
-25.8918
-26.1004
-26.2563
-26.3596
-26.4109
-26.9582
-26.9119
-26.8222
-26.6946
-26.5362
-26.3542
-26.1555
-25.9457
-25.729
-25.5082
-25.2853
-25.0617
-24.8384
-24.6167
-24.3982
-24.1843
-23.9764
-23.7756
-23.5823
-23.3967
-23.2183
-23.0465
-22.8808
-22.7207
-22.5661
-22.4171
-22.2738
-22.1365
-22.0054
-21.8808
-21.7627
-21.6517
-21.5485
-21.454
-21.3694
-21.2961
-21.2354
-21.1888
-21.1575
-21.1431
-21.1469
-21.1708
-21.2165
-21.2861
-21.3821
-21.5069
-21.6634
-21.8543
-22.0824
-22.35
-22.6581
-23.0059
-23.3892
-23.8003
-24.2271
-24.6539
-25.0638
-25.4405
-25.7714
-26.0485
-26.2683
-26.4308
-26.5375
-26.5902
-27.0984
-27.0459
-26.9448
-26.8022
-26.6268
-26.4279
-26.2134
-25.9898
-25.7616
-25.5312
-25.3002
-25.0693
-24.8395
-24.6118
-24.3877
-24.169
-23.9573
-23.7537
-23.5587
-23.3723
-23.1938
-23.0221
-22.8563
-22.6959
-22.5406
-22.3906
-22.2461
-22.1075
-21.9749
-21.8483
-21.7279
-21.6138
-21.5069
-21.4082
-21.319
-21.2407
-21.1748
-21.1228
-21.0861
-21.0659
-21.0638
-21.0814
-21.1209
-21.1843
-21.2744
-21.3941
-21.5466
-21.7356
-21.9648
-22.2377
-22.557
-22.923
-23.3323
-23.7769
-24.2427
-24.7111
-25.1607
-25.5716
-25.9287
-26.2237
-26.4543
-26.6224
-26.7314
-26.785
-27.2537
-27.1938
-27.0789
-26.9183
-26.7231
-26.5047
-26.2726
-26.034
-25.7936
-25.5534
-25.3143
-25.0762
-24.8397
-24.6056
-24.3755
-24.1516
-23.9357
-23.7292
-23.5327
-23.3459
-23.1675
-22.9962
-22.8307
-22.67
-22.514
-22.363
-22.2173
-22.0773
-21.9432
-21.8148
-21.6919
-21.5747
-21.4639
-21.3606
-21.2663
-21.1827
-21.1113
-21.0536
-21.011
-20.9847
-20.9762
-20.9872
-21.0197
-21.0762
-21.1595
-21.273
-21.4203
-21.6058
-21.8346
-22.1117
-22.4414
-22.8262
-23.2638
-23.7459
-24.2567
-24.7733
-25.2689
-25.7185
-26.1041
-26.4172
-26.6574
-26.8294
-26.9394
-26.9929
-27.4244
-27.3554
-27.2241
-27.0421
-26.8238
-26.5831
-26.3315
-26.077
-25.8241
-25.5744
-25.3274
-25.0823
-24.839
-24.5981
-24.3616
-24.1319
-23.9115
-23.7022
-23.5043
-23.3175
-23.1398
-22.9694
-22.8044
-22.6436
-22.4869
-22.3346
-22.1876
-22.0463
-21.9108
-21.7807
-21.6553
-21.5349
-21.4199
-21.3117
-21.212
-21.1227
-21.0455
-20.9819
-20.9332
-20.9006
-20.8853
-20.8891
-20.9141
-20.9629
-21.0385
-21.1445
-21.2852
-21.4658
-21.6923
-21.9717
-22.3107
-22.7141
-23.1818
-23.7057
-24.2679
-24.8405
-25.3894
-25.8827
-26.2986
-26.6291
-26.8768
-27.0502
-27.1592
-27.2115
-27.6108
-27.531
-27.38
-27.1728
-26.9277
-26.6619
-26.3889
-26.1176
-25.8523
-25.5934
-25.3392
-25.0875
-24.8375
-24.5896
-24.346
-24.11
-23.8847
-23.6724
-23.4735
-23.2871
-23.1109
-22.942
-22.7777
-22.6169
-22.4593
-22.3057
-22.1572
-22.0147
-21.8781
-21.7464
-21.6188
-21.495
-21.3756
-21.2621
-21.1565
-21.0612
-20.9779
-20.9082
-20.8533
-20.8142
-20.7919
-20.7882
-20.8051
-20.8454
-20.9125
-21.01
-21.1427
-21.3163
-21.5383
-21.8177
-22.1639
-22.5853
-23.0844
-23.6544
-24.2752
-24.9128
-25.5234
-26.0657
-26.5134
-26.8597
-27.1117
-27.2833
-27.3885
-27.4383
-27.8138
-27.7209
-27.5464
-27.3096
-27.0335
-26.7394
-26.4432
-26.1545
-25.8772
-25.6103
-25.3498
-25.092
-24.8353
-24.58
-24.3287
-24.0856
-23.8551
-23.6397
-23.4401
-23.255
-23.081
-22.9142
-22.7512
-22.5904
-22.4318
-22.2765
-22.1263
-21.9827
-21.8452
-21.7123
-21.5826
-21.4554
-21.3314
-21.2122
-21.1004
-20.9986
-20.9091
-20.8332
-20.772
-20.7263
-20.6969
-20.6852
-20.6935
-20.7248
-20.7825
-20.8705
-20.9936
-21.1584
-21.3734
-21.6497
-22.0004
-22.4381
-22.9696
-23.5897
-24.277
-24.9902
-25.6726
-26.2698
-26.7502
-27.1093
-27.3612
-27.5266
-27.625
-27.6706
-28.034
-27.9255
-27.7231
-27.4514
-27.1397
-26.8143
-26.4931
-26.1867
-25.8982
-25.6245
-25.3591
-25.0961
-24.8328
-24.5698
-24.3099
-24.0588
-23.8225
-23.604
-23.4042
-23.2211
-23.0505
-22.8866
-22.7252
-22.5644
-22.4045
-22.247
-22.095
-21.9503
-21.8125
-21.6789
-21.5472
-21.4166
-21.2877
-21.1624
-21.0438
-20.9353
-20.8394
-20.7573
-20.69
-20.6377
-20.601
-20.5811
-20.5803
-20.602
-20.6497
-20.7271
-20.8393
-20.9932
-21.1984
-21.468
-21.8195
-22.271
-22.8347
-23.5089
-24.2714
-25.073
-25.8393
-26.4979
-27.0107
-27.3783
-27.6243
-27.7783
-27.8661
-27.9056
-28.2726
-28.1454
-27.91
-27.5974
-27.2448
-26.8847
-26.5371
-26.2128
-25.9145
-25.636
-25.3674
-25.0999
-24.8304
-24.5592
-24.2896
-24.0294
-23.7868
-23.5651
-23.3654
-23.1855
-23.0194
-22.8596
-22.7002
-22.5393
-22.3777
-22.2175
-22.0631
-21.9176
-21.78
-21.6464
-21.5132
-21.3791
-21.2451
-21.113
-20.987
-20.8716
-20.7691
-20.6809
-20.6076
-20.549
-20.5049
-20.4765
-20.4663
-20.4779
-20.5149
-20.581
-20.6809
-20.822
-21.0143
-21.2732
-21.6208
-22.0822
-22.6772
-23.409
-24.2561
-25.1612
-26.0265
-26.7536
-27.2973
-27.6669
-27.8996
-28.0361
-28.1093
-28.1407
-28.5308
-28.3812
-28.107
-27.7465
-27.3472
-26.9492
-26.5737
-26.2316
-25.9253
-25.6447
-25.375
-25.1041
-24.8285
-24.5487
-24.2679
-23.9972
-23.7476
-23.5228
-23.3237
-23.1482
-22.9883
-22.8336
-22.6766
-22.5155
-22.3518
-22.1879
-22.0304
-21.8845
-21.7481
-21.6153
-21.4807
-21.3433
-21.2038
-21.0643
-20.9303
-20.8076
-20.6985
-20.6043
-20.5253
-20.4606
-20.4094
-20.3722
-20.3521
-20.3531
-20.3791
-20.4332
-20.5197
-20.6461
-20.8226
-21.0658
-21.4038
-21.8702
-22.4945
-23.2863
-24.2278
-25.255
-26.2379
-27.0412
-27.6123
-27.9753
-28.1856
-28.2976
-28.3517
-28.3729
-28.81
-28.6335
-28.314
-27.8975
-27.4448
-27.0061
-26.6015
-26.242
-25.9302
-25.6506
-25.3826
-25.1091
-24.8275
-24.5388
-24.245
-23.9618
-23.7048
-23.4767
-23.2786
-23.1093
-22.9573
-22.8093
-22.6548
-22.4934
-22.3271
-22.1582
-21.9967
-21.8508
-21.7167
-21.5859
-21.4503
-21.3094
-21.1643
-21.0165
-20.8736
-20.7435
-20.6279
-20.5277
-20.4435
-20.3732
-20.3149
-20.2688
-20.2383
-20.2284
-20.2432
-20.2849
-20.357
-20.4671
-20.6247
-20.8471
-21.1686
-21.6334
-22.2836
-23.1367
-24.1824
-25.3543
-26.4788
-27.3663
-27.9585
-28.3031
-28.4804
-28.5603
-28.5907
-28.5997
-29.1118
-28.903
-28.5311
-28.049
-27.5355
-27.0538
-26.6192
-26.2425
-25.9285
-25.6539
-25.3909
-25.1156
-24.8279
-24.5303
-24.221
-23.9227
-23.6582
-23.4267
-23.2299
-23.0685
-22.9269
-22.7873
-22.6354
-22.4731
-22.3039
-22.1283
-21.9615
-21.8163
-21.6861
-21.5586
-21.4223
-21.2779
-21.1271
-20.9698
-20.8168
-20.6793
-20.5572
-20.4513
-20.3626
-20.2873
-20.2222
-20.1668
-20.1254
-20.1043
-20.1079
-20.1371
-20.1938
-20.2865
-20.4227
-20.6183
-20.9154
-21.3704
-22.0419
-22.9558
-24.1141
-25.4586
-26.7557
-27.7354
-28.3383
-28.6496
-28.7816
-28.8213
-28.8236
-28.8183
-29.438
-29.1902
-28.7586
-28.1997
-27.6165
-27.0909
-26.6257
-26.2318
-25.9198
-25.6551
-25.401
-25.1239
-24.8302
-24.5243
-24.1961
-23.8793
-23.6076
-23.3727
-23.177
-23.026
-22.8974
-22.7684
-22.6187
-22.455
-22.2828
-22.0982
-21.9238
-21.7805
-21.6564
-21.5342
-21.397
-21.2488
-21.0928
-20.9243
-20.7597
-20.6151
-20.4868
-20.3752
-20.2828
-20.2032
-20.1318
-20.0666
-20.0138
-19.9811
-19.9738
-19.9908
-20.0312
-20.1058
-20.2188
-20.3811
-20.6448
-21.0798
-21.7671
-22.7387
-24.0155
-25.5669
-27.0776
-28.1561
-28.7541
-29.0134
-29.0863
-29.0777
-29.0477
-29.0265
-29.7908
-29.4952
-28.9972
-28.3478
-27.6845
-27.1166
-26.6201
-26.208
-25.9037
-25.6544
-25.4144
-25.1346
-24.8343
-24.5221
-24.1704
-23.8303
-23.5533
-23.3145
-23.119
-22.9817
-22.8693
-22.7537
-22.6051
-22.4391
-22.2648
-22.0676
-21.8828
-21.7432
-21.6276
-21.5133
-21.3746
-21.2223
-21.0619
-20.8803
-20.7019
-20.551
-20.4166
-20.2992
-20.2043
-20.1214
-20.0443
-19.9689
-19.9037
-19.8592
-19.8417
-19.8469
-19.87
-19.9267
-20.0156
-20.1376
-20.3576
-20.7602
-21.4575
-22.4809
-23.8761
-25.6772
-27.4565
-28.6374
-29.2077
-29.3921
-29.3912
-29.3266
-29.2606
-29.2221
-30.1728
-29.8174
-29.2482
-28.4915
-27.7354
-27.1303
-26.602
-26.1691
-25.88
-25.6523
-25.4332
-25.148
-24.8401
-24.526
-24.1441
-23.7741
-23.4954
-23.2524
-23.0547
-22.9355
-22.8429
-22.7447
-22.5947
-22.4251
-22.2509
-22.0366
-21.8367
-21.7039
-21.5999
-21.4969
-21.3552
-21.1982
-21.0356
-20.8376
-20.6425
-20.4873
-20.3469
-20.2232
-20.1275
-20.0423
-19.9603
-19.8738
-19.7953
-19.7384
-19.7118
-19.7066
-19.7108
-19.7505
-19.8163
-19.8898
-20.0555
-20.4103
-21.1122
-22.1783
-23.6818
-25.7862
-27.9088
-29.1897
-29.6996
-29.7823
-29.6925
-29.5648
-29.4601
-29.4034
-30.587
-30.1551
-29.5141
-28.6289
-27.7633
-27.1327
-26.5716
-26.1121
-25.8488
-25.6492
-25.4602
-25.1639
-24.8465
-24.5389
-24.1173
-23.7077
-23.4352
-23.1867
-22.9825
-22.8877
-22.8185
-22.7431
-22.5874
-22.4124
-22.2431
-22.0049
-21.7834
-21.6623
-21.5732
-21.4865
-21.3389
-21.1759
-21.0153
-20.7965
-20.5801
-20.4243
-20.278
-20.1467
-20.0526
-19.9663
-19.8806
-19.7818
-19.6887
-19.6188
-19.5847
-19.5712
-19.5537
-19.5785
-19.6245
-19.64
-19.7404
-20.0277
-20.7316
-21.8287
-23.4137
-25.8879
-28.4568
-29.824
-30.2291
-30.1794
-29.986
-29.7895
-29.6443
-29.5691
-31.0375
-30.5045
-29.7991
-28.7579
-27.7605
-27.1263
-26.5297
-26.0329
-25.811
-25.6448
-25.4995
-25.1817
-24.8515
-24.5656
-24.0901
-23.6271
-23.3744
-23.1183
-22.8997
-22.8387
-22.7959
-22.7516
-22.5829
-22.3995
-22.2443
-21.9725
-21.7199
-21.6184
-21.5475
-21.4842
-21.3251
-21.1543
-21.0031
-20.7568
-20.5129
-20.3628
-20.2102
-20.0688
-19.98
-19.8935
-19.8061
-19.6931
-19.5838
-19.4999
-19.4605
-19.4421
-19.3982
-19.4112
-19.4448
-19.3905
-19.4154
-19.6095
-20.3181
-21.4326
-23.0457
-25.9736
-29.1318
-30.5518
-30.7928
-30.5774
-30.2672
-29.998
-29.8116
-29.7179
-31.5298
-30.8588
-30.1102
-28.8763
-27.7162
-27.1156
-26.4781
-25.9256
-25.7683
-25.6383
-25.5569
-25.2003
-24.8513
-24.6128
-24.0626
-23.5259
-23.3167
-23.0484
-22.8025
-22.7897
-22.7744
-22.7741
-22.5803
-22.3841
-22.2588
-21.9392
-21.6419
-21.573
-21.522
-21.493
-21.3134
-21.1315
-21.0024
-20.7185
-20.438
-20.3043
-20.1441
-19.9883
-19.9103
-19.824
-19.7377
-19.6078
-19.4806
-19.3812
-19.3393
-19.3216
-19.2429
-19.2489
-19.283
-19.1427
-19.085
-19.1503
-19.8756
-20.9962
-22.5429
-26.0293
-29.9768
-31.3836
-31.3848
-30.9692
-30.5315
-30.1878
-29.961
-29.8495
-32.0711
-31.2062
-30.4586
-28.9819
-27.6153
-27.1091
-26.4197
-25.7815
-25.7245
-25.6271
-25.6405
-25.2174
-24.8396
-24.6906
-24.0349
-23.3948
-23.2675
-22.9792
-22.685
-22.743
-22.7524
-22.8159
-22.578
-22.362
-22.2929
-21.9051
-21.5433
-21.5275
-21.4953
-21.5172
-21.3024
-21.1042
-21.0179
-20.6817
-20.3509
-20.2511
-20.0805
-19.9031
-19.8445
-19.7575
-19.677
-19.526
-19.3789
-19.2616
-19.2209
-19.2127
-19.0856
-19.0908
-19.1465
-18.897
-18.7558
-18.6417
-19.4106
-20.5335
-21.8586
-26.0344
-31.0514
-32.3272
-31.9952
-31.3464
-30.7744
-30.3571
-30.0917
-29.9636
-32.672
-31.5276
-30.8617
-29.0722
-27.4363
-27.1202
-26.3589
-25.588
-25.6864
-25.6058
-25.7624
-25.2294
-24.8066
-24.8134
-24.007
-23.2203
-23.2358
-22.9135
-22.5389
-22.703
-22.7262
-22.8847
-22.5739
-22.3268
-22.3561
-21.87
-21.4159
-21.4856
-21.4647
-21.563
-21.2903
-21.0675
-21.0566
-20.6459
-20.2455
-20.2069
-20.0202
-19.8103
-19.7843
-19.6934
-19.6256
-19.4475
-19.2789
-19.1398
-19.1046
-19.1199
-18.9224
-18.9348
-19.0452
-18.6517
-18.4382
-18.0705
-18.9316
-20.0707
-20.9307
-25.959
-32.438
-33.3848
-32.6099
-31.6998
-30.9918
-30.5043
-30.2034
-30.0603
-33.3473
-31.7935
-31.3456
-29.1451
-27.1494
-27.1696
-26.3014
-25.3268
-25.6654
-25.5648
-25.9393
-25.2313
-24.7375
-25.0022
-23.9785
-22.9831
-23.2349
-22.8552
-22.352
-22.6769
-22.6894
-22.9916
-22.5644
-22.269
-22.4617
-21.8335
-21.2481
-21.4533
-21.425
-21.6393
-21.2744
-21.0138
-21.1287
-20.6108
-20.113
-20.1776
-19.9646
-19.7055
-19.7324
-19.6301
-19.5862
-19.3715
-19.1806
-19.0143
-18.9889
-19.0498
-18.7481
-18.7771
-18.9924
-18.4014
-18.1477
-17.4164
-18.4487
-19.6517
-19.6775
-25.76
-34.2493
-34.5485
-33.2101
-32.0202
-31.1803
-30.6286
-30.2964
-30.1402
-34.1179
-31.9597
-31.9489
-29.1985
-26.7134
-27.2878
-26.2549
-24.9717
-25.6804
-25.4877
-26.1953
-25.2161
-24.6108
-25.2859
-23.949
-22.6563
-23.2845
-22.8092
-22.1068
-22.6769
-22.6311
-23.1523
-22.5448
-22.1747
-22.6284
-21.7952
-21.0242
-21.4409
-21.3677
-21.7587
-21.2509
-20.9325
-21.2483
-20.5756
-19.9413
-20.1718
-19.9151
-19.5824
-19.6931
-19.565
-19.5622
-19.297
-19.0846
-18.883
-18.8714
-19.0118
-18.5549
-18.6114
-19.0066
-18.1352
-17.9079
-16.6494
-17.973
-19.3442
-17.993
-25.3769
-36.6386
-35.7942
-33.7726
-32.2986
-31.3374
-30.7298
-30.371
-30.204
-35.0134
-31.9619
-32.7266
-29.2299
-26.0722
-27.5183
-26.2286
-24.4861
-25.7604
-25.3483
-26.5637
-25.1741
-24.396
-25.7047
-23.9175
-22.203
-23.4127
-22.7819
-21.7791
-22.7218
-22.5339
-23.3887
-22.5087
-22.0242
-22.8821
-21.7541
-20.723
-21.4648
-21.2791
-21.9388
-21.2146
-20.8083
-21.4352
-20.5392
-19.7136
-20.2019
-19.8735
-19.4322
-19.673
-19.4935
-19.5586
-19.222
-18.992
-18.7435
-18.748
-19.0193
-18.3325
-18.4283
-19.113
-17.8336
-17.7537
-15.7265
-17.5143
-19.2484
-15.7409
-24.7267
-39.8115
-37.0736
-34.2708
-32.5271
-31.4616
-30.8082
-30.4282
-30.2526
-36.0746
-31.7088
-33.7559
-29.2372
-25.1503
-27.9218
-26.2339
-23.8194
-25.9496
-25.1063
-27.0906
-25.0931
-24.0508
-26.3127
-23.8826
-21.5734
-23.6584
-22.7807
-21.3353
-22.8402
-22.3714
-23.7311
-22.4476
-21.7904
-23.2579
-21.7082
-20.316
-21.5496
-21.1378
-22.2037
-21.1586
-20.6204
-21.716
-20.4996
-19.4079
-20.2854
-19.8412
-19.2428
-19.6819
-19.409
-19.582
-19.1432
-18.9047
-18.593
-18.6121
-19.0906
-18.0674
-18.2138
-19.3464
-17.4652
-17.7364
-14.5881
-17.0793
-19.5069
-12.7485
-23.6961
-44.0417
-38.3039
-34.6763
-32.7
-31.5526
-30.8648
-30.4691
-30.2872
-37.3575
-31.0743
-35.1428
-29.2177
-23.8481
-28.5808
-26.2834
-22.9033
-26.3124
-24.7019
-27.8387
-24.9571
-23.5182
-27.182
-23.8418
-20.7019
-24.0748
-22.8143
-20.7299
-23.0742
-22.1042
-24.2205
-22.3509
-21.4366
-23.8023
-21.6547
-19.7657
-21.7313
-20.9123
-22.5865
-21.074
-20.3405
-22.1263
-20.4542
-18.9948
-20.4462
-19.8199
-18.9982
-19.7341
-19.3009
-19.642
-19.0556
-18.8257
-18.4289
-18.4542
-19.2509
-17.7422
-17.9484
-19.7544
-16.9814
-17.9289
-13.1534
-16.6674
-20.3159
-8.79957
-22.1345
-49.6875
-39.3536
-34.9628
-32.8142
-31.6111
-30.9008
-30.495
-30.3091
-38.9378
-29.888
-37.0296
-29.1679
-22.0362
-29.6053
-26.3918
-21.6464
-26.9402
-24.0495
-28.8915
-24.7462
-22.7228
-28.4059
-23.7914
-19.5029
-24.7327
-22.8926
-19.9024
-23.4832
-21.6757
-24.912
-22.2047
-20.9143
-24.5759
-21.5889
-19.0231
-22.0608
-20.5571
-23.1312
-20.9493
-19.9318
-22.7127
-20.3989
-18.4363
-20.7163
-19.8106
-18.6769
-19.8494
-19.1543
-19.7514
-18.952
-18.7595
-18.2482
-18.26
-19.5334
-17.335
-17.605
-20.4013
-16.3106
-18.4334
-11.3164
-16.2663
-21.9386
-3.62733
-19.8438
-57.2129
-40.0272
-35.1106
-32.87
-31.6393
-30.918
-30.5073
-30.3195
)
;

boundaryField
{
    left
    {
        type            calculated;
        value           nonuniform List<scalar> 
32
(
-26.4236
-26.4459
-26.4886
-26.5499
-26.6283
-26.7229
-26.833
-26.9582
-27.0984
-27.2537
-27.4244
-27.6108
-27.8138
-28.034
-28.2726
-28.5308
-28.81
-29.1118
-29.438
-29.7908
-30.1728
-30.587
-31.0375
-31.5298
-32.0711
-32.672
-33.3473
-34.1179
-35.0134
-36.0746
-37.3575
-38.9378
)
;
    }
    right
    {
        type            calculated;
        value           nonuniform List<scalar> 
32
(
-25.7945
-25.8292
-25.8951
-25.9891
-26.108
-26.2494
-26.4109
-26.5902
-26.785
-26.9929
-27.2115
-27.4383
-27.6706
-27.9056
-28.1407
-28.3729
-28.5997
-28.8183
-29.0265
-29.2221
-29.4034
-29.5691
-29.7179
-29.8495
-29.9636
-30.0603
-30.1402
-30.204
-30.2526
-30.2872
-30.3091
-30.3195
)
;
    }
    interface
    {
        type            calculated;
        value           nonuniform List<scalar> 
64
(
-39.8131
-29.1325
-38.1184
-29.1349
-20.9847
-30.2245
-26.4626
-20.9198
-27.3338
-23.6487
-29.506
-24.6191
-22.2486
-29.1197
-23.7633
-18.8096
-25.132
-22.9442
-19.4245
-23.7401
-21.413
-25.316
-22.1173
-20.6041
-25.0285
-21.5523
-18.5968
-22.2699
-20.3403
-23.4503
-20.8753
-19.6899
-23.0565
-20.3681
-18.1153
-20.8831
-19.809
-18.4941
-19.9258
-19.0691
-19.8203
-18.895
-18.7302
-18.1534
-18.1518
-19.7099
-17.1078
-17.4099
-20.7937
-15.9179
-18.7784
-10.2822
-16.0659
-22.9908
-0.698593
-18.4881
-61.5107
-40.241
-35.148
-32.8836
-31.6461
-30.9221
-30.5103
-30.322
)
;
    }
    bottom
    {
        type            calculated;
        value           nonuniform List<scalar> 
64
(
-26.4178
-26.3904
-26.3363
-26.2571
-26.1549
-26.032
-25.8914
-25.7357
-25.5677
-25.39
-25.205
-25.0148
-24.8213
-24.6263
-24.4312
-24.2374
-24.046
-23.8579
-23.6738
-23.4944
-23.3201
-23.1512
-22.9881
-22.8309
-22.6799
-22.5354
-22.3976
-22.2668
-22.1436
-22.0282
-21.9214
-21.8237
-21.7358
-21.6587
-21.5932
-21.5403
-21.5013
-21.4772
-21.4692
-21.4786
-21.5067
-21.5547
-21.6238
-21.7152
-21.8297
-21.9682
-22.131
-22.318
-22.5285
-22.761
-23.0133
-23.2821
-23.563
-23.8508
-24.1396
-24.4229
-24.6938
-24.946
-25.1734
-25.3706
-25.5334
-25.6583
-25.7428
-25.7855
)
;
    }
    defaultFaces
    {
        type            empty;
    }
}


// ************************************************************************* //
