/*--------------------------------*- C++ -*----------------------------------*\
| =========                 |                                                 |
| \\      /  F ield         | OpenFOAM: The Open Source CFD Toolbox           |
|  \\    /   O peration     | Version:  5.x                                   |
|   \\  /    A nd           | Web:      www.OpenFOAM.org                      |
|    \\/     M anipulation  |                                                 |
\*---------------------------------------------------------------------------*/
FoamFile
{
    version     2.0;
    format      ascii;
    class       volScalarField;
    location    "15.5001";
    object      gradTy;
}
// * * * * * * * * * * * * * * * * * * * * * * * * * * * * * * * * * * * * * //

dimensions      [0 -1 0 1 0 0 0];

internalField   nonuniform List<scalar> 
6300
(
32284.1
32252.1
32220.1
32187.9
32155.4
32122.7
32089.5
32056
32021.9
31987.3
31952.2
31916.5
31880.2
31843.3
31805.8
0.0533509
0.159555
0.264233
0.366257
0.464337
0.556982
0.642482
0.718923
0.784252
0.836406
0.873491
0.894042
0.897301
0.8835
0.854049
0.0894694
0.267618
0.443338
0.614809
0.779932
0.936241
1.08086
1.21054
1.32171
1.41073
1.47416
1.50924
1.51441
1.48984
1.43787
0.126379
0.378114
0.626693
0.869715
1.10435
1.32719
1.5342
1.72067
1.88134
2.01065
2.10318
2.15437
2.16127
2.1236
2.04449
0.16431
0.491767
0.81561
1.13302
1.44055
1.73399
2.0081
2.25662
2.47235
2.64735
2.77358
2.84378
2.85274
2.7988
2.68554
0.203406
0.609037
1.01097
1.40619
1.79088
2.16011
2.50758
2.82539
3.10409
3.33283
3.50003
3.59448
3.6071
3.53336
3.3761
0.243682
0.730012
1.21304
1.68989
2.15667
2.60802
3.03672
3.4333
3.7858
4.07987
4.29925
4.42701
4.44785
4.35147
4.13737
0.284993
0.854292
1.42129
1.98368
2.53789
3.07859
3.598
4.08528
4.52597
4.90163
5.19009
5.36651
5.40586
5.28733
5.00153
0.326994
0.980872
1.63417
2.28564
2.93265
3.57047
4.19143
4.78389
5.33118
5.81062
6.19301
6.44312
6.52176
6.39053
6.02045
0.369104
1.10803
1.84888
2.59207
3.3366
4.07923
4.81337
5.52768
6.20425
6.81667
7.32827
7.69125
7.84765
7.73269
7.28096
0.410494
1.23328
2.06126
2.89716
3.74245
4.59647
5.45517
6.30923
7.1415
7.92359
8.61221
9.14608
9.44517
9.41211
8.92849
0.450086
1.35334
2.26572
3.19287
4.13958
5.10905
6.10161
7.1126
8.12893
9.12403
10.051
10.836
11.3756
11.5437
11.1879
0.486597
1.46428
2.45542
3.46903
4.51397
5.59855
6.72964
7.91062
9.13764
10.3926
11.6321
12.7721
13.6797
14.2044
14.2941
0.518622
1.56174
2.62266
3.71387
4.8487
6.04156
7.30777
8.66262
10.1184
11.6769
13.313
14.9419
16.3713
17.3143
17.9097
0.544774
1.6414
2.75963
3.91509
5.12541
6.41121
7.79728
9.31373
10.9963
12.8835
15.0015
17.3133
19.5584
20.8047
18.492
31770.9
31738.8
31706.3
31673.5
31640.4
31607
31573.3
31539.4
31505.2
31470.9
31436.4
31401.7
31366.9
31331.9
31296.9
31261.8
31226.7
31191.6
31156.4
31121.3
31086.3
31051.2
31016.2
30981.3
30946.4
30911.5
30876.7
30841.9
30807.2
30772.6
30738.1
30703.6
30669.3
30635
30600.8
30566.8
30532.9
30499
30465.3
30431.7
30398.2
30364.7
30331.4
30298.1
30264.9
30231.9
30198.9
30166.1
30133.4
30100.8
30068.3
30035.9
30003.6
29971.5
29939.4
29907.4
29875.6
29843.8
29812.1
29780.4
29748.9
29717.5
29686.1
29654.9
29623.8
29592.8
29561.8
29531
29500.2
29469.6
29439
29408.4
29377.9
29347.5
29317.2
29286.9
29256.6
29226.5
29196.3
29166.3
29136.2
29106.2
29076.2
29046.2
29016.2
28986.1
28955.9
28925.6
28895.3
28864.8
0.815095
0.772884
0.72615
0.677104
0.627594
0.578855
0.53138
0.48494
0.438761
0.391813
0.343157
0.292273
0.239291
0.185094
0.131254
0.0798078
0.0329272
-0.0074635
-0.0400346
-0.0642993
-0.0807165
-0.0906325
-0.0960769
-0.0994472
-0.103135
-0.109155
-0.118834
-0.132613
-0.149996
-0.16966
-0.189705
-0.208014
-0.222637
-0.232154
-0.235917
-0.234168
-0.22799
-0.219117
-0.209641
-0.201663
-0.196938
-0.196587
-0.200908
-0.20933
-0.22051
-0.232582
-0.243479
-0.251311
-0.254695
-0.252988
-0.246392
-0.235909
-0.22316
-0.210106
-0.198714
-0.190627
-0.186886
-0.187753
-0.192665
-0.20033
-0.208958
-0.216569
-0.221351
-0.221969
-0.217791
-0.20898
-0.196454
-0.181706
-0.166536
-0.152729
-0.141733
-0.134384
-0.130731
-0.129987
-0.130614
-0.130547
-0.127502
-0.119339
-0.104397
-0.0817742
-0.0514987
-0.0145816
0.0270403
0.0706677
0.113086
0.150878
0.180785
0.200071
0.206861
0.200388
1.36934
1.29537
1.21396
1.12928
1.04479
0.962772
0.883999
0.807818
0.732474
0.655706
0.575433
0.490408
0.400695
0.30787
0.2149
0.125711
0.0445226
-0.0249043
-0.07996
-0.11967
-0.144891
-0.158191
-0.163455
-0.165271
-0.168216
-0.176139
-0.191568
-0.215317
-0.246389
-0.282174
-0.318945
-0.35255
-0.379182
-0.396067
-0.401956
-0.397323
-0.384272
-0.36616
-0.347032
-0.330945
-0.32129
-0.320232
-0.328343
-0.344506
-0.366108
-0.389503
-0.410667
-0.425919
-0.432578
-0.429411
-0.416829
-0.396783
-0.372422
-0.34754
-0.325944
-0.310813
-0.304163
-0.306502
-0.316737
-0.332358
-0.349875
-0.36544
-0.37553
-0.377565
-0.370341
-0.354204
-0.330956
-0.303517
-0.2754
-0.250094
-0.230441
-0.218117
-0.213283
-0.214484
-0.218814
-0.222329
-0.220657
-0.209686
-0.186213
-0.148461
-0.0963878
-0.0317727
0.0418982
0.119731
0.195867
0.264043
0.31824
0.353367
0.365905
0.3544
1.94043
1.82859
1.70651
1.58119
1.45847
1.34203
1.2329
1.1295
1.02825
0.92466
0.814563
0.695306
0.566591
0.430864
0.293111
0.160099
0.0391871
-0.063035
-0.141979
-0.195902
-0.226227
-0.237321
-0.235797
-0.229468
-0.226125
-0.232315
-0.252319
-0.287477
-0.335994
-0.393268
-0.452744
-0.507129
-0.54976
-0.575815
-0.583145
-0.572601
-0.54784
-0.514664
-0.480046
-0.450966
-0.433264
-0.430673
-0.444182
-0.47185
-0.509124
-0.549638
-0.586366
-0.612903
-0.62461
-0.619394
-0.598011
-0.563874
-0.522432
-0.480242
-0.443865
-0.418787
-0.408495
-0.413879
-0.433053
-0.461655
-0.493605
-0.522195
-0.541307
-0.546495
-0.535726
-0.509666
-0.471493
-0.426305
-0.380218
-0.339317
-0.308597
-0.291065
-0.287144
-0.294478
-0.308187
-0.321581
-0.327205
-0.318036
-0.288591
-0.235773
-0.159337
-0.0620046
0.0507625
0.171237
0.29011
0.397338
0.483157
0.53919
0.559569
0.541824
2.53636
2.37656
2.20375
2.0294
1.8631
1.71076
1.57358
1.44811
1.32742
1.20299
1.06689
0.913829
0.742592
0.556781
0.364498
0.177065
0.00694117
-0.134684
-0.240027
-0.306114
-0.335256
-0.334622
-0.315057
-0.289367
-0.270308
-0.2686
-0.291248
-0.340402
-0.412988
-0.501193
-0.593872
-0.678634
-0.74421
-0.782527
-0.790071
-0.768355
-0.723524
-0.665247
-0.605085
-0.554601
-0.523479
-0.517931
-0.539632
-0.585361
-0.647474
-0.715225
-0.776739
-0.821241
-0.84101
-0.832657
-0.79756
-0.741482
-0.673523
-0.604571
-0.545516
-0.50547
-0.490255
-0.501399
-0.535792
-0.586132
-0.642173
-0.692599
-0.727136
-0.738403
-0.72313
-0.68257
-0.622133
-0.550385
-0.477568
-0.413881
-0.36776
-0.34441
-0.3448
-0.365291
-0.398013
-0.43202
-0.455054
-0.455581
-0.424629
-0.357091
-0.252377
-0.114462
0.0485278
0.225051
0.40112
0.561464
0.690963
0.776358
0.808131
0.782156
3.16715
2.94327
2.70325
2.46602
2.24764
2.0577
1.89742
1.75985
1.63198
1.49813
1.34368
1.15853
0.939589
0.692024
0.428907
0.16911
-0.0663396
-0.258578
-0.394603
-0.469527
-0.487162
-0.459181
-0.40314
-0.339718
-0.289504
-0.269816
-0.292006
-0.359589
-0.467488
-0.602678
-0.746402
-0.877768
-0.977914
-1.03355
-1.03913
-0.997393
-0.918573
-0.818544
-0.716186
-0.630356
-0.576868
-0.565952
-0.600482
-0.675278
-0.777707
-0.889795
-0.99161
-1.0652
-1.09791
-1.08443
-1.02732
-0.936202
-0.826042
-0.714647
-0.619796
-0.556394
-0.534057
-0.55544
-0.615566
-0.702398
-0.798826
-0.885884
-0.946471
-0.968527
-0.946949
-0.884094
-0.789061
-0.676004
-0.561771
-0.46315
-0.394134
-0.36357
-0.37351
-0.41849
-0.48599
-0.55826
-0.615312
-0.638456
-0.61335
-0.531944
-0.393227
-0.203027
0.0268049
0.279522
0.534771
0.770009
0.96228
1.09074
1.13985
1.10252
3.84682
3.53324
3.19875
2.87553
2.59125
2.36195
2.18858
2.05764
1.94519
1.82293
1.66468
1.4519
1.17782
0.849667
0.48854
0.126098
-0.201841
-0.463417
-0.637164
-0.715434
-0.704756
-0.624146
-0.501852
-0.371049
-0.264744
-0.210727
-0.2274
-0.32072
-0.482693
-0.691872
-0.91673
-1.12186
-1.27571
-1.35667
-1.35634
-1.27983
-1.14416
-0.975193
-0.803489
-0.659539
-0.568955
-0.548529
-0.603351
-0.725402
-0.894031
-1.07916
-1.24713
-1.36801
-1.42131
-1.39905
-1.30604
-1.15834
-0.98034
-0.800898
-0.648791
-0.548185
-0.514902
-0.553692
-0.656886
-0.804843
-0.968975
-1.11729
-1.22129
-1.26148
-1.2302
-1.13196
-0.981944
-0.803317
-0.623489
-0.46979
-0.365134
-0.324404
-0.351763
-0.439257
-0.5671
-0.706414
-0.824397
-0.890813
-0.88314
-0.789324
-0.608214
-0.348661
-0.027872
0.330346
0.697239
1.04043
1.32549
1.51939
1.59604
1.5426
4.59771
4.15335
3.67806
3.22903
2.8557
2.5857
2.41866
2.32881
2.27255
2.19959
2.06422
1.83354
1.49392
1.0548
0.550073
0.0334079
-0.432901
-0.794725
-1.01721
-1.08942
-1.02305
-0.849136
-0.612818
-0.367105
-0.164688
-0.0498451
-0.0524257
-0.182991
-0.429923
-0.758487
-1.11547
-1.4398
-1.67845
-1.79684
-1.78323
-1.64744
-1.41772
-1.13578
-0.850828
-0.611876
-0.460014
-0.422748
-0.509412
-0.708455
-0.986596
-1.29323
-1.57047
-1.76813
-1.85352
-1.81555
-1.66353
-1.42412
-1.13671
-0.847788
-0.603626
-0.443029
-0.391963
-0.459201
-0.633746
-0.883997
-1.1619
-1.41248
-1.58801
-1.65736
-1.6099
-1.45435
-1.21603
-0.932359
-0.647581
-0.405807
-0.24408
-0.187189
-0.243422
-0.401922
-0.631688
-0.885287
-1.10774
-1.24986
-1.27698
-1.1724
-0.936159
-0.582472
-0.136447
0.368678
0.893847
1.39454
1.81997
2.11688
2.23955
2.16302
5.45989
4.81796
4.11957
3.47355
2.97142
2.6612
2.53759
2.55166
2.62395
2.66615
2.60101
2.37206
1.95333
1.35443
0.628799
-0.13179
-0.814416
-1.32667
-1.61366
-1.66297
-1.49622
-1.16399
-0.737313
-0.300815
0.0614734
0.280125
0.306847
0.122303
-0.259604
-0.784185
-1.36121
-1.88114
-2.25436
-2.42711
-2.38606
-2.15032
-1.76649
-1.30068
-0.831935
-0.438802
-0.186055
-0.118511
-0.253647
-0.577606
-1.03814
-1.54962
-2.00842
-2.3299
-2.46335
-2.39631
-2.14684
-1.75901
-1.29526
-0.830227
-0.438125
-0.18015
-0.0986643
-0.210189
-0.501589
-0.923328
-1.39418
-1.81576
-2.10762
-2.22144
-2.14522
-1.89596
-1.51543
-1.06299
-0.609748
-0.226557
0.0279406
0.112923
0.012187
-0.261966
-0.661956
-1.10901
-1.50675
-1.77449
-1.86046
-1.74509
-1.43322
-0.949251
-0.330125
0.378148
1.1257
1.85705
2.49951
2.96527
3.1699
3.06086
6.51267
5.56374
4.48551
3.51086
2.81098
2.46804
2.4583
2.69066
3.01868
3.28729
3.37371
3.18388
2.67219
1.83657
0.757869
-0.409249
-1.44126
-2.18301
-2.55236
-2.54763
-2.20767
-1.61483
-0.875959
-0.127664
0.494471
0.886475
0.970341
0.711797
0.116166
-0.734363
-1.68917
-2.53375
-3.11897
-3.36522
-3.26927
-2.86644
-2.23331
-1.46982
-0.704156
-0.0635724
0.354596
0.477585
0.274024
-0.250098
-1.0163
-1.88186
-2.64413
-3.16244
-3.36191
-3.23974
-2.82939
-2.20324
-1.45564
-0.707649
-0.0794805
0.336873
0.472569
0.297843
-0.181744
-0.891932
-1.69741
-2.40585
-2.88358
-3.05921
-2.92971
-2.52658
-1.91838
-1.19477
-0.471039
0.138013
0.544064
0.68047
0.517517
0.0591959
-0.624446
-1.40376
-2.09295
-2.56088
-2.73388
-2.60073
-2.17811
-1.51065
-0.652174
0.331062
1.38087
2.44757
3.43348
4.18969
4.55195
4.40074
7.92685
6.49551
4.70148
3.15182
2.13687
1.79537
2.03044
2.69195
3.49896
4.1708
4.54422
4.4592
3.85751
2.66874
1.01427
-0.881258
-2.48607
-3.5756
-4.02975
-3.915
-3.28329
-2.27595
-1.02818
0.227155
1.25886
1.93654
2.1269
1.7867
0.858989
-0.53438
-2.17586
-3.55985
-4.47167
-4.79611
-4.59439
-3.91418
-2.88785
-1.6421
-0.39626
0.631934
1.32031
1.54391
1.2633
0.426004
-0.851387
-2.36286
-3.63114
-4.45408
-4.72366
-4.49813
-3.82271
-2.82236
-1.6166
-0.412522
0.584177
1.25804
1.49081
1.24488
0.470168
-0.723318
-2.14037
-3.32818
-4.09456
-4.33635
-4.10823
-3.45251
-2.48753
-1.32673
-0.167186
0.794903
1.44848
1.67909
1.44818
0.704821
-0.449165
-1.82829
-2.99778
-3.77197
-4.04814
-3.87321
-3.27555
-2.34714
-1.15387
0.188117
1.61171
3.15443
4.69823
5.9814
6.6734
6.4841
10.0953
7.95187
4.56379
2.0188
0.492364
0.292869
0.98885
2.48386
4.17394
5.48408
6.37489
6.47855
5.88823
4.17154
1.6178
-1.7719
-4.27288
-5.88313
-6.32633
-6.02682
-4.89981
-3.28329
-1.19127
0.903999
2.53303
3.68835
4.04748
3.7076
2.27236
0.0228809
-3.03334
-5.26585
-6.67021
-6.98469
-6.60851
-5.46034
-3.85835
-1.81452
0.225051
1.81679
2.95527
3.33631
3.05421
1.73584
-0.349403
-3.19403
-5.25945
-6.54256
-6.79837
-6.40435
-5.28394
-3.73726
-1.77512
0.181227
1.71271
2.8144
3.19838
2.95334
1.72512
-0.232765
-2.91346
-4.85735
-6.06095
-6.29016
-5.90248
-4.82377
-3.33866
-1.4569
0.421008
1.89606
2.96195
3.34232
3.11676
1.94175
0.0503098
-2.55468
-4.47182
-5.70022
-6.012
-5.7544
-4.84928
-3.56501
-1.86973
-0.0723294
1.67099
3.85975
6.33827
8.6244
10.0639
9.92637
13.9418
11.2245
3.22123
-0.592912
-3.06962
-2.50086
-1.20369
1.9948
5.39608
7.40118
9.33908
9.49726
9.54093
6.87967
3.42514
-3.94228
-7.34235
-9.87122
-9.69241
-9.33022
-7.22123
-4.97535
-1.35906
2.25224
4.48932
6.5867
6.97463
7.2058
4.85824
1.74185
-5.07696
-8.16439
-10.4382
-10.1678
-9.7343
-7.66001
-5.46511
-1.98081
1.49124
3.65431
5.68097
6.08361
6.33737
4.14996
1.2461
-5.14727
-8.0143
-10.1104
-9.80881
-9.3566
-7.35899
-5.25043
-1.92529
1.38677
3.46014
5.40427
5.81174
6.07758
4.0308
1.29863
-4.74755
-7.45252
-9.43045
-9.13231
-8.6918
-6.78026
-4.76096
-1.58151
1.58931
3.58641
5.46256
5.87811
6.15254
4.21035
1.57729
-4.27156
-6.93765
-8.94842
-8.79576
-8.56801
-6.969
-5.37472
-2.73266
-0.254897
1.08885
4.14779
8.25538
12.4865
15.7254
16.1966
21.3277
22.2551
-4.02164
-5.10823
-11.0187
-6.34448
-6.13445
1.21363
8.62867
9.41504
14.8661
12.6809
17.0887
10.7301
10.867
-11.8256
-11.6663
-17.7584
-13.3225
-15.149
-9.73976
-8.64081
-1.51967
5.57935
6.64678
11.9466
10.1275
14.4174
8.55126
8.79227
-12.4938
-12.2345
-17.8698
-13.5859
-15.2228
-10.0334
-8.92861
-2.12944
4.64237
5.68827
10.7452
9.04532
13.1358
7.59579
7.86648
-12.1785
-11.8793
-17.1307
-13.0362
-14.5342
-9.5938
-8.51548
-2.05662
4.37605
5.39367
10.2069
8.62904
12.532
7.32341
7.60221
-11.393
-11.0946
-16.0775
-12.1795
-13.5994
-8.89194
-7.85386
-1.69369
4.44778
5.45091
10.0664
8.61713
12.3802
7.47379
7.73502
-10.5716
-10.3471
-15.312
-11.6877
-13.3562
-9.08192
-8.69322
-3.35899
1.19552
-1.96318
2.9258
9.99456
17.7775
25.3724
29.6229
32.0455
72.4771
-47.5226
-2.66223
-34.204
-3.7584
-21.3438
0.336107
21.4066
4.71171
31.3894
6.37033
40.1403
5.22712
51.1835
-52.6158
-6.98832
-40.8058
-7.93477
-31.3874
-6.05142
-20.9782
-1.64842
17.592
2.70957
27.5579
4.48344
36.2535
3.45002
46.8417
-50.9357
-7.81666
-39.585
-8.47795
-30.5412
-6.52474
-20.5921
-2.2387
16.0388
1.94629
25.5394
3.66885
33.8021
2.67424
43.7414
-48.5051
-7.75165
-37.6091
-8.21036
-28.9832
-6.26718
-19.5285
-2.15025
15.163
1.86151
24.2128
3.55391
32.1071
2.71419
41.6603
-45.8211
-7.13185
-35.513
-7.5688
-27.3304
-5.71972
-18.3226
-1.77894
14.7055
2.11353
23.4037
3.85026
31.0921
3.29578
40.6305
-43.5566
-6.28397
-34.0438
-6.95787
-26.7021
-5.59959
-19.1333
-2.86254
13.753
-16.6039
-1.43508
10.7053
23.3392
39.8355
66.3755
28831.3
28794.5
28757.6
28720.7
28683.8
28646.8
28609.9
28573.1
28536.4
28499.8
28463.3
28426.9
28390.6
28354.3
28318.1
0.179172
0.140128
0.0898819
0.0341817
-0.021125
-0.0708851
-0.111152
-0.139392
-0.154449
-0.156347
-0.146035
-0.125119
-0.0956438
-0.0599183
-0.0203968
0.316222
0.245956
0.15586
0.0565562
-0.0413289
-0.12864
-0.198566
-0.246925
-0.272001
-0.274121
-0.255155
-0.218031
-0.166345
-0.104079
-0.0354071
0.481888
0.371613
0.231044
0.0775123
-0.0721073
-0.203779
-0.307546
-0.377742
-0.412508
-0.412983
-0.382434
-0.325504
-0.247628
-0.154644
-0.0525602
0.692446
0.527564
0.319192
0.0945561
-0.120834
-0.306822
-0.450098
-0.543989
-0.587307
-0.582867
-0.536094
-0.453923
-0.344018
-0.214309
-0.0727501
0.97002
0.727006
0.423604
0.102354
-0.198961
-0.452579
-0.642033
-0.760808
-0.809864
-0.795082
-0.725154
-0.610075
-0.460213
-0.285824
-0.0968813
1.34606
0.986836
0.545863
0.0902179
-0.324785
-0.6625
-0.904649
-1.04735
-1.09626
-1.06245
-0.959364
-0.801009
-0.600936
-0.371891
-0.125833
1.86691
1.32842
0.682796
0.03744
-0.527898
-0.967986
-1.26672
-1.42767
-1.46538
-1.39908
-1.24885
-1.03366
-0.770629
-0.474973
-0.16039
2.60325
1.77712
0.819462
-0.0953548
-0.856262
-1.41483
-1.76657
-1.93123
-1.93851
-1.81964
-1.60329
-1.31416
-0.972947
-0.59698
-0.201146
3.66648
2.35736
0.913286
-0.382059
-1.38697
-2.0685
-2.45349
-2.59216
-2.53779
-2.33767
-2.03051
-1.64675
-1.21001
-0.738855
-0.248361
5.23782
3.07257
0.858377
-0.9592
-2.24104
-3.01872
-3.38673
-3.44615
-3.28281
-2.96274
-2.53434
-2.03231
-1.48151
-0.900064
-0.301805
7.61485
3.83671
0.406853
-2.07207
-3.59929
-4.37859
-4.62857
-4.5229
-4.18457
-3.69616
-3.11179
-2.46664
-1.78365
-1.07809
-0.360602
11.2483
4.25256
-0.995599
-4.13665
-5.70547
-6.26777
-6.22605
-5.83232
-5.2364
-4.52553
-3.75002
-2.9388
-2.10836
-1.26803
-0.423117
16.4796
2.9208
-4.50516
-7.77347
-8.81815
-8.76097
-8.17554
-7.34391
-6.40321
-5.41952
-4.42397
-3.43018
-2.44296
-1.46256
-0.486952
20.9315
-4.5438
-12.1724
-13.6339
-13.0327
-11.7824
-10.3712
-8.96459
-7.61299
-6.32538
-5.09614
-3.91501
-2.77074
-1.65229
-0.549084
0.56284
1.6964
2.85412
4.05383
5.31626
6.6668
8.13804
9.77357
11.6336
13.8028
16.3973
19.5538
23.3026
26.816
24.2356
0.57326
1.72802
2.90807
4.13225
5.42278
6.80747
8.32322
10.0218
11.9801
14.3203
17.2521
21.1758
26.9787
37.0773
59.8307
0.577957
1.74207
2.93136
4.16458
5.46389
6.85713
8.38145
10.0896
12.0613
14.4267
17.4168
21.4874
27.6598
38.5822
62.305
0.57696
1.73865
2.92413
4.15101
5.43978
6.81577
8.31204
9.97431
11.8692
14.0995
16.8308
20.3343
25.0121
31.0896
35.8953
0.570567
1.71869
2.88816
4.09446
5.3551
6.69085
8.12736
9.69746
11.4443
13.4247
15.7095
18.3669
21.3803
24.3699
26.0433
0.559316
1.68392
2.82662
4.00016
5.21825
6.49596
7.8499
9.29787
10.8571
12.5385
14.3302
16.1561
17.7742
18.5486
16.9088
0.543919
1.63656
2.74366
3.87491
5.03999
6.24813
7.50711
8.82099
10.1851
11.5754
12.9269
14.0903
14.759
14.4054
12.6129
0.525185
1.57917
2.64392
3.72617
4.83182
5.96497
7.1262
8.30924
9.49482
10.6393
11.654
12.3676
12.455
11.2619
7.08227
0.503935
1.51431
2.53202
3.56118
4.60454
5.66231
6.73013
7.7957
8.83309
9.79335
10.5901
11.0796
11.0404
10.1924
8.48563
0.480942
1.44436
2.41215
3.38631
4.36726
5.35266
6.33561
7.30173
8.22489
9.06091
9.73968
10.1585
10.1876
9.71923
8.82838
0.456881
1.37138
2.28786
3.20672
4.12687
5.04472
5.95275
6.83758
7.67721
8.43764
9.06968
9.50814
9.68034
9.53941
9.15317
0.432303
1.29703
2.1619
3.02623
3.88808
4.74357
5.586
6.40482
7.18449
7.90354
8.53411
9.04262
9.39045
9.52994
9.37801
0.407641
1.22258
2.03632
2.84746
3.6537
4.45149
5.23564
5.99923
6.73387
7.43085
8.0833
8.68866
9.24523
9.72282
9.9779
0.383216
1.14896
1.91253
2.67207
3.4252
4.16887
4.89955
5.61373
6.3094
6.98906
7.66517
8.36857
9.15484
10.0702
10.8466
0.359267
1.07686
1.79154
2.50114
3.20325
3.89528
4.57491
5.24106
5.89604
6.54974
7.22808
7.99092
8.97479
10.5141
13.5524
0.335974
1.00677
1.67407
2.33542
2.9883
3.6303
4.25962
4.87615
5.48357
6.09329
6.73228
7.45977
8.409
9.91701
13.0242
0.313481
0.939112
1.56072
2.17557
2.7809
3.37411
3.9532
4.51757
5.06949
5.61649
6.17503
6.77462
7.45516
8.20938
8.57595
0.291912
0.874244
1.45208
2.02234
2.58192
3.12774
3.657
4.16763
4.65881
5.13169
5.58927
6.03325
6.45014
6.77095
6.81948
0.271378
0.812501
1.34869
1.87653
2.39249
2.89285
3.37375
3.83119
4.26085
4.6575
5.01296
5.31067
5.51183
5.5216
5.09437
0.25198
0.754187
1.25109
1.73897
2.21389
2.67147
3.1068
3.51404
3.88582
4.2119
4.47675
4.65515
4.70643
4.57573
4.25514
0.233799
0.699559
1.15975
1.61043
2.04732
2.46555
2.85935
3.22153
3.54251
3.80882
4.00057
4.08789
4.02742
3.7617
3.21027
0.216892
0.648801
1.07501
1.49147
1.89371
2.27659
2.63387
2.95761
3.23717
3.45753
3.59691
3.62327
3.49093
3.1461
2.60804
0.201289
0.602002
0.997044
1.38238
1.75355
2.1054
2.43167
2.7244
2.97293
3.16247
3.27173
3.26886
3.102
2.66468
1.62131
0.186982
0.559142
0.925819
1.28313
1.62681
1.95198
2.25278
2.52187
2.74966
2.92317
3.02443
3.02834
2.90089
2.60413
2.16186
0.173929
0.520088
0.861098
1.19335
1.51293
1.81548
2.0959
2.34802
2.56409
2.73406
2.84472
2.87906
2.81735
2.64463
2.37077
0.162057
0.484612
0.802462
1.11236
1.41089
1.69435
1.95868
2.19921
2.41053
2.58613
2.71801
2.79648
2.81089
2.75537
2.65518
0.151266
0.452403
0.749349
1.03927
1.31931
1.58653
1.83797
2.07069
2.28179
2.46855
2.6284
2.75838
2.85302
2.89711
2.8431
0.141443
0.423107
0.701111
0.973056
1.23662
1.48965
1.73028
1.95718
2.16995
2.36967
2.55952
2.74485
2.93024
3.107
3.22756
0.132471
0.396352
0.657082
0.912659
1.16126
1.40139
1.63212
1.85349
2.06719
2.27765
2.49378
2.73127
3.01345
3.35592
3.64587
0.124234
0.371786
0.616633
0.857106
1.09178
1.31966
1.54046
1.75512
1.96667
2.18169
2.4132
2.68667
3.05479
3.6413
4.79664
0.116632
0.3491
0.579222
0.805582
1.02702
1.24284
1.45305
1.65893
1.86375
2.07429
2.30349
2.57633
2.94448
3.53168
4.70451
0.109583
0.328043
0.544424
0.757475
0.966178
1.16991
1.36867
1.56346
1.75686
1.95392
2.16348
2.39981
2.68205
3.01536
3.25368
0.103025
0.308431
0.511939
0.712387
0.908787
1.10043
1.28704
1.46896
1.64744
1.82486
2.00488
2.19141
2.38416
2.56502
2.67936
0.0969128
0.290138
0.48158
0.67011
0.854698
1.03445
1.20867
1.37686
1.53874
1.69401
1.84176
1.97868
2.09454
2.16087
2.09778
0.0912181
0.273084
0.453243
0.630573
0.803967
0.97232
1.13448
1.28915
1.43463
1.56839
1.68617
1.78057
1.83932
1.84659
1.80664
0.0859196
0.257215
0.42687
0.593768
0.756737
0.914487
1.0655
1.20782
1.33867
1.45387
1.54682
1.60721
1.61984
1.5651
1.41765
0.0809993
0.242484
0.402413
0.559694
0.713131
0.861334
1.00256
1.13444
1.25358
1.35479
1.43008
1.46703
1.44715
1.348
1.17987
0.0764358
0.228834
0.379795
0.528289
0.673161
0.813027
0.946101
1.06993
1.18093
1.27373
1.33997
1.36631
1.32951
1.1788
0.748687
0.0722009
0.216183
0.358889
0.499399
0.636669
0.769437
0.896068
1.01431
1.12093
1.2111
1.27757
1.30944
1.29098
1.20362
1.05866
0.0682572
0.204419
0.339509
0.472759
0.603303
0.730109
0.851859
0.966777
1.07235
1.16493
1.23918
1.28754
1.30029
1.26844
1.19075
0.0645583
0.1934
0.321408
0.447998
0.572535
0.694292
0.812396
0.925731
1.0328
1.13149
1.21878
1.29036
1.34059
1.36508
1.37516
0.0610504
0.182959
0.304291
0.424664
0.543697
0.661013
0.776245
0.889038
0.999058
1.10597
1.20931
1.30799
1.39877
1.47173
1.49631
0.0576761
0.172919
0.287841
0.402261
0.516051
0.629183
0.741789
0.854272
0.967478
1.08293
1.20306
1.33112
1.46932
1.61199
1.73252
0.054378
0.163101
0.27174
0.380294
0.488864
0.597718
0.707417
0.819006
0.934342
1.05664
1.19132
1.34719
1.53677
1.76763
1.97547
0.051103
0.153342
0.255697
0.358318
0.461479
0.565667
0.671734
0.781138
0.896373
1.02174
1.16486
1.33987
1.57554
1.93927
2.62321
0.0478057
0.143501
0.23947
0.335968
0.43338
0.532312
0.633734
0.739222
0.851368
0.974526
1.11625
1.29044
1.52537
1.88854
2.57987
0.0444499
0.133471
0.222875
0.312983
0.404228
0.497229
0.592911
0.692682
0.798717
0.914417
1.0451
1.19883
1.38616
1.60991
1.79038
0.0410099
0.123176
0.205793
0.28921
0.373855
0.460284
0.54925
0.641792
0.739355
0.843907
0.957935
1.08388
1.22167
1.36135
1.47369
0.0374685
0.112566
0.188154
0.264583
0.342243
0.421579
0.503107
0.587417
0.675141
0.766818
0.862499
0.960711
1.05586
1.13178
1.14263
0.0338155
0.101617
0.169932
0.239103
0.309469
0.381352
0.455032
0.530671
0.608183
0.686949
0.765307
0.839667
0.903413
0.947392
0.973276
0.0300439
0.0903122
0.151116
0.212793
0.27564
0.339879
0.405597
0.472627
0.540354
0.607366
0.670893
0.725997
0.764694
0.775573
0.740869
0.026147
0.078635
0.131695
0.185671
0.240845
0.297381
0.355251
0.4141
0.473022
0.530203
0.58233
0.623721
0.645295
0.63541
0.598889
0.0221154
0.0665608
0.111637
0.157719
0.205104
0.253956
0.304226
0.355522
0.406902
0.45655
0.501223
0.535208
0.547743
0.513747
0.348876
0.017935
0.0540488
0.0908807
0.128862
0.168344
0.209547
0.252491
0.296886
0.341986
0.386354
0.427539
0.461592
0.482507
0.482971
0.468919
0.0135852
0.0410382
0.0693268
0.0989635
0.130389
0.16393
0.199747
0.237763
0.277578
0.318369
0.35881
0.397101
0.431474
0.462276
0.49801
0.0090391
0.0274477
0.0468368
0.0678234
0.0909656
0.116734
0.145478
0.177392
0.212493
0.250629
0.291574
0.335334
0.382923
0.438158
0.511128
0.00426363
0.0131765
0.023238
0.0351866
0.049719
0.0674718
0.0890074
0.114809
0.145302
0.180939
0.222384
0.270908
0.329063
0.401727
0.497692
-0.000779537
-0.00189228
-0.00167117
0.000756085
0.0062365
0.0155836
0.0295755
0.0489678
0.0745414
0.107216
0.148281
0.199795
0.265129
0.349116
0.455012
-0.00613258
-0.0178871
-0.028112
-0.0357942
-0.0399306
-0.0395293
-0.0336059
-0.0211647
-0.00114968
0.0276682
0.0669222
0.119088
0.188244
0.281292
0.410483
-0.0118401
-0.0349441
-0.0563183
-0.0748065
-0.0892483
-0.0984764
-0.101313
-0.0965557
-0.0829527
-0.0591257
-0.0234015
0.0265839
0.0947681
0.188372
0.318435
-0.0179478
-0.0532021
-0.0865283
-0.116628
-0.142186
-0.161862
-0.174291
-0.178089
-0.171854
-0.15418
-0.123627
-0.0785564
-0.0163581
0.0701368
0.21162
-0.0245009
-0.0727988
-0.118978
-0.161604
-0.199208
-0.230278
-0.253264
-0.266588
-0.268699
-0.258177
-0.233933
-0.195589
-0.144355
-0.086282
-0.0503857
-0.0315426
-0.0938665
-0.153896
-0.210068
-0.260766
-0.304309
-0.338945
-0.362873
-0.374316
-0.371701
-0.354028
-0.321572
-0.277098
-0.227298
-0.178846
-0.0391128
-0.116527
-0.191493
-0.262331
-0.327292
-0.384524
-0.432061
-0.467826
-0.489694
-0.495682
-0.484389
-0.455898
-0.413538
-0.367375
-0.34346
-0.0472465
-0.140888
-0.231956
-0.318677
-0.399183
-0.471471
-0.533352
-0.58243
-0.616097
-0.631662
-0.626692
-0.599853
-0.552616
-0.492001
-0.430244
-0.0559716
-0.167035
-0.275437
-0.379338
-0.476783
-0.565642
-0.643535
-0.707733
-0.755072
-0.781902
-0.784182
-0.75797
-0.700985
-0.617419
-0.533452
-0.0653079
-0.195029
-0.322045
-0.444482
-0.560343
-0.66743
-0.763227
-0.844743
-0.908288
-0.949188
-0.961456
-0.937457
-0.867811
-0.743113
-0.570542
-0.0752655
-0.224901
-0.371833
-0.514193
-0.649997
-0.777056
-0.892836
-0.994233
-1.07723
-1.13636
-1.16391
-1.14864
-1.07286
-0.902052
-0.5315
-0.0858448
-0.256651
-0.424795
-0.588455
-0.745722
-0.894515
-1.03243
-1.1565
-1.26274
-1.34545
-1.39611
-1.40185
-1.34391
-1.1997
-0.973325
-0.0970376
-0.29025
-0.48087
-0.667157
-0.847333
-1.01952
-1.18164
-1.33115
-1.46459
-1.5768
-1.6595
-1.69927
-1.67487
-1.5544
-1.2822
-0.10883
-0.325648
-0.539954
-0.750103
-0.954487
-1.15153
-1.33962
-1.51696
-1.68119
-1.82863
-1.95271
-2.04125
-2.07256
-2.01446
-1.85531
-0.121206
-0.362792
-0.601925
-0.837052
-1.06674
-1.28975
-1.50505
-1.71186
-1.90945
-2.09669
-2.2706
-2.42299
-2.53232
-2.5447
-2.32089
-0.134155
-0.401638
-0.666679
-0.927775
-1.18364
-1.43332
-1.67639
-1.91316
-2.14491
-2.374
-2.60344
-2.83462
-3.0594
-3.23895
-3.28068
-0.147677
-0.442179
-0.734171
-1.02213
-1.30482
-1.58147
-1.85209
-2.11794
-2.38221
-2.65106
-2.93506
-3.25069
-3.61789
-4.02892
-4.23348
-0.16179
-0.484465
-0.804462
-1.12015
-1.43021
-1.73382
-2.03112
-2.32383
-2.61633
-2.91759
-3.24473
-3.63093
-4.14596
-4.96227
-6.61573
-0.176533
-0.528609
-0.877742
-1.22209
-1.56006
-1.89054
-2.21333
-2.52985
-2.84437
-3.16615
-3.51339
-3.92172
-4.46478
-5.31427
-6.94327
-0.191964
-0.574796
-0.954344
-1.32846
-1.69512
-2.0526
-2.39989
-2.73726
-3.06738
-3.39701
-3.73963
-4.11894
-4.57081
-5.12495
-5.654
-0.208157
-0.623262
-1.03472
-1.44001
-1.83654
-2.22175
-2.59334
-2.9497
-3.29073
-3.61887
-3.94038
-4.26578
-4.60581
-4.95305
-5.23473
-0.225187
-0.674264
-1.11937
-1.55763
-1.98582
-2.40036
-2.79735
-3.1728
-3.52302
-3.84531
-4.13844
-4.40245
-4.63582
-4.82667
-4.93135
-0.243119
-0.728021
-1.20879
-1.68225
-2.14459
-2.59116
-3.01633
-3.4134
-3.77472
-4.09201
-4.35672
-4.56039
-4.69534
-4.76013
-4.78715
-0.261977
-0.784648
-1.30328
-1.81458
-2.3143
-2.79683
-3.25483
-3.67882
-4.05699
-4.37522
-4.6174
-4.76605
-4.80359
-4.71982
-4.54791
-0.281728
-0.844076
-1.40287
-1.95496
-2.49594
-3.01954
-3.51694
-3.97606
-4.38089
-4.71124
-4.94303
-5.04885
-4.9961
-4.74071
-4.28755
-0.302246
-0.905971
-1.50712
-2.10306
-2.68964
-3.26043
-3.80564
-4.31101
-4.75652
-5.1157
-5.35615
-5.44178
-5.32932
-4.89894
-3.44918
-0.323299
-0.969653
-1.61499
-2.25765
-2.89432
-3.51908
-4.12202
-4.68751
-5.19209
-5.60261
-5.87677
-5.97228
-5.88332
-5.76506
-6.39456
-0.344521
-1.03404
-1.72472
-2.4164
-3.10728
-3.79288
-4.4644
-5.10632
-5.69299
-6.18423
-6.52144
-6.63089
-6.45766
-6.1119
-6.42808
-0.365411
-1.09762
-1.83376
-2.57569
-3.3239
-4.07646
-4.82732
-5.56349
-6.26016
-6.87281
-7.32427
-7.48581
-7.15182
-5.99907
-3.37872
-0.385341
-1.15846
-1.93878
-2.73063
-3.53751
-4.36121
-5.20046
-6.04808
-6.8857
-7.67331
-8.32844
-8.68484
-8.41457
-6.90539
-3.20234
-0.403577
-1.21431
-2.03578
-2.87515
-3.73942
-4.63518
-5.56779
-6.53961
-7.54596
-8.56582
-9.54005
-10.3191
-10.5377
-9.33524
-4.90208
-0.419328
-1.2627
-2.12037
-3.00236
-3.91946
-4.88355
-5.90789
-7.00716
-8.19682
-9.49002
-10.8872
-12.3424
-13.6476
-14.0086
-10.3317
-0.431804
-1.30116
-2.18806
-3.10519
-4.06687
-5.09009
-6.19595
-7.41195
-8.77579
-10.342
-12.1942
-14.4699
-17.4132
-21.4862
-27.5574
-11.2568
-25.7402
-24.3266
-20.7737
-17.474
-14.7083
-12.3927
-10.4116
-8.67285
-7.10965
-5.67376
-4.32967
-3.05026
-1.81381
-0.601935
-111.02
-57.8726
-37.3407
-27.2005
-21.1562
-17.0477
-13.9863
-11.5479
-9.50578
-7.72748
-6.13006
-4.65806
-3.27206
-1.94214
-0.643957
-123.439
-67.3556
-43.1384
-30.7829
-23.4942
-18.6599
-15.1473
-12.4092
-10.1555
-8.21971
-6.49925
-4.92672
-3.45491
-2.04845
-0.678845
-67.8011
-54.7097
-40.6988
-30.8467
-24.1278
-19.3543
-15.7703
-12.934
-10.5844
-8.56242
-6.76573
-5.12544
-3.59237
-2.12917
-0.70546
-47.854
-42.7025
-35.3709
-28.7348
-23.4104
-19.2225
-15.8743
-13.1206
-10.786
-8.74864
-6.92358
-5.24971
-3.6813
-2.18245
-0.723197
-30.3789
-32.2091
-29.5602
-25.712
-21.9038
-18.5076
-15.5654
-13.0164
-10.781
-8.78743
-6.97645
-5.30073
-3.72194
-2.20824
-0.732003
-22.4041
-24.8263
-24.5823
-22.6613
-20.111
-17.4775
-14.9835
-12.6943
-10.6082
-8.6994
-6.9354
-5.28443
-3.71738
-2.20801
-0.732315
-12.4424
-19.2949
-20.7689
-20.0477
-18.376
-16.3504
-14.2593
-12.231
-10.3124
-8.5108
-6.81585
-5.20985
-3.67277
-2.1844
-0.724941
-15.0033
-17.4986
-18.4801
-18.0942
-16.8867
-15.2689
-13.4916
-11.6917
-9.93522
-8.24815
-6.63454
-5.08739
-3.59434
-2.14071
-0.710916
-15.6526
-16.7535
-17.1408
-16.7112
-15.6824
-14.298
-12.7396
-11.1221
-9.50989
-7.93448
-6.40709
-4.92736
-3.48853
-2.08047
-0.691362
-16.2607
-16.5039
-16.3688