/*--------------------------------*- C++ -*----------------------------------*\
| =========                 |                                                 |
| \\      /  F ield         | OpenFOAM: The Open Source CFD Toolbox           |
|  \\    /   O peration     | Version:  5.x                                   |
|   \\  /    A nd           | Web:      www.OpenFOAM.org                      |
|    \\/     M anipulation  |                                                 |
\*---------------------------------------------------------------------------*/
FoamFile
{
    version     2.0;
    format      ascii;
    class       volScalarField;
    location    "3";
    object      gradTy;
}
// * * * * * * * * * * * * * * * * * * * * * * * * * * * * * * * * * * * * * //

dimensions      [0 -1 0 1 0 0 0];

internalField   nonuniform List<scalar> 
6300
(
32285
32255.1
32225
32194.8
32164.3
32133.6
32102.4
32070.9
32038.8
32006.3
31973.2
31939.6
31905.3
31870.5
31835
0.0521141
0.155856
0.258117
0.357807
0.453684
0.544314
0.628055
0.703073
0.767408
0.819088
0.856315
0.877702
0.882546
0.871093
0.844723
0.0873778
0.261366
0.432998
0.600514
0.761888
0.914748
1.05634
1.18353
1.29292
1.38103
1.44459
1.48099
1.48877
1.46813
1.42135
0.123412
0.369242
0.612007
0.849381
1.07863
1.29648
1.49905
1.68181
1.83975
1.96755
2.06007
2.11295
2.12346
2.09135
2.01972
0.160439
0.480184
0.796409
1.10638
1.40677
1.6935
1.96156
2.20494
2.41673
2.58937
2.71519
2.7873
2.80077
2.75412
2.65084
0.1986
0.594646
0.987071
1.37295
1.74858
2.1092
2.44875
2.75966
3.03286
3.258
3.42404
3.5203
3.53821
3.47352
3.32908
0.237917
0.712729
1.18428
1.64977
2.10539
2.54599
2.96458
3.35209
3.69706
3.98576
4.20266
4.33168
4.35824
4.27268
4.07467
0.278256
0.834071
1.38757
1.93645
2.47725
3.00477
3.51151
3.98706
4.41754
4.78531
5.0692
5.2455
5.29043
5.18429
4.91833
0.319294
0.95773
1.59547
2.23123
2.86238
3.48434
4.08965
4.66711
5.20073
5.66877
6.04331
6.29072
6.37368
6.2557
5.9095
0.360484
1.08209
1.80536
2.5306
3.25673
3.98055
4.69564
5.39103
6.04951
6.64573
7.14458
7.50037
7.65781
7.55528
7.13085
0.401038
1.20478
2.01329
2.82908
3.65341
4.4855
5.32135
6.15188
6.96055
7.72006
8.38889
8.90832
9.20183
9.17659
8.72046
0.439933
1.32268
2.21396
3.11903
4.04232
4.98672
5.95237
6.93462
7.92075
8.88508
9.78255
10.5421
11.0644
11.2286
10.8902
0.475946
1.43206
2.40085
3.39077
4.41012
5.4667
6.56682
7.71349
8.90274
10.117
11.314
12.413
13.2851
13.7835
13.8556
0.507738
1.52876
2.56662
3.63308
4.74073
5.90314
7.13473
8.44981
9.85976
11.3659
12.9436
14.5105
15.8796
16.766
17.277
0.533979
1.60865
2.70378
3.8342
5.01657
6.27041
7.61916
9.09128
10.7206
12.5433
14.5839
16.806
18.9574
20.1271
17.779
31802
31771.7
31741
31709.9
31678.5
31646.8
31614.9
31582.7
31550.2
31517.6
31484.7
31451.7
31418.5
31385.1
31351.7
31318.2
31284.6
31250.9
31217.2
31183.5
31149.8
31116.1
31082.3
31048.6
31014.9
30981.1
30947.4
30913.6
30879.9
30846.1
30812.4
30778.7
30745
30711.4
30677.8
30644.3
30610.8
30577.4
30543.9
30510.6
30477.2
30443.8
30410.5
30377.2
30344
30310.7
30277.5
30244.4
30211.3
30178.3
30145.3
30112.4
30079.5
30046.7
30013.9
29981.1
29948.4
29915.7
29883.1
29850.5
29817.9
29785.4
29752.9
29720.5
29688.2
29656
29623.8
29591.6
29559.5
29527.5
29495.5
29463.6
29431.7
29399.8
29368
29336.2
29304.5
29272.8
29241.2
29209.6
29178.1
29146.6
29115.1
29083.5
29052
29020.3
28988.6
28956.8
28925
28893
0.809186
0.770445
0.727464
0.682378
0.636976
0.592459
0.54932
0.50736
0.465858
0.423841
0.38042
0.335092
0.287969
0.239873
0.192272
0.147072
0.106304
0.0717597
0.0446638
0.0254381
0.0136051
0.00784431
0.00618804
0.00632362
0.00595084
0.00313813
-0.00337992
-0.0140129
-0.0282663
-0.0448479
-0.0619139
-0.0774133
-0.0894686
-0.0967196
-0.0985693
-0.0952898
-0.0879762
-0.0783607
-0.0685212
-0.0605347
-0.0561297
-0.0563962
-0.0615999
-0.0711348
-0.0836266
-0.0971735
-0.109683
-0.119245
-0.124465
-0.124709
-0.120202
-0.111981
-0.101717
-0.091422
-0.083111
-0.0784598
-0.0785193
-0.0835328
-0.0928891
-0.105223
-0.118651
-0.131101
-0.140676
-0.145979
-0.146354
-0.141976
-0.133806
-0.123408
-0.112663
-0.103427
-0.0971945
-0.0948063
-0.0962691
-0.100701
-0.106428
-0.111217
-0.112611
-0.108306
-0.0965178
-0.0762712
-0.0475818
-0.0115143
0.0298814
0.0737438
0.116662
0.155012
0.185329
0.204706
0.21114
0.203795
1.35862
1.29053
1.21548
1.13748
1.05988
0.984876
0.913266
0.844454
0.776797
0.708158
0.63656
0.56081
0.480947
0.398435
0.316054
0.237483
0.166676
0.107144
0.0613011
0.0300037
0.0123669
0.00587826
0.00677916
0.010647
0.0130823
0.0103935
0.000170131
-0.0183462
-0.044163
-0.0747355
-0.106443
-0.135265
-0.157525
-0.170566
-0.173224
-0.166027
-0.151093
-0.131773
-0.112081
-0.0960302
-0.086962
-0.0869882
-0.0966262
-0.114702
-0.138542
-0.164443
-0.188327
-0.206474
-0.216184
-0.216232
-0.207068
-0.190714
-0.170407
-0.150045
-0.133528
-0.124101
-0.123808
-0.133128
-0.150882
-0.17442
-0.200082
-0.223836
-0.241998
-0.251873
-0.252208
-0.243373
-0.227263
-0.206936
-0.186067
-0.168292
-0.156555
-0.152554
-0.15638
-0.166412
-0.17949
-0.191361
-0.197326
-0.192968
-0.174852
-0.14106
-0.0915278
-0.0281308
0.0454392
0.123993
0.201315
0.27076
0.325937
0.361437
0.373509
0.360582
1.92404
1.82073
1.70784
1.59209
1.47911
1.3725
1.27327
1.17998
1.08925
0.996836
0.898787
0.792563
0.677851
0.556927
0.43447
0.316837
0.210938
0.122946
0.0571255
0.0150332
-0.0047862
-0.00658738
0.00324212
0.0171801
0.0277425
0.0286508
0.015817
-0.0120099
-0.053052
-0.102826
-0.154965
-0.2024
-0.238689
-0.259194
-0.261901
-0.247731
-0.220354
-0.185547
-0.150223
-0.121293
-0.10452
-0.10356
-0.119323
-0.149787
-0.190311
-0.234436
-0.275049
-0.305675
-0.321634
-0.32084
-0.304108
-0.27496
-0.238999
-0.202955
-0.173557
-0.156417
-0.155081
-0.170406
-0.200372
-0.240392
-0.284092
-0.324457
-0.355088
-0.371344
-0.371108
-0.355091
-0.326636
-0.291092
-0.254867
-0.224317
-0.204631
-0.198888
-0.207417
-0.227603
-0.254157
-0.279882
-0.296778
-0.297321
-0.275638
-0.228401
-0.155327
-0.0592882
0.053925
0.176116
0.297407
0.407146
0.49497
0.551988
0.571954
0.552216
2.51298
2.36473
2.20431
2.04272
1.8892
1.74947
1.62474
1.51181
1.40413
1.29363
1.17279
1.03654
0.883702
0.71763
0.545941
0.379293
0.229415
0.106821
0.01878
-0.0320115
-0.0478872
-0.0358032
-0.00621332
0.0285719
0.0563019
0.066694
0.053051
0.0133533
-0.0493697
-0.127517
-0.210264
-0.285591
-0.342585
-0.373459
-0.374884
-0.348458
-0.30032
-0.240069
-0.179164
-0.129055
-0.0993154
-0.096057
-0.120858
-0.170393
-0.2369
-0.309494
-0.376161
-0.426002
-0.451217
-0.448408
-0.419033
-0.369024
-0.307721
-0.246302
-0.195942
-0.165982
-0.16237
-0.18661
-0.235395
-0.301069
-0.372915
-0.4391
-0.488888
-0.51457
-0.512738
-0.484725
-0.436226
-0.376235
-0.3155
-0.264701
-0.232637
-0.224672
-0.241674
-0.279625
-0.330023
-0.381116
-0.41978
-0.433679
-0.413223
-0.352945
-0.252193
-0.115176
0.0494832
0.229536
0.410136
0.57509
0.708362
0.795892
0.827576
0.798999
3.13495
2.92627
2.70248
2.48174
2.27944
2.10485
1.95923
1.83607
1.72306
1.60531
1.46897
1.3044
1.1086
0.886416
0.650145
0.417593
0.208596
0.0409272
-0.0732151
-0.129347
-0.131263
-0.0902401
-0.0231634
0.0501093
0.109814
0.139333
0.127789
0.0718575
-0.0234923
-0.145601
-0.276263
-0.3952
-0.484114
-0.530148
-0.527995
-0.48047
-0.39775
-0.295554
-0.192581
-0.107506
-0.0559985
-0.0481703
-0.0867967
-0.166582
-0.274744
-0.393112
-0.501525
-0.581813
-0.621175
-0.614257
-0.563695
-0.479375
-0.376634
-0.273748
-0.188975
-0.13763
-0.129578
-0.16749
-0.24612
-0.352883
-0.469909
-0.577379
-0.657424
-0.697435
-0.692089
-0.643882
-0.562382
-0.462469
-0.361844
-0.278126
-0.225958
-0.21452
-0.245781
-0.313735
-0.404901
-0.500262
-0.578452
-0.61952
-0.608158
-0.535779
-0.40129
-0.210876
0.0228695
0.282159
0.54539
0.788651
0.987616
1.12021
1.16997
1.12935
3.80329
3.5096
3.19631
2.89421
2.6298
2.41853
2.2614
2.14571
2.04879
1.94377
1.80579
1.6172
1.37151
1.07547
0.748984
0.421962
0.128253
-0.102058
-0.24876
-0.304768
-0.276486
-0.182212
-0.0490529
0.091167
0.206775
0.271085
0.266425
0.187104
0.0408977
-0.15139
-0.359171
-0.548063
-0.687414
-0.75625
-0.746465
-0.663189
-0.52325
-0.352186
-0.180249
-0.0376494
0.05019
0.0665833
0.00650548
-0.121936
-0.297922
-0.491092
-0.66742
-0.796584
-0.85781
-0.84298
-0.757001
-0.61628
-0.445789
-0.275139
-0.133904
-0.0469644
-0.0306288
-0.0897659
-0.216364
-0.389948
-0.580691
-0.755178
-0.883634
-0.945641
-0.933186
-0.851005
-0.71508
-0.549754
-0.383863
-0.246144
-0.160647
-0.142904
-0.197069
-0.314438
-0.473757
-0.644146
-0.790595
-0.880869
-0.89097
-0.808062
-0.630925
-0.368981
-0.0405364
0.3291
0.70939
1.06599
1.36244
1.5638
1.64249
1.58491
4.53927
4.12119
3.67402
3.25244
2.90371
2.65427
2.50394
2.42836
2.38618
2.3297
2.21547
2.01222
1.70691
1.30836
0.848581
0.378349
-0.0433978
-0.365458
-0.554923
-0.601584
-0.51676
-0.330198
-0.0851312
0.167645
0.377582
0.502131
0.512551
0.398642
0.171621
-0.134896
-0.469303
-0.772296
-0.992283
-1.0956
-1.07079
-0.927535
-0.693601
-0.410106
-0.125705
0.11103
0.259228
0.291422
0.198218
-0.00886096
-0.29639
-0.613359
-0.901265
-1.10922
-1.204
-1.1742
-1.02917
-0.79609
-0.515211
-0.234211
-0.000683741
0.145334
0.176965
0.0850665
-0.118985
-0.40234
-0.714914
-0.999297
-1.20556
-1.3011
-1.27472
-1.13555
-0.910147
-0.637882
-0.365345
-0.13899
0.00220071
0.0322329
-0.0573686
-0.254755
-0.52669
-0.822524
-1.08365
-1.25768
-1.30773
-1.21604
-0.982694
-0.622855
-0.163269
0.36069
0.9075
1.42992
1.87418
2.18402
2.31121
2.22941
5.38103
4.77461
4.11484
3.50573
3.03467
2.74734
2.6389
2.66297
2.74419
2.79877
2.75334
2.5542
2.17656
1.6294
0.963218
0.2649
-0.358614
-0.819815
-1.06674
-1.08776
-0.903562
-0.562452
-0.132336
0.305788
0.671322
0.897497
0.937685
0.773038
0.416789
-0.07827
-0.624699
-1.11609
-1.46519
-1.61947
-1.56573
-1.32249
-0.935359
-0.469365
-0.00256009
0.387167
0.635275
0.696797
0.553875
0.220024
-0.252503
-0.777516
-1.25027
-1.58489
-1.72962
-1.67137
-1.42819
-1.04477
-0.584847
-0.124963
0.258508
0.502307
0.562398
0.421359
0.0925479
-0.372694
-0.889772
-1.35594
-1.68698
-1.83217
-1.77871
-1.5443
-1.17273
-0.726437
-0.280359
0.0907681
0.325085
0.379613
0.237514
-0.0877484
-0.54523
-1.05091
-1.50213
-1.81304
-1.92859
-1.82804
-1.51662
-1.02037
-0.378707
0.359364
1.14072
1.9064
2.57946
3.06726
3.28087
3.16497
6.40405
5.50462
4.48248
3.56002
2.90091
2.5828
2.58308
2.81532
3.14062
3.41189
3.51255
3.3532
2.89034
2.12182
1.12412
0.0437192
-0.907579
-1.58274
-1.9039
-1.86947
-1.51634
-0.9229
-0.191095
0.548437
1.16572
1.56066
1.65776
1.42331
0.861819
0.0522993
-0.859377
-1.66482
-2.21869
-2.4429
-2.3336
-1.92467
-1.29072
-0.529827
0.231539
0.867196
1.27997
1.39653
1.18443
0.648564
-0.133077
-1.01696
-1.79824
-2.33405
-2.54756
-2.43489
-2.0292
-1.40366
-0.654469
0.0942739
0.718783
1.12378
1.23741
1.028
0.500499
-0.268446
-1.13798
-1.9072
-2.43606
-2.64933
-2.54331
-2.15058
-1.54296
-0.81472
-0.0874772
0.517497
0.906834
1.0101
0.796123
0.269627
-0.494393
-1.35773
-2.12266
-2.64973
-2.86067
-2.74369
-2.31669
-1.62731
-0.732971
0.295702
1.39651
2.51624
3.55149
4.34534
4.72498
4.5648
7.7705
6.41094
4.70614
3.23455
2.27569
1.95951
2.19317
2.83369
3.61484
4.27072
4.64618
4.58926
4.04426
2.94426
1.40409
-0.36338
-1.8542
-2.85546
-3.25315
-3.11011
-2.47521
-1.48261
-0.261008
0.967105
1.98025
2.6527
2.85523
2.54451
1.66398
0.329946
-1.24707
-2.57583
-3.44695
-3.74662
-3.53299
-2.8509
-1.82894
-0.591002
0.64662
1.66814
2.35116
2.56951
2.28116
1.43098
0.133539
-1.40419
-2.69973
-3.54735
-3.83524
-3.62041
-2.94682
-1.94066
-0.72349
0.492361
1.49512
2.16474
2.37758
2.09264
1.25608
-0.0193924
-1.53068
-2.80463
-3.63963
-3.92631
-3.72078
-3.06637
-2.08689
-0.901608
0.281433
1.25471
1.90049
2.09739
1.80472
0.969008
-0.30057
-1.80626
-3.08574
-3.94163
-4.26497
-4.10576
-3.49459
-2.52939
-1.28067
0.128167
1.62506
3.24775
4.87116
6.2199
6.94647
6.74606
9.85117
7.81447
4.5938
2.17027
0.724387
0.544023
1.21718
2.64948
4.26946
5.53337
6.40242
6.52818
5.99738
4.40055
2.01136
-1.16887
-3.50578
-4.99736
-5.38109
-5.05904
-3.94918
-2.37214
-0.340316
1.69531
3.28536
4.42142
4.79174
4.48623
3.11916
0.957457
-1.99226
-4.14591
-5.49811
-5.78953
-5.40701
-4.26659
-2.67821
-0.651761
1.37285
2.9565
4.09143
4.47211
4.18689
2.85742
0.746133
-2.14023
-4.24628
-5.5667
-5.84688
-5.4666
-4.34339
-2.78154
-0.790666
1.19726
2.75111
3.86344
4.23451
3.95156
2.64366
0.569187
-2.26519
-4.33419
-5.63283
-5.9121
-5.5447
-4.45027
-2.92724
-0.985303
0.952371
2.46347
3.54048
3.88961
3.59529
2.29312
0.233228
-2.58055
-4.65878
-6.00044
-6.36413
-6.11865
-5.18228
-3.83973
-2.05895
-0.166149
1.67251
3.97825
6.58644
8.99043
10.5029
10.3562
13.5065
10.9254
3.33564
-0.301158
-2.64941
-2.10082
-0.85214
2.19498
5.43682
7.3646
9.22902
9.41254
9.48558
6.99784
3.75772
-3.18876
-6.37466
-8.73457
-8.52537
-8.14246
-6.09593
-3.91655
-0.425126
3.06512
5.24419
7.29281
7.70144
7.95658
5.71859
2.71968
-3.8838
-6.87011
-9.07683
-8.80296
-8.37243
-6.32737
-4.15832
-0.709908
2.734
4.891
6.91779
7.33356
7.59633
5.40962
2.4748
-3.99993
-6.92419
-9.08404
-8.80959
-8.38267
-6.37166
-4.24024
-0.853647
2.5272
4.64282
6.62951
7.03319
7.28636
5.13507
2.25198
-4.10189
-6.97308
-9.09394
-8.82911
-8.41556
-6.45137
-4.37084
-1.0629
2.23754
4.29727
6.22858
6.60837
6.8371
4.70832
1.8526
-4.41404
-7.2925
-9.46748
-9.3405
-9.1264
-7.45486
-5.78109
-2.99849
-0.382473
1.04743
4.27326
8.59585
13.0449
16.4485
16.9404
20.4283
21.2577
-3.60818
-4.62671
-10.1946
-5.75386
-5.51137
1.46001
8.49632
9.28701
14.476
12.4559
16.6612
10.6785
10.8411
-10.624
-10.4331
-16.1715
-11.92
-13.6217
-8.43418
-7.35051
-0.508419
6.32286
7.39069
12.5256
10.832
15.0169
9.41357
9.6723
-10.9843
-10.7171
-16.2278
-12.0422
-13.663
-8.56694
-7.48096
-0.761811
5.94808
7.01279
12.0638
10.4151
14.5328
9.03889
9.30067
-10.9726
-10.7031
-16.1071
-11.9921
-13.5801
-8.57356
-7.50663
-0.908618
5.67881
6.71995
11.6748
10.0483
14.0833
8.68001
8.93245
-10.9539
-10.6927
-15.9907
-11.9605
-13.5195
-8.62024
-7.58211
-1.12991
5.30913
6.31575
11.1506
9.54445
13.4735
8.1701
8.38351
-11.1267
-10.9394
-16.2495
-12.4424
-14.233
-9.73073
-9.31925
-3.6982
1.10915
-2.16388
2.98872
10.4229
18.6045
26.5866
31.0503
30.2569
68.5572
-44.8858
-2.3949
-32.1502
-3.35929
-19.8582
0.633516
20.5515
4.87812
30.1064
6.53711
38.51
5.51243
49.0711
-49.2409
-5.95054
-37.9905
-6.73891
-29.0179
-4.85957
-19.0731
-0.572653
17.8835
3.68416
27.5952
5.50119
36.1759
4.67111
46.7468
-48.2108
-6.23993
-37.3373
-6.91602
-28.6215
-5.02761
-18.9109
-0.795954
17.2957
3.39881
26.8617
5.19765
35.3144
4.38458
45.7016
-47.522
-6.30753
-36.8327
-6.95773
-28.2689
-5.0978
-18.7331
-0.943696
16.8217
3.16592
26.202
4.91545
34.4761
4.08519
44.6173
-46.8139
-6.40285
-36.3156
-7.03934
-27.9194
-5.22491
-18.5856
-1.17398
16.2074
2.82544
25.3517
4.51349
33.4084
3.6912
43.3199
-46.2006
-6.66683
-36.1573
-7.4809
-28.3985
-6.1132
-20.3567
-3.22376
14.2389
-17.5058
-1.57906
11.1758
24.4536
41.7935
69.6937
28857.7
28819.1
28780.4
28741.6
28702.8
28664
28625.3
28586.6
28548.1
28509.7
28471.4
28433.2
28395
28357
28319
0.181063
0.139748
0.0868325
0.028338
-0.0296032
-0.0815868
-0.123476
-0.152621
-0.167818
-0.169105
-0.157491
-0.134678
-0.102827
-0.0643737
-0.0219075
0.3198
0.245538
0.150708
0.0464516
-0.0560829
-0.147291
-0.220032
-0.269932
-0.295207
-0.296222
-0.274964
-0.23453
-0.178722
-0.111744
-0.0380023
0.488374
0.371955
0.224066
0.0628954
-0.0938421
-0.231418
-0.339392
-0.411836
-0.446827
-0.44559
-0.411593
-0.349743
-0.265781
-0.165873
-0.0563595
0.703725
0.529843
0.310707
0.0749089
-0.150761
-0.345144
-0.494279
-0.591191
-0.634671
-0.627717
-0.576073
-0.487065
-0.368786
-0.229607
-0.0779221
0.989016
0.732983
0.414008
0.0767923
-0.238967
-0.504117
-0.701388
-0.823978
-0.872948
-0.854533
-0.777917
-0.653655
-0.492691
-0.305845
-0.103644
1.37724
0.999059
0.535544
0.0572168
-0.377785
-0.73097
-0.983178
-1.13038
-1.17861
-1.13955
-1.02741
-0.856948
-0.642476
-0.397439
-0.134452
1.91709
1.35046
0.671884
-0.00568887
-0.598421
-1.0588
-1.36997
-1.53576
-1.57156
-1.49764
-1.33521
-1.10425
-0.822825
-0.506983
-0.171174
2.68284
1.81379
0.807215
-0.153443
-0.951414
-1.53585
-1.90213
-2.07114
-2.07421
-1.94426
-1.71152
-1.40203
-1.03759
-0.636492
-0.214436
3.79166
2.41462
0.896621
-0.46389
-1.51795
-2.23105
-2.63156
-2.77246
-2.70988
-2.49366
-2.16459
-1.75474
-1.28901
-0.78696
-0.264511
5.43412
3.15641
0.828538
-1.0808
-2.42544
-3.23883
-3.62061
-3.67726
-3.49918
-3.15591
-2.69844
-2.16332
-1.57674
-0.957827
-0.32116
7.92311
3.94839
0.341931
-2.26239
-3.86418
-4.67822
-4.93479
-4.81677
-4.45365
-3.93237
-3.30992
-2.62335
-1.89682
-1.14644
-0.383459
11.7326
4.3722
-1.14675
-4.4465
-6.09066
-6.67508
-6.62355
-6.20138
-5.56627
-4.80999
-3.98553
-3.12332
-2.24075
-1.34766
-0.449691
17.2211
2.95454
-4.85457
-8.28614
-9.37686
-9.30785
-8.68294
-7.79893
-6.80004
-5.75578
-4.69886
-3.64364
-2.59518
-1.55377
-0.517334
21.8898
-4.9208
-12.9399
-14.4666
-13.8228
-12.4965
-11.0014
-9.51134
-8.07917
-6.71422
-5.4105
-4.15722
-2.94254
-1.7549
-0.583209
0.552434
1.66479
2.80009
3.97526
5.20997
6.52827
7.96107
9.54971
11.3513
13.4462
15.9449
18.978
22.5749
25.9319
23.3047
0.563507
1.69837
2.85729
4.05821
5.32222
6.67572
8.15373
9.80538
11.7038
13.9651
16.7891
20.5584
26.1271
35.8294
57.6773
0.569134
1.71523
2.88534
4.09734
5.37233
6.73673
8.22584
9.88972
11.8043
14.0933
16.9766
20.8891
26.8088
37.2923
60.1513
0.569327
1.71542
2.88429
4.09275
5.36035
6.71115
8.17659
9.80003
11.6448
13.8087
16.4495
19.8255
24.3196
30.1546
34.8715
0.564356
1.6998
2.85576
4.04711
5.29058
6.60598
8.01764
9.55666
11.2639
13.1931
15.4119
17.9853
20.8976
23.7878
25.4645
0.554712
1.66992
2.80267
3.96526
5.17089
6.43396
7.77025
9.19652
10.7288
12.3767
14.1283
15.91
17.4904
18.2627
16.7553
0.541051
1.62787
2.72886
3.85354
5.0113
6.2111
7.46037
8.76279
10.1134
11.4884
12.824
13.9752
14.6446
14.321
12.6203
0.524115
1.57597
2.63862
3.71884
4.82254
5.95389
7.11358
8.29558
9.4811
10.6275
11.6481
12.3752
12.4889
11.336
7.18239
0.504658
1.51659
2.53619
3.56783
4.61458
5.67701
6.75131
7.8259
8.87592
9.854
10.6761
11.2015
11.213
10.4351
8.83553
0.483385
1.45189
2.42539
3.40635
4.39573
5.39191
6.38883
7.37329
8.32069
9.18881
9.91004
10.3846
10.4852
10.1048
9.30921
0.460903
1.38374
2.30942
3.23901
4.17219
5.1063
6.03501
6.94644
7.8205
8.6256
9.31531
9.82734
10.0914
10.0628
9.81965
0.43771
1.31361
2.19073
3.0692
3.94802
4.82445
5.6932
6.54554
7.3682
8.14253
8.84398
9.44229
9.90096
10.1698
10.1487
0.414188
1.24263
2.0711
2.89914
3.72552
4.54793
5.36281
6.16526
6.94949
7.71008
8.44427
9.15421
9.84232
10.4782
10.9075
0.390623
1.17162
1.95179
2.73025
3.50577
4.27666
5.04107
5.79766
6.54722
7.29597
8.06142
8.88131
9.82
10.9299
11.9126
0.367232
1.1012
1.83365
2.56342
3.28924
4.0099
4.72478
5.43494
6.14552
6.87027
7.64079
8.52594
9.67877
11.4702
14.9441
0.344182
1.03184
1.71738
2.39933
3.07629
3.74717
4.41176
5.07195
5.73398
6.41282
7.14055
7.98469
9.09409
10.8421
14.3778
0.321622
0.963964
1.6036
2.23871
2.86758
3.48882
4.10182
4.70768
5.3108
5.92141
6.5595
7.25925
8.06596
8.9725
9.47008
0.299688
0.897969
1.49295
2.08242
2.66419
3.2362
3.79683
4.34533
4.88242
5.41094
5.93565
6.45956
6.96851
7.38693
7.52332
0.278515
0.834265
1.38615
1.9315
2.46756
2.99148
3.50028
3.99092
4.46001
4.90312
5.31238
5.67026
5.93395
5.99724
5.58287
0.258233
0.773249
1.28387
1.78703
2.27939
2.75726
3.21636
3.65147
4.05566
4.41881
4.72479
4.94639
5.03857
4.93927
4.63755
0.238957
0.715285
1.1868
1.65006
2.10128
2.53608
2.94911
3.33351
3.6798
3.97422
4.19582
4.3124
4.27617
4.02189
3.45264
0.220782
0.660669
1.09545
1.52145
1.93458
2.33001
2.70176
3.04201
3.33999
3.58022
3.73979
3.78454
3.66522
3.32324
2.77735
0.203773
0.609601
1.0102
1.4018
1.78019
2.1404
2.47629
2.77987
3.04029
3.24224
3.3635
3.37062
3.20892
2.76622
1.68997
0.187958
0.562168
0.931192
1.29132
1.63842
1.96769
2.27327
2.54772
2.7812
2.96031
3.0665
3.07394
2.94775
2.64918
2.20239
0.173327
0.51834
0.858369
1.18989
1.50904
1.81143
2.09187
2.34402
2.55987
2.72903
2.83808
2.87008
2.8063
2.63507
2.37688
0.159837
0.477975
0.79146
1.09705
1.3913
1.67041
1.93013
2.16556
2.37096
2.53952
2.66317
2.73275
2.73949
2.68138
2.58675
0.147415
0.440842
0.730034
1.01211
1.28408
1.54287
1.78526
2.00795
2.20764
2.3812
2.52582
2.63907
2.71771
2.75306
2.71509
0.13597
0.40665
0.673555
0.934173
1.18603
1.42672
1.65408
1.86633
2.06249
2.24297
2.41028
2.56945
2.72602
2.87567
2.97952
0.125399
0.375084
0.621444
0.86233
1.09572
1.31985
1.5334
1.73588
1.92825
2.11391
2.3004
2.50164
2.73914
3.03009
3.28901
0.115603
0.345827
0.573137
0.795695
1.01186
1.22033
1.42041
1.61248
1.79866
1.98428
2.18029
2.40866
2.71517
3.20678
4.18108
0.106488
0.318596
0.528133
0.733507
0.93334
1.12663
1.31301
1.49315
1.66949
1.84744
2.03773
2.26145
2.56266
3.04829
4.04121
0.0979773
0.293153
0.486024
0.67517
0.859371
1.03774
1.20995
1.37649
1.53921
1.70203
1.87198
2.06042
2.28211
2.53753
2.68809
0.0900082
0.269312
0.446504
0.620271
0.789455
0.953149
1.11082
1.26248
1.40887
1.55168
1.69341
1.83633
1.97816
2.09961
2.14922
0.0825346
0.246939
0.409366
0.568559
0.723357
0.872742
1.01588
1.15213
1.28104
1.40209
1.51401
1.61302
1.68837
1.71159
1.60605
0.0755234
0.22594
0.374476
0.519902
0.661025
0.796683
0.92572
1.04689
1.15868
1.25884
1.34359
1.40615
1.43479
1.41302
1.33899
0.0689503
0.20625
0.341748
0.474238
0.602492
0.725229
0.84103
0.948185
1.0444
1.12631
1.1886
1.22286
1.21623
1.15074
0.999001
0.0627948
0.187814
0.311113
0.431518
0.547796
0.658599
0.762353
0.857079
0.940076
1.00741
1.05309
1.06798
1.03854
0.948383
0.803262
0.0570363
0.170573
0.282491
0.391669
0.496909
0.596869
0.689952
0.774127
0.846638
0.903542
0.938981
0.943895
0.903037
0.784204
0.484514
0.0516504
0.154458
0.255774
0.354558
0.449693
0.539921
0.623745
0.699284
0.764047
0.814596
0.846078
0.851607
0.821693
0.74563
0.630592
0.0466078
0.139381
0.230817
0.319986
0.405891
0.487425
0.563297
0.631934
0.691337
0.738901
0.771208
0.783944
0.772407
0.734133
0.676433
0.0418729
0.125235
0.207438
0.287683
0.36513
0.438869
0.507883
0.571004
0.626859
0.673811
0.709941
0.73315
0.741701
0.73614
0.725525
0.0374053
0.111895
0.18542
0.257328
0.32695
0.393599
0.456567
0.515129
0.568572
0.616247
0.657658
0.692548
0.720808
0.741671
0.750526
0.0331609
0.0992274
0.164529
0.228563
0.290839
0.350893
0.408318
0.462818
0.514302
0.563045
0.609916
0.656562
0.705065
0.755558
0.799684
0.0290944
0.0870921
0.144522
0.201024
0.256276
0.310018
0.362109
0.41261
0.461943
0.511154
0.562344
0.619302
0.687955
0.773886
0.860111
0.0251611
0.0753529
0.125161
0.174358
0.222766
0.270297
0.317011
0.363222
0.409681
0.457899
0.510779
0.573933
0.658865
0.792029
1.04497
0.0213191
0.063882
0.106227
0.148242
0.18987
0.231149
0.27227
0.313672
0.356206
0.401418
0.452093
0.513458
0.596297
0.727016
0.987543
0.0175302
0.0525637
0.0875255
0.1224
0.157223
0.192118
0.22734
0.263344
0.300883
0.341154
0.385998
0.438084
0.500498
0.571885
0.613324
0.0137605
0.041297
0.0688876
0.096596
0.12453
0.152866
0.181875
0.211958
0.243672
0.277726
0.314885
0.355552
0.398486
0.437575
0.459093
0.00998066
0.0299942
0.0501706
0.0706394
0.0915634
0.113152
0.135671
0.159449
0.184845
0.212154
0.241349
0.271462
0.299159
0.315485
0.296803
0.0061651
0.01858
0.0312531
0.0443707
0.0581403
0.0727965
0.0886006
0.105825
0.124699
0.145282
0.167188
0.189061
0.207743
0.217724
0.215681
0.00229131
0.00698809
0.0120294
0.0176527
0.0241062
0.0316499
0.0405508
0.0510626
0.063375
0.0775016
0.0930614
0.108888
0.122382
0.128328
0.114609
-0.0016612
-0.00484163
-0.00759588
-0.0096381
-0.0106804
-0.0104335
-0.00861113
-0.00494226
0.000799774
0.00873529
0.01876
0.0303455
0.0422744
0.052601
0.0608505
-0.00571175
-0.0169658
-0.0277132
-0.0376199
-0.0463577
-0.0536055
-0.0590489
-0.0623794
-0.0632903
-0.0614727
-0.0566153
-0.048425
-0.0367102
-0.0216726
-0.00500263
-0.00987942
-0.0294405
-0.0484118
-0.0664099
-0.0830655
-0.0980251
-0.110948
-0.12149
-0.129267
-0.133783
-0.134296
-0.129633
-0.117993
-0.09707
-0.0662221
-0.0141839
-0.0423234
-0.0697838
-0.096129
-0.120947
-0.143854
-0.164494
-0.182513
-0.197501
-0.208863
-0.215561
-0.215678
-0.205711
-0.179351
-0.123033
-0.0186463
-0.0556766
-0.091928
-0.126905
-0.16015
-0.191253
-0.219854
-0.245633
-0.268247
-0.287174
-0.301389
-0.308714
-0.304805
-0.282426
-0.236651
-0.0232902
-0.0695694
-0.114955
-0.158882
-0.200838
-0.240383
-0.277168
-0.310945
-0.341544
-0.36875
-0.391991
-0.409542
-0.416715
-0.401736
-0.334644
-0.0281429
-0.0840818
-0.138991
-0.192224
-0.243197
-0.291425
-0.336564
-0.378459
-0.417189
-0.453072
-0.486535
-0.517567
-0.543998
-0.557222
-0.538308
-0.0332362
-0.0993078
-0.16419
-0.227133
-0.287458
-0.344608
-0.398207
-0.448164
-0.494803
-0.539065
-0.58276
-0.628775
-0.680442
-0.735011
-0.740221
-0.0386072
-0.115359
-0.190734
-0.263856
-0.333921
-0.400251
-0.462375
-0.520166
-0.574061
-0.625444
-0.677362
-0.736048
-0.814858
-0.947063
-1.23757
-0.0442991
-0.132364
-0.21884
-0.302699
-0.382974
-0.45881
-0.529546
-0.594868
-0.655056
-0.711444
-0.767256
-0.829335
-0.912181
-1.04917
-1.32867
-0.0503606
-0.150473
-0.248761
-0.344027
-0.435106
-0.520905
-0.600473
-0.673129
-0.738684
-0.797835
-0.852789
-0.90819
-0.971894
-1.05228
-1.13239
-0.0568448
-0.169846
-0.28078
-0.388261
-0.490902
-0.587324
-0.676196
-0.756314
-0.826753
-0.887132
-0.938002
-0.981269
-1.02001
-1.05559
-1.07807
-0.0638067
-0.190654
-0.315194
-0.435854
-0.551013
-0.658981
-0.757992
-0.846215
-0.921803
-0.983024
-1.02849
-1.05749
-1.0703
-1.06797
-1.05025
-0.0713001
-0.213064
-0.352301
-0.487266
-0.616115
-0.736855
-0.847276
-0.944884
-1.02683
-1.08985
-1.1304
-1.14493
-1.13112
-1.09102
-1.03903
-0.0793739
-0.237227
-0.392372
-0.542921
-0.686846
-0.82189
-0.945455
-1.05443
-1.14498
-1.21229
-1.25037
-1.25205
-1.21017
-1.12233
-1.00505
-0.0880687
-0.26327
-0.435634
-0.603175
-0.76374
-0.914895
-1.05376
-1.17676
-1.27925
-1.35503
-1.3956
-1.38941
-1.32112
-1.17409
-0.959214
-0.0974136
-0.291281
-0.482244
-0.668272
-0.847165
-1.01643
-1.17308
-1.31333
-1.43208
-1.5222
-1.57332
-1.5699
-1.48676
-1.27296
-0.770116
-0.107424
-0.321309
-0.53228
-0.738321
-0.937274
-1.12672
-1.30379
-1.46483
-1.6048
-1.71645
-1.78889
-1.80573
-1.74313
-1.57254
-1.30142
-0.118104
-0.353359
-0.585739
-0.813291
-1.03398
-1.24561
-1.44564
-1.63094
-1.79717
-1.93791
-2.04309
-2.09673
-2.0745
-1.94193
-1.64498
-0.129447
-0.387403
-0.64255
-0.893025
-1.13698
-1.37253
-1.59772
-1.81029
-2.00725
-2.18408
-2.33306
-2.44041
-2.48248
-2.42546
-2.26003
-0.141441
-0.423399
-0.702602
-0.977287
-1.2458
-1.50666
-1.75857
-2.00046
-2.2313
-2.44959
-2.65192
-2.82944
-2.95928
-2.98426
-2.75622
-0.154077
-0.461306
-0.765792
-1.06583
-1.35994
-1.64699
-1.92637
-2.19831
-2.46407
-2.72617
-2.98801
-3.25157
-3.50889
-3.71876
-3.77925
-0.167356
-0.501116
-0.832067
-1.1585
-1.47899
-1.79263
-2.09935
-2.40045
-2.69938
-3.00292
-3.32291
-3.67802
-4.09144
-4.55701
-4.80421
-0.181295
-0.542877
-0.901479
-1.25528
-1.60279
-1.94307
-2.27622
-2.60409
-2.93148
-3.26825
-3.63343
-4.06398
-4.63777
-5.54689
-7.38431
-0.195934
-0.586705
-0.974222
-1.35644
-1.7316
-2.09846
-2.45677
-2.80807
-3.15705
-3.51385
-3.89854
-4.35046
-4.95123
-5.89213
-7.70475
-0.211334
-0.632794
-1.05064
-1.46251
-1.86618
-2.25977
-2.64217
-3.01367
-3.37718
-3.74007
-4.11696
-4.53357
-5.0285
-5.63199
-6.19335
-0.227572
-0.681391
-1.13121
-1.57427
-2.00775
-2.42887
-2.83513
-3.2248
-3.59775
-3.95656
-4.3078
-4.66228
-5.03036
-5.40112
-5.69135
-0.244729
-0.732767
-1.21646
-1.69267
-2.1579
-2.60828
-3.0396
-3.44755
-3.82814
-4.17831
-4.49638
-4.78155
-5.03037
-5.22616
-5.31325
-0.262873
-0.787157
-1.30692
-1.81869
-2.31837
-2.80092
-3.2603
-3.68929
-4.07965
-4.42234
-4.70779
-4.92606
-5.06719
-5.12669
-5.13595
-0.282032
-0.844686
-1.40291
-1.95312
-2.49071
-3.00966
-3.50209
-3.95784
-4.36426
-4.70611
-4.96587
-5.12413
-5.1607
-5.0621
-4.85917
-0.302171
-0.905287
-1.50448
-2.09631
-2.67599
-3.23682
-3.76934
-4.26066
-4.6937
-5.04688
-5.29442
-5.40669
-5.34809
-5.06994
-4.57416
-0.32316
-0.968609
-1.61116
-2.24791
-2.87437
-3.48362
-4.06521
-4.60394
-5.07858
-5.46102
-5.71689
-5.8079
-5.68794
-5.22893
-3.6817
-0.344754
-1.03394
-1.72187
-2.40666
-3.08471
-3.74961
-4.39082
-4.99173
-5.52748
-5.96305
-6.25385
-6.35562
-6.26322
-6.14365
-6.82823
-0.366569
-1.10014
-1.83476
-2.5701
-3.30415
-4.03206
-4.74442
-5.42475
-6.04594
-6.56559
-6.92207
-7.03817
-6.85738
-6.4999
-6.85887
-0.388078
-1.16563
-1.94713
-2.73442
-3.52786
-4.3253
-5.12024
-5.89885
-6.63491
-7.28143
-7.75722
-7.92687
-7.57423
-6.3586
-3.59007
-0.408618
-1.22836
-2.05549
-2.89446
-3.74879
-4.62027
-5.50739
-6.40247
-7.28603
-8.11583
-8.80495
-9.17828
-8.89038
-7.29566
-3.38488
-0.427417
-1.28596
-2.15563
-3.04382
-3.9578
-4.90437
-5.88902
-6.91408
-7.97448
-9.04792
-10.0719
-10.8889
-11.114
-9.84109
-5.16509
-0.443641
-1.33583
-2.24289
-3.17527
-4.14418
-5.16201
-6.24256
-7.40114
-8.65385
-10.0143
-11.4827
-13.0104
-14.378
-14.7498
-10.8718
-0.456457
-1.37537
-2.31258
-3.28133
-4.29658
-5.37608
-6.5419
-7.82283
-9.25838
-10.9057
-12.8524
-15.243
-18.3335
-22.6096
-28.9852
-12.0066
-27.2536
-25.748
-21.9922
-18.5059
-15.5835
-13.1358
-11.0404
-9.20016
-7.54444
-6.02246
-4.59683
-3.23904
-1.92629
-0.639303
-117.144
-61.1098
-39.4589
-28.7643
-22.3879
-18.0518
-14.819
-12.242
-10.082
-8.19927
-6.50657
-4.94554
-3.47472
-2.06273
-0.683987
-130.212
-71.0881
-45.5613
-32.5375
-24.8531
-19.754
-16.0466
-13.1542
-10.7711
-8.72214
-6.89924
-5.23158
-3.66955
-2.17606
-0.721192
-71.5023
-57.7352
-42.9808
-32.6028
-25.5227
-20.4898
-16.7082
-13.7125
-11.2283
-9.08798
-7.18409
-5.44424
-3.81679
-2.26256
-0.749724
-50.4599
-45.0678
-37.3613
-30.3779
-24.7706
-20.3566
-16.8241
-13.9156
-11.4467
-9.28959
-7.35501
-5.57884
-3.91316
-2.32033
-0.768954
-32.0431
-34.0075
-31.2394
-27.1973
-23.1898
-19.6111
-16.5066
-13.8134
-11.4485
-9.33666
-7.41591
-5.6367
-3.95895
-2.34929
-0.778831
-23.6422
-26.2337
-26.0023
-23.9926
-21.3113
-18.5361
-15.9035
-13.4832
-11.2747
-9.25096
-7.37849
-5.62411
-3.95743
-2.35103
-0.779819
-13.1542
-20.4202
-22.0001
-21.2543
-19.4979
-17.3622
-15.1528
-13.006
-10.9724
-9.06023
-7.25906
-5.55059
-3.91404
-2.32832
-0.772773
-15.8901
-18.5554
-19.6128
-19.2176
-17.9479
-16.2394
-14.3585
-12.4503
-10.5857
-8.7924
-7.07523
-5.42713
-3.83535
-2.28464