/*--------------------------------*- C++ -*----------------------------------*\
| =========                 |                                                 |
| \\      /  F ield         | OpenFOAM: The Open Source CFD Toolbox           |
|  \\    /   O peration     | Version:  5.x                                   |
|   \\  /    A nd           | Web:      www.OpenFOAM.org                      |
|    \\/     M anipulation  |                                                 |
\*---------------------------------------------------------------------------*/
FoamFile
{
    version     2.0;
    format      ascii;
    class       volScalarField;
    location    "3";
    object      gradTx;
}
// * * * * * * * * * * * * * * * * * * * * * * * * * * * * * * * * * * * * * //

dimensions      [0 -1 0 1 0 0 0];

internalField   nonuniform List<scalar> 
6300
(
-29.9696
-30.0388
-30.1764
-30.3812
-30.651
-30.9827
-31.3721
-31.8142
-32.3024
-32.8289
-33.3848
-33.9601
-34.5442
-35.1264
-35.6964
-29.9005
-29.9703
-30.1094
-30.3163
-30.5892
-30.9249
-31.3196
-31.7682
-32.2641
-32.7996
-33.3655
-33.9514
-34.5462
-35.1385
-35.7175
-29.7617
-29.8328
-29.9745
-30.1857
-30.4645
-30.8083
-31.2134
-31.6749
-32.1864
-32.74
-33.3262
-33.9339
-34.5508
-35.1642
-35.7616
-29.5518
-29.6247
-29.7702
-29.9874
-30.2749
-30.6305
-31.0509
-31.5316
-32.0666
-32.6479
-33.2655
-33.9072
-34.5591
-35.2059
-35.8327
-29.269
-29.3442
-29.4944
-29.719
-30.0174
-30.3879
-30.8281
-31.3342
-31.9006
-32.5197
-33.1808
-33.8705
-34.5724
-35.2679
-35.9376
-28.9111
-28.9888
-29.144
-29.3771
-29.6878
-30.0757
-30.5394
-31.0764
-31.6822
-32.3495
-33.0676
-33.8216
-34.5923
-35.3559
-36.0864
-28.4758
-28.5557
-28.7161
-28.9575
-29.2811
-29.6877
-30.1776
-30.75
-31.4023
-32.1285
-32.9185
-33.7563
-34.6192
-35.477
-36.2938
-27.9605
-28.0424
-28.207
-28.456
-28.7916
-29.2165
-29.7333
-30.3439
-31.0485
-31.8438
-32.7216
-33.666
-34.6512
-35.6394
-36.5804
-27.3634
-27.4464
-27.6137
-27.8679
-28.2128
-28.6534
-29.1953
-29.844
-30.604
-31.4768
-32.4583
-33.5351
-34.6804
-35.8492
-36.9733
-26.6835
-26.7662
-26.9335
-27.1891
-27.5385
-27.9892
-28.5505
-29.2329
-30.0469
-31.0013
-32.0997
-33.3357
-34.6863
-36.1036
-37.5031
-25.9209
-26.0015
-26.1652
-26.4165
-26.7629
-27.2145
-27.7848
-28.4902
-29.3493
-30.3818
-31.6036
-33.0218
-34.6255
-36.3761
-38.1906
-25.0777
-25.154
-25.3092
-25.549
-25.8821
-26.3213
-26.8842
-27.5937
-28.4787
-29.5729
-30.9114
-32.5228
-34.418
-36.585
-38.9956
-24.1582
-24.2275
-24.3688
-24.5881
-24.8952
-25.3045
-25.8369
-26.5218
-27.3989
-28.52
-29.9466
-31.74
-33.939
-36.5504
-39.6625
-23.1697
-23.229
-23.3505
-23.5397
-23.8061
-24.1646
-24.6374
-25.2578
-26.0752
-27.1616
-28.6154
-30.5517
-33.0474
-36.0145
-39.3044
-22.1217
-22.1686
-22.2645
-22.414
-22.6251
-22.9105
-23.2903
-23.7967
-24.4828
-25.4361
-26.802
-28.804
-31.6835
-35.153
-35.7138
-36.2017
-36.6403
-37.0567
-37.4492
-37.8171
-38.1602
-38.4791
-38.7744
-39.0463
-39.2949
-39.5197
-39.7198
-39.8945
-40.043
-40.1655
-40.2628
-40.3366
-40.39
-40.4266
-40.4503
-40.4653
-40.4749
-40.4821
-40.4883
-40.494
-40.4985
-40.5002
-40.4971
-40.4875
-40.4697
-40.4431
-40.4079
-40.3656
-40.3181
-40.2682
-40.2186
-40.1716
-40.1288
-40.091
-40.0576
-40.0274
-39.9982
-39.9676
-39.9331
-39.8928
-39.8459
-39.7922
-39.7328
-39.6696
-39.6049
-39.5412
-39.4807
-39.4249
-39.3742
-39.3283
-39.2857
-39.2441
-39.2011
-39.1544
-39.102
-39.0429
-38.9771
-38.9056
-38.8301
-38.7531
-38.677
-38.604
-38.5358
-38.4729
-38.4151
-38.3612
-38.3096
-38.2583
-38.2057
-38.1506
-38.0931
-38.0345
-37.9771
-37.9245
-37.8808
-37.8504
-37.8376
-37.8457
-37.8765
-37.9305
-38.0061
-38.0998
-38.2067
-38.3204
-38.4336
-36.2294
-36.6721
-37.0912
-37.4849
-37.8527
-38.1952
-38.5133
-38.808
-39.08
-39.3293
-39.5552
-39.7566
-39.9321
-40.0807
-40.2019
-40.2965
-40.3662
-40.4144
-40.4451
-40.4631
-40.4729
-40.4787
-40.4835
-40.4892
-40.4958
-40.5025
-40.507
-40.5068
-40.4993
-40.4825
-40.4554
-40.4184
-40.3729
-40.3217
-40.2679
-40.2148
-40.1655
-40.1218
-40.0845
-40.0532
-40.026
-40.0004
-39.9731
-39.9413
-39.9026
-39.8556
-39.8005
-39.7384
-39.6717
-39.6034
-39.5366
-39.4739
-39.4173
-39.3675
-39.3236
-39.284
-39.246
-39.2065
-39.1625
-39.1116
-39.0526
-38.9854
-38.9112
-38.8323
-38.7517
-38.6724
-38.5972
-38.528
-38.4655
-38.4093
-38.3579
-38.3091
-38.2602
-38.209
-38.154
-38.0948
-38.0326
-37.9702
-37.9115
-37.8614
-37.8251
-37.8076
-37.8127
-37.8431
-37.8993
-37.9798
-38.0809
-38.1969
-38.3208
-38.4445
-36.287
-36.7383
-37.1624
-37.5578
-37.925
-38.2654
-38.5812
-38.8745
-39.1465
-39.3974
-39.6262
-39.8307
-40.0087
-40.1579
-40.2769
-40.3659
-40.427
-40.464
-40.4822
-40.4876
-40.4864
-40.4838
-40.4839
-40.4886
-40.4978
-40.5097
-40.5207
-40.527
-40.5245
-40.5101
-40.4821
-40.441
-40.3887
-40.329
-40.2665
-40.2059
-40.1512
-40.1055
-40.0696
-40.0428
-40.0225
-40.0048
-39.9852
-39.9595
-39.9241
-39.8772
-39.8187
-39.7506
-39.6761
-39.5997
-39.5259
-39.4585
-39.4002
-39.3519
-39.3128
-39.2801
-39.2502
-39.2184
-39.1804
-39.1329
-39.074
-39.0036
-38.9234
-38.8369
-38.7483
-38.6619
-38.5818
-38.5104
-38.4489
-38.3965
-38.3509
-38.3085
-38.2654
-38.2179
-38.1632
-38.1006
-38.031
-37.9578
-37.886
-37.822
-37.7727
-37.7447
-37.7434
-37.7724
-37.833
-37.9237
-38.0402
-38.1758
-38.3215
-38.4672
-36.3795
-36.8439
-37.2749
-37.6716
-38.0358
-38.3711
-38.6818
-38.9718
-39.2435
-39.4976
-39.732
-39.9433
-40.127
-40.2786
-40.3951
-40.4757
-40.5226
-40.5409
-40.5377
-40.5218
-40.5018
-40.4854
-40.4778
-40.4816
-40.4961
-40.518
-40.5415
-40.56
-40.5669
-40.5572
-40.528
-40.4797
-40.4153
-40.3405
-40.2624
-40.1883
-40.1244
-40.0749
-40.0416
-40.023
-40.0152
-40.012
-40.0064
-39.9916
-39.9622
-39.9154
-39.8509
-39.7718
-39.6834
-39.5924
-39.5059
-39.4299
-39.3685
-39.3232
-39.2925
-39.2724
-39.2569
-39.239
-39.2121
-39.1707
-39.1119
-39.0357
-38.9448
-38.8446
-38.7415
-38.6425
-38.5535
-38.4786
-38.4191
-38.3739
-38.339
-38.3089
-38.2769
-38.2368
-38.1839
-38.1162
-38.0346
-37.9432
-37.8492
-37.7614
-37.6896
-37.6432
-37.6302
-37.656
-37.7232
-37.8302
-37.9721
-38.1399
-38.3219
-38.5045
-36.5153
-36.9978
-37.4367
-37.8323
-38.1885
-38.5124
-38.8123
-39.0953
-39.3663
-39.626
-39.8713
-40.0959
-40.2915
-40.4499
-40.565
-40.6341
-40.6597
-40.6486
-40.6117
-40.5619
-40.5123
-40.4742
-40.4554
-40.4592
-40.4841
-40.524
-40.5695
-40.6097
-40.6335
-40.6324
-40.6016
-40.5415
-40.4569
-40.3569
-40.2527
-40.156
-40.0766
-40.0213
-39.9925
-39.9879
-40.0012
-40.0226
-40.0407
-40.0447
-40.0257
-39.9789
-39.9042
-39.8065
-39.6943
-39.5787
-39.4708
-39.3804
-39.3138
-39.2734
-39.2569
-39.258
-39.267
-39.2727
-39.2644
-39.2334
-39.1749
-39.0888
-38.9797
-38.8561
-38.7288
-38.6086
-38.505
-38.4243
-38.3688
-38.3362
-38.3204
-38.3118
-38.2999
-38.2739
-38.226
-38.1517
-38.0519
-37.9324
-37.8033
-37.6777
-37.5698
-37.4936
-37.4609
-37.4802
-37.5557
-37.6866
-37.8664
-38.0834
-38.3212
-38.5606
-36.7078
-37.2143
-37.6613
-38.0497
-38.3877
-38.6885
-38.967
-39.2365
-39.5054
-39.7752
-40.0405
-40.2902
-40.5097
-40.6839
-40.8011
-40.8555
-40.8496
-40.7936
-40.7043
-40.6018
-40.5064
-40.4354
-40.4006
-40.4066
-40.4504
-40.5219
-40.6055
-40.6829
-40.736
-40.7503
-40.7177
-40.6385
-40.5207
-40.3793
-40.2324
-40.0988
-39.9943
-39.9296
-39.9084
-39.9272
-39.9756
-40.0378
-40.0956
-40.1308
-40.1292
-40.0825
-39.9907
-39.8619
-39.7103
-39.5538
-39.4107
-39.2964
-39.2213
-39.1891
-39.1961
-39.2321
-39.2816
-39.3266
-39.3494
-39.3357
-39.2775
-39.1748
-39.0354
-38.8732
-38.7057
-38.5507
-38.4233
-38.3337
-38.2853
-38.2744
-38.291
-38.3197
-38.3428
-38.3428
-38.3057
-38.2239
-38.0976
-37.9354
-37.7523
-37.5682
-37.4043
-37.2812
-37.2165
-37.2233
-37.3085
-37.4723
-37.7071
-37.9968
-38.3181
-38.6427
-36.9775
-37.5167
-37.9702
-38.3399
-38.6407
-38.8966
-39.1348
-39.3788
-39.6432
-39.9309
-40.2324
-40.5283
-40.7931
-41.0001
-41.1276
-41.164
-41.1117
-40.9868
-40.816
-40.6315
-40.4654
-40.3445
-40.287
-40.2996
-40.377
-40.5024
-40.6505
-40.7912
-40.8944
-40.9357
-40.9012
-40.7909
-40.6188
-40.4095
-40.1931
-39.9997
-39.8547
-39.7751
-39.7668
-39.824
-39.93
-40.0595
-40.1828
-40.2702
-40.2975
-40.251
-40.1306
-39.9501
-39.7333
-39.5097
-39.309
-39.1559
-39.067
-39.0482
-39.0936
-39.1867
-39.3028
-39.4126
-39.4869
-39.5019
-39.4443
-39.3138
-39.1238
-38.8977
-38.6645
-38.4529
-38.2873
-38.1836
-38.1476
-38.1732
-38.244
-38.3356
-38.4189
-38.4649
-38.4498
-38.36
-38.195
-37.9681
-37.7028
-37.4294
-37.1799
-36.9846
-36.8692
-36.8532
-36.9479
-37.1559
-37.4685
-37.8646
-38.3102
-38.7624
-37.3563
-37.9427
-38.3997
-38.7295
-38.9585
-39.1305
-39.2944
-39.4916
-39.7477
-40.0668
-40.4324
-40.8114
-41.1597
-41.4309
-41.5853
-41.6004
-41.4784
-41.246
-40.9475
-40.635
-40.3593
-40.1624
-40.0725
-40.0996
-40.2345
-40.4503
-40.7063
-40.9535
-41.1422
-41.2303
-41.1937
-41.0323
-40.7706
-40.4502
-40.1208
-39.8309
-39.6211
-39.518
-39.531
-39.6507
-39.8505
-40.0902
-40.3218
-40.4961
-40.5722
-40.5259
-40.3573
-40.0903
-39.766
-39.4329
-39.1386
-38.9229
-38.8119
-38.8148
-38.9223
-39.1082
-39.333
-39.5495
-39.7096
-39.7729
-39.7158
-39.5384
-39.2639
-38.9326
-38.5921
-38.289
-38.0618
-37.9362
-37.9209
-38.0066
-38.1671
-38.3634
-38.5486
-38.6748
-38.7014
-38.6041
-38.3817
-38.0558
-37.665
-37.2561
-36.8774
-36.5727
-36.3788
-36.3233
-36.4242
-36.6887
-37.1097
-37.6607
-38.2928
-38.9383
-37.8927
-38.555
-39.0127
-39.2643
-39.3585
-39.3764
-39.4059
-39.5201
-39.7616
-40.1357
-40.6134
-41.1386
-41.6377
-42.0301
-42.2436
-42.2344
-42.0043
-41.6006
-41.0994
-40.5857
-40.1397
-39.8265
-39.6896
-39.7444
-39.9756
-40.3404
-40.7747
-41.2003
-41.5347
-41.7048
-41.666
-41.4185
-41.0068
-40.5038
-39.9915
-39.5471
-39.2338
-39.0936
-39.1415
-39.3621
-39.7135
-40.1327
-40.5432
-40.8637
-41.0229
-40.9768
-40.7257
-40.3133
-39.8112
-39.2999
-38.8553
-38.5391
-38.3928
-38.4308
-38.6381
-38.9735
-39.3751
-39.7677
-40.0718
-40.2171
-40.1606
-39.9026
-39.4859
-38.9807
-38.4659
-38.0154
-37.6901
-37.5299
-37.5489
-37.7321
-38.0386
-38.4071
-38.7633
-39.0281
-39.1311
-39.0283
-38.7172
-38.237
-37.6529
-37.0394
-36.4681
-36.0013
-35.689
-35.5682
-35.6649
-35.9959
-36.5636
-37.3401
-38.2558
-39.2013
-38.6605
-39.4621
-39.9224
-40.0257
-39.8686
-39.6055
-39.3956
-39.3653
-39.5847
-40.0558
-40.7259
-41.5035
-42.2695
-42.8869
-43.2227
-43.1866
-42.7801
-42.0958
-41.2691
-40.4392
-39.7289
-39.237
-39.0306
-39.1352
-39.5244
-40.1307
-40.8556
-41.5786
-42.1637
-42.4801
-42.4391
-42.0409
-41.3746
-40.5708
-39.7644
-39.0745
-38.5973
-38.3986
-38.5031
-38.8853
-39.4789
-40.1879
-40.8939
-41.4638
-41.7692
-41.7232
-41.3262
-40.6656
-39.8697
-39.0711
-38.3867
-37.9109
-37.7081
-37.8028
-38.1696
-38.7435
-39.4301
-40.1133
-40.6625
-40.9517
-40.8957
-40.495
-39.8354
-39.0427
-38.2467
-37.5618
-37.0804
-36.8654
-36.9403
-37.2801
-37.8205
-38.4685
-39.1095
-39.6141
-39.8572
-39.7524
-39.2963
-38.5676
-37.683
-36.7618
-35.9082
-35.2072
-34.7231
-34.5
-34.5678
-34.9622
-35.7167
-36.819
-38.1755
-39.6034
-39.7649
-40.8609
-41.3462
-41.1622
-40.5312
-39.7578
-39.1268
-38.851
-39.0457
-39.6894
-40.6838
-41.8852
-43.1154
-44.1495
-44.7373
-44.6724
-43.956
-42.7962
-41.4434
-40.1207
-39.0038
-38.2362
-37.924
-38.1162
-38.7609
-39.75
-40.9395
-42.1554
-43.1799
-43.7702
-43.7266
-43.0496
-41.9405
-40.6417
-39.3696
-38.2956
-37.56
-37.2669
-37.465
-38.104
-39.0783
-40.2474
-41.4407
-42.4447
-43.0215
-42.975
-42.3062
-41.2125
-39.9322
-38.6779
-37.6178
-36.8895
-36.5952
-36.7829
-37.4027
-38.3512
-39.49
-40.652
-41.6275
-42.1832
-42.1271
-41.4603
-40.3765
-39.1094
-37.8674
-36.815
-36.087
-35.7833
-35.9502
-36.5389
-37.4474
-38.54
-39.6519
-40.5767
-41.0839
-40.9822
-40.2676
-39.1226
-37.7656
-36.3866
-35.1284
-34.1008
-33.3814
-33.0129
-33.0002
-33.4099
-34.3687
-35.9319
-37.9924
-40.2369
-41.3283
-43.1393
-43.7341
-42.9423
-41.3987
-39.7045
-38.3466
-37.6593
-37.8603
-38.8182
-40.3436
-42.2258
-44.2435
-46.0551
-47.1918
-47.0965
-45.7706
-43.7745
-41.5746
-39.5057
-37.7759
-36.5799
-36.0909
-36.4457
-37.5017
-39.0807
-40.9854
-43.0081
-44.8212
-45.9734
-45.9261
-44.6808
-42.7796
-40.6741
-38.6895
-37.0296
-35.8855
-35.4279
-35.7922
-36.8399
-38.3973
-40.2719
-42.2602
-44.0409
-45.1714
-45.1231
-43.8979
-42.0282
-39.9574
-38.005
-36.371
-35.2429
-34.7885
-35.1404
-36.1627
-37.6845
-39.5167
-41.4591
-43.1969
-44.2958
-44.238
-43.0258
-41.1814
-39.1401
-37.2147
-35.6011
-34.4827
-34.0234
-34.3527
-35.3372
-36.8093
-38.5834
-40.4635
-42.1405
-43.1875
-43.0946
-41.8587
-39.9827
-37.8799
-35.8373
-34.0166
-32.5505
-31.5341
-31.0131
-30.8243
-31.0669
-32.1501
-34.3287
-37.5441
-41.2751
-43.3424
-47.1697
-48.1193
-45.8055
-42.4827
-39.1664
-36.6003
-35.1883
-35.5851
-37.1299
-39.49
-42.3713
-45.6685
-48.9328
-51.4206
-51.293
-48.5502
-45.0466
-41.5174
-38.4024
-35.7796
-33.9056
-33.043
-33.7654
-35.4896
-37.9423
-40.8617
-44.1625
-47.4144
-49.9039
-49.8506
-47.2567
-43.9128
-40.5323
-37.542
-35.0211
-33.2222
-32.4057
-33.1351
-34.8417
-37.2596
-40.1328
-43.3783
-46.5737
-49.0187
-48.9659
-46.418
-43.1332
-39.8121
-36.8737
-34.3957
-32.6262
-31.8207
-32.5327
-34.2033
-36.5711
-39.3843
-42.561
-45.6864
-48.0739
-48.0112
-45.5014
-42.27
-39.0037
-36.1132
-33.6741
-31.9291
-31.1278
-31.8117
-33.4332
-35.7361
-38.4742
-41.5677
-44.6112
-46.9323
-46.8527
-44.3715
-41.169
-37.9075
-34.9684
-32.3937
-30.3528
-28.9731
-28.5351
-28.0269
-27.5132
-28.3541
-31.2322
-36.3535
-43.0672
-44.8064
-55.3444
-57.206
-50.1243
-43.5582
-37.5478
-33.1916
-30.1125
-31.6568
-34.2676
-37.8861
-41.9179
-47.1411
-52.9286
-59.4158
-59.2554
-52.4256
-46.3554
-40.8641
-36.5904
-32.7049
-29.775
-27.7129
-29.6425
-32.4285
-36.132
-40.1889
-45.3875
-51.1055
-57.4963
-57.4338
-50.9124
-45.099
-39.8288
-35.7188
-31.9727
-29.1445
-27.1571
-29.0711
-31.8193
-35.4662
-39.4577
-44.5689
-50.1868
-56.4629
-56.4019
-49.9989
-44.2907
-39.1158
-35.0795
-31.4001
-28.6213
-26.6676
-28.5447
-31.2399
-34.8161
-38.7284
-43.7369
-49.2382
-55.3801
-55.3081
-49.0162
-43.4087
-38.326
-34.3614
-30.7474
-28.0165
-26.0933
-27.9205
-30.548
-34.036
-37.8532
-42.7436
-48.1219
-54.1343
-54.0687
-47.9228
-42.4402
-37.4706
-33.5745
-30.0022
-27.2029
-25.0557
-26.158
-25.2374
-22.0088
-21.6241
-24.9055
-32.8695
-46.366
-38.9093
-76.0135
-79.1805
-53.7092
-43.8353
-33.5465
-27.9436
-18.379
-26.1927
-29.9542
-35.6873
-39.749
-47.8014
-55.9169
-76.9836
-76.8221
-55.2071
-46.8308
-38.4577
-34.2194
-28.2542
-24.3947
-16.635
-24.2865
-28.0463
-33.8128
-37.8722
-45.8646
-53.8279
-74.3813
-74.3179
-53.5489
-45.5029
-37.4545
-33.3717
-27.6026
-23.8561
-16.2908
-23.8056
-27.5029
-33.1768
-37.17
-45.0298
-52.8522
-73.0324
-72.9704
-52.5793
-44.6801
-36.7798
-32.7715
-27.1075
-23.4283
-15.9982
-23.3784
-27.0081
-32.577
-36.4941
-44.203
-51.8674
-71.6345
-71.5614
-51.5456
-43.7914
-36.0383
-32.1048
-26.5492
-22.9407
-15.6583
-22.8769
-26.4234
-31.8616
-35.6868
-43.2169
-50.7192
-70.0885
-70.0401
-50.5189
-42.9727
-35.4877
-31.7144
-26.4973
-23.1138
-16.459
-26.6939
-25.7714
-12.4091
-9.61509
-11.8357
-21.4186
-52.7972
-38.5485
-38.6539
-38.7288
-38.7679
-38.7692
-38.7349
-38.6699
-38.5815
-38.4785
-38.3697
-38.264
-38.1692
-38.0921
-38.0378
-38.0097
-38.5698
-38.6841
-38.7647
-38.8055
-38.8048
-38.7654
-38.6931
-38.5962
-38.4841
-38.3665
-38.2529
-38.1515
-38.0692
-38.0114
-37.9816
-38.6147
-38.7481
-38.8402
-38.8843
-38.8792
-38.8287
-38.7409
-38.6259
-38.4949
-38.3594
-38.2296
-38.1146
-38.0218
-37.9569
-37.9235
-38.6885
-38.8532
-38.9638
-39.0123
-38.9986
-38.9294
-38.8158
-38.6714
-38.5104
-38.3463
-38.1912
-38.0553
-37.9465
-37.8707
-37.8318
-38.8007
-39.0124
-39.1493
-39.2022
-39.1735
-39.0743
-38.9213
-38.7333
-38.5287
-38.3241
-38.1337
-37.9688
-37.8379
-37.7474
-37.7012
-38.9664
-39.2462
-39.4187
-39.4737
-39.4186
-39.2729
-39.0618
-38.8117
-38.5469
-38.2877
-38.0506
-37.848
-37.689
-37.5798
-37.5243
-39.2098
-39.5874
-39.8055
-39.8552
-39.7544
-39.5367
-39.2412
-38.9049
-38.5593
-38.2291
-37.9328
-37.6835
-37.4901
-37.3584
-37.2917
-39.5711
-40.0879
-40.3606
-40.387
-40.2068
-39.8783
-39.4612
-39.0072
-38.556
-38.1365
-37.768
-37.4631
-37.2295
-37.0718
-36.9924
-40.1172
-40.8326
-41.1616
-41.1255
-40.8075
-40.3083
-39.7182
-39.1065
-38.5211
-37.9927
-37.5394
-37.1712
-36.8929
-36.7067
-36.6136
-40.9661
-41.9636
-42.3278
-42.1457
-41.5892
-40.829
-39.9965
-39.1793
-38.4292
-37.7738
-37.2258
-36.7891
-36.464
-36.2486
-36.1415
-42.3377
-43.7277
-44.0402
-43.5401
-42.5746
-41.4219
-40.2596
-39.1848
-38.2423
-37.4475
-36.8005
-36.2956
-35.9251
-35.6822
-35.5621
-44.675
-46.5691
-46.565
-45.3997
-43.7473
-42.0242
-40.435
-39.0578
-37.9078
-36.9731
-36.2332
-35.6674
-35.2585
-34.993
-34.8625
-48.9667
-51.3088
-50.2509
-47.7462
-44.9905
-42.4925
-40.3981
-38.7036
-37.3579
-36.3037
-35.4915
-34.8825
-34.4482
-34.1689
-34.0322
-57.7167
-59.4485
-55.3837
-50.3436
-45.9758
-42.5571
-39.9613
-38.0005
-36.5164
-35.3923
-34.5465
-33.9227
-33.4828
-33.202
-33.0651
-78.3196
-73.3845
-61.4916
-52.2685
-46.0122
-41.7986
-38.8892
-36.8207
-35.3148
-34.2026
-33.3794
-32.7788
-32.3583
-32.091
-31.9611
-21.1183
-21.1517
-21.2199
-21.3258
-21.4745
-21.6744
-21.9393
-22.293
-22.7782
-23.4765
-24.5568
-26.397
-29.8894
-37.023
-49.9525
-20.1828
-20.2031
-20.2441
-20.3069
-20.393
-20.5055
-20.6496
-20.8349
-21.0807
-21.43
-21.9881
-23.0602
-25.7254
-34.7148
-74.9511
-19.2334
-19.2402
-19.2534
-19.2717
-19.2932
-19.3148
-19.3313
-19.3347
-19.3118
-19.2388
-19.0624
-18.6153
-17.1636
-10.7312
24.7689
-18.2792
-18.273
-18.259
-18.2344
-18.1935
-18.1276
-18.0221
-17.8528
-17.5778
-17.1197
-16.3249
-14.8667
-12.0561
-6.9294
-3.51056
-17.3294
-17.3111
-17.2723
-17.2083
-17.1112
-16.9679
-16.7572
-16.4445
-15.9712
-15.2349
-14.0484
-12.0568
-8.55603
-1.9379
13.5763
-16.3924
-16.3634
-16.303
-16.2054
-16.0611
-15.855
-15.5632
-15.1476
-14.5474
-13.663
-12.3314
-10.2953
-7.2207
-3.1236
-1.55828
-15.4755
-15.4378
-15.3595
-15.2348
-15.054
-14.8018
-14.4551
-13.979
-13.3211
-12.402
-11.1039
-9.2551
-6.59551
-2.55046
5.57507
-14.585
-14.5403
-14.4482
-14.3033
-14.0965
-13.8142
-13.4368
-12.9368
-12.2761
-11.4042
-10.259
-8.77811
-6.93251
-4.8105
-2.829
-13.7255
-13.6757
-13.5738
-13.4149
-13.1914
-12.8926
-12.5037
-12.0061
-11.3778
-10.5961
-9.64746
-8.55443
-7.46152
-6.97257
-9.85694
-12.9006
-12.8473
-12.7389
-12.5713
-12.3388
-12.0335
-11.646
-11.1663
-10.586
-9.90404
-9.13616
-8.33071
-7.57116
-6.79168
-4.07941
-12.1127
-12.0573
-11.945
-11.7729
-11.5368
-11.2317
-10.8525
-10.3962
-9.86486
-9.27166
-8.65099
-8.07514
-7.69467
-7.95254
-11.2268
-11.3634
-11.3069
-11.1928
-11.019
-10.7828
-10.4812
-10.1126
-9.67835
-9.1867
-8.65836
-8.13471
-7.68394
-7.37493
-7.01817
-4.26708
-10.6533
-10.5965
-10.4821
-10.3085
-10.0741
-9.77734
-9.41826
-9.00039
-8.53404
-8.04185
-7.56786
-7.19433
-7.0884
-7.7461
-11.7779
-9.98271
-9.92614
-9.81238
-9.64034
-9.40877
-9.11678
-8.76481
-8.35612
-7.89935
-7.41272
-6.93127
-6.5189
-6.27164
-6.13053
-3.8471
-9.35144
-9.29553
-9.1832
-9.01354
-8.78543
-8.49792
-8.15077
-7.74527
-7.28545
-6.78001
-6.24674
-5.72885
-5.38121
-6.0023
-12.5719
-8.75902
-8.70412
-8.59387
-8.42735
-8.20337
-7.9205
-7.57728
-7.17217
-6.70324
-6.16666
-5.55155
-4.82058
-3.81809
-1.74275
6.26014
-8.20475
-8.1512
-8.04363
-7.88111
-7.66223
-7.38503
-7.04679
-6.64342
-6.16806
-5.60787
-4.93684
-4.1009
-3.00005
-1.59919
-1.46936
-7.68769
-7.63581
-7.53158
-7.37403
-7.16161
-6.89198
-6.56156
-6.16468
-5.6918
-5.12607
-4.43668
-3.5652
-2.39039
-0.572641
3.53626
-7.2067
-7.15681
-7.05658
-6.90508
-6.70075
-6.44116
-6.12251
-5.73876
-5.28005
-4.73017
-4.06299
-3.24019
-2.22724
-1.13685
-1.24964
-6.76038
-6.71279
-6.61722
-6.47285
-6.27829
-6.03138
-5.72869
-5.36491
-4.93163
-4.41577
-3.79739
-3.04723
-2.11791
-0.865207
1.65147
-6.34713
-6.30211
-6.21177
-6.07549
-5.89223
-5.66035
-5.37733
-5.03935
-4.6406
-4.17256
-3.62334
-2.9787
-2.23317
-1.47103
-1.46502
-5.96518
-5.92292
-5.83824
-5.71078
-5.53995
-5.32485
-5.06417
-4.756
-4.3977
-3.98575
-3.51558
-2.98027
-2.36
-1.55149
0.0911745
-5.61259
-5.57322
-5.49444
-5.37621
-5.21843
-5.02103
-4.784
-4.50749
-4.19209
-3.83939
-3.45308
-3.04084
-2.61758
-2.21093
-1.88036
-5.28737
-5.2509
-5.17808
-5.06912
-4.92444
-4.74476
-4.53128
-4.286
-4.01239
-3.71641
-3.4086
-3.10909
-2.86366
-2.81727
-3.62232
-4.98748
-4.95386
-4.88682
-4.78685
-4.65479
-4.49199
-4.30064
-4.08421
-3.84826
-3.60164
-3.35839
-3.1398
-2.97155
-2.83207
-2.2195
-4.71098
-4.68003
-4.61845
-4.52689
-4.4065
-4.25907
-4.08744
-3.89601
-3.69155
-3.48456
-3.29106
-3.13557
-3.0595
-3.17513
-4.09511
-4.45597
-4.4275
-4.37092
-4.28698
-4.17699
-4.04297
-3.88802
-3.71686
-3.53663
-3.35813
-3.19736
-3.0762
-3.01436
-2.95935
-2.2794
-4.22076
-4.19452
-4.1424
-4.06519
-3.96419
-3.84142
-3.69987
-3.54402
-3.38052
-3.21941
-3.07616
-2.97566
-2.96451
-3.17731
-4.3217
-4.00379
-3.97952
-3.93132
-3.85992
-3.76653
-3.65292
-3.52168
-3.37651
-3.22276
-3.06831
-2.9253
-2.81309
-2.75918
-2.74809
-2.16039
-3.80369
-3.78115
-3.73636
-3.66996
-3.58292
-3.47669
-3.35318
-3.21498
-3.0655
-2.90928
-2.75305
-2.61005
-2.52414
-2.71909
-4.58929
-3.61927
-3.59824
-3.55643
-3.49432
-3.41267
-3.31246
-3.19489
-3.06131
-2.91292
-2.75028
-2.57164
-2.36736
-2.09409
-1.5265
0.701704
-3.44946
-3.42978
-3.3906
-3.33228
-3.25532
-3.16029
-3.04774
-2.91792
-2.77026
-2.60241
-2.40804
-2.17261
-1.86844
-1.48696
-1.47856
-3.29332
-3.27487
-3.23808
-3.1832
-3.11053
-3.02031
-2.91261
-2.78692
-2.64164
-2.47297
-2.27298
-2.02559
-1.6965
-1.18818
-0.0244654
-3.15002
-3.1327
-3.09813
-3.04649
-2.97792
-2.89249
-2.78997
-2.66954
-2.52926
-2.3653
-2.17083
-1.93531
-1.64904
-1.34441
-1.39073
-3.01876
-3.00251
-2.97006
-2.92154
-2.85704
-2.77655
-2.67978
-2.56595
-2.43334
-2.27883
-2.0972
-1.88029
-1.61436
-1.25678
-0.531708
-2.8988
-2.88357
-2.85317
-2.8077
-2.74727
-2.67191
-2.58146
-2.4754
-2.35264
-2.21121
-2.04807
-1.85932
-1.64333
-1.42424
-1.42661
-2.78943
-2.77518
-2.74674
-2.70425
-2.64788
-2.57777
-2.49399
-2.39647
-2.2849
-2.15867
-2.01674
-1.85727
-1.67446
-1.4378
-0.957724
-2.68996
-2.67664
-2.65008
-2.61046
-2.55804
-2.49312
-2.41606
-2.3273
-2.22737
-2.11703
-1.99759
-1.87145
-1.74299
-1.6203
-1.52088
-2.59975
-2.5873
-2.56249
-2.52557
-2.47688
-2.4169
-2.34627
-2.2659
-2.17706
-2.08171
-1.98311
-1.88723
-1.80753
-1.78656
-2.01499
-2.5182
-2.50654
-2.48333
-2.44886
-2.40357
-2.34807
-2.28326
-2.21038
-2.13127
-2.04867
-1.96675
-1.89177
-1.83131
-1.77955
-1.59234
-2.44476
-2.43379
-2.41199
-2.37968
-2.33735
-2.28572
-2.22585
-2.1592
-2.08792
-2.01516
-1.94557
-1.88623
-1.84904
-1.86654
-2.11507
-2.37895
-2.36857
-2.34796
-2.31745
-2.27758
-2.22911
-2.17315
-2.11124
-2.0456
-1.97943
-1.9173
-1.8653
-1.82881
-1.79303
-1.58114
-2.32035
-2.31044
-2.2908
-2.26174
-2.22379
-2.17771
-2.12457
-2.06586
-2.00365
-1.94092
-1.88199
-1.8336
-1.80811
-1.84178
-2.12931
-2.26862
-2.25909
-2.24018
-2.21219
-2.17564
-2.13121
-2.07987
-2.02292
-1.96208
-1.89976
-1.83937
-1.78601
-1.74632
-1.71418
-1.52114
-2.22352
-2.21425
-2.19585
-2.16861
-2.13296
-2.08952
-2.03908
-1.98267
-1.92154
-1.85725
-1.79187
-1.72893
-1.67929
-1.69831
-2.13494
-2.18486
-2.17576
-2.15767
-2.13086
-2.09569
-2.05268
-2.00244
-1.94569
-1.88318
-1.81551
-1.74267
-1.6626
-1.56457
-1.39243
-0.808868
-2.15252
-2.1435
-2.12555
-2.09891
-2.06387
-2.02085
-1.97031
-1.91272
-1.84841
-1.77734
-1.6985
-1.60876
-1.50132
-1.37228
-1.32063
-2.12645
-2.11743
-2.09948
-2.07278
-2.03759
-1.99424
-1.94308
-1.88441
-1.81834
-1.74458
-1.6619
-1.56719
-1.45307
-1.29841
-1.00381
-2.10664
-2.09756
-2.07947
-2.05254
-2.01698
-1.97306
-1.92107
-1.86122
-1.79361
-1.718
-1.63365
-1.53909
-1.43297
-1.32177
-1.27512
-2.09314
-2.08394
-2.06561
-2.03828
-2.00216
-1.95749
-1.9045
-1.84343
-1.77442
-1.69749
-1.61248
-1.51901
-1.41638
-1.30037
-1.13236
-2.08602
-2.07665
-2.05798
-2.03013
-1.99329
-1.94768
-1.89354
-1.83114
-1.76073
-1.68259
-1.59716
-1.50529
-1.40908
-1.31516
-1.25461
-2.08541
-2.07582
-2.05672
-2.02822
-1.9905
-1.94378
-1.88832
-1.82441
-1.75239
-1.67275
-1.58632
-1.49458
-1.40018
-1.30685
-1.21201
-2.09144
-2.0816
-2.06198
-2.0327
-1.99395
-1.94595
-1.88897
-1.8233
-1.74933
-1.66763
-1.57916
-1.4857
-1.39054
-1.29968
-1.22635
-2.1043
-2.09416
-2.07393
-2.04376
-2.00382
-1.95436
-1.89564
-1.82794
-1.75163
-1.66719
-1.57545
-1.47799
-1.37789
-1.28042
-1.18978
-2.12421
-2.11371
-2.09278
-2.06158
-2.0203
-1.96919
-1.90852
-1.83856
-1.75957
-1.67182
-1.5757
-1.47211
-1.3634
-1.25653
-1.18024
-2.15139
-2.14049
-2.11877
-2.08639
-2.04359
-1.99065
-1.92785
-1.85545
-1.77359
-1.68224
-1.58113
-1.46978
-1.34762
-1.21152
-1.02776
-2.18614
-2.17478
-2.15214
-2.11843
-2.07392
-2.01894
-1.95384
-1.87889
-1.79419
-1.69943
-1.59365
-1.47496
-1.34149
-1.19974
-1.12271
-2.22878
-2.21688
-2.19319
-2.15796
-2.11151
-2.05426
-1.98665
-1.9091
-1.82176
-1.72428
-1.61512
-1.49039
-1.34111
-1.14313
-0.789145
-2.27966
-2.26715
-2.24226
-2.20527
-2.15659
-2.09675
-2.02637
-1.94608
-1.85637
-1.75722
-1.64739
-1.52284
-1.37454
-1.195
-1.09331
-2.33923
-2.32601
-2.29972
-2.26068
-2.20941
-2.14655
-2.07295
-1.98959
-1.89751
-1.79758
-1.68988
-1.57179
-1.42964
-1.19295
-0.443321
-2.40797
-2.39392
-2.36601
-2.32459
-2.27025
-2.20379
-2.1263
-2.03915
-1.9441
-1.84331
-1.73956
-1.63742
-1.55039
-1.54726
-2.06502
-2.48645
-2.47146
-2.44166
-2.39746
-2.3395
-2.26869
-2.18633
-2.09418
-1.99466
-1.89108
-1.78812
-1.69256
-1.61284
-1.54002
-1.25404
-2.57533
-2.55926
-2.5273
-2.47988
-2.41765
-2.3416
-2.25315
-2.15433
-2.04802
-1.93839
-1.83153
-1.73668
-1.67046
-1.681
-2.02819
-2.67536
-2.65807
-2.62367
-2.57256
-2.50538
-2.4231
-2.32716
-2.21965
-2.10367
-1.98378
-1.86657
-1.7609
-1.67477
-1.5884
-1.25972
-2.78738
-2.76874
-2.73164
-2.6764
-2.60359
-2.51408
-2.40918
-2.29084
-2.16203
-2.0273
-1.89358
-1.77153
-1.6792
-1.66429
-1.97875
-2.91233
-2.89224
-2.85218
-2.79241
-2.71337
-2.61574
-2.50051
-2.36927
-2.22448
-2.07009
-1.91246
-1.76149
-1.62985
-1.51167
-1.20041
-3.05121
-3.02958
-2.98638
-2.92179
-2.83606
-2.72959
-2.60296
-2.4571
-2.29358
-2.11512
-1.92671
-1.73803
-1.5711
-1.49336
-1.79748
-3.20511
-3.18187
-3.13543
-3.06583
-2.97314
-2.85742
-2.71874
-2.55718
-2.37304
-2.16705
-1.94112
-1.69943
-1.45041
-1.21008
-1.01421
-3.37513
-3.35027
-3.30054
-3.22589
-3.12619
-3.00119
-2.85038
-2.67294
-2.46764
-2.23282
-1.96646
-1.6659
-1.32366
-0.896151
-0.0949213
-3.56239
-3.53592
-3.48294
-3.40333
-3.29681
-3.16286
-3.00049
-2.80802
-2.58272
-2.32047
-2.01552
-1.66129
-1.25608
-0.841987
-0.787649
-3.76801
-3.73996
-3.68382
-3.59942
-3.48646
-3.34424
-3.17149
-2.96588
-2.72345
-2.43774
-2.0988
-1.69207
-1.19465
-0.538224
0.72576
-3.9931
-3.96351
-3.90429
-3.81535
-3.6964
-3.54681
-3.36528
-3.14929
-2.89422
-2.59197
-2.22914
-1.78582
-1.24362
-0.65661
-0.654563
-4.23871
-4.2076
-4.14539
-4.05209
-3.9276
-3.77155
-3.58299
-3.35982
-3.09772
-2.78826
-2.41534
-1.9482
-1.32367
-0.369014
1.73801
-4.50592
-4.47327
-4.40806
-4.31047
-4.18069
-4.01884
-3.82472
-3.59737
-3.3341
-3.02859
-2.66697
-2.21988
-1.63295
-0.881914
-0.75306
-4.79577
-4.76152
-4.69321
-4.59119
-4.45604
-4.28852
-4.08951
-3.85985
-3.59978
-3.30787
-2.97793
-2.58864
-2.05616
-0.962988
3.19218
-5.10939
-5.07342
-5.00174
-4.8949
-4.75385
-4.58004
-4.37558
-4.14341
-3.88756
-3.61355
-3.33007
-3.05683
-2.86871
-3.1707
-6.52702
-5.44797
-5.4101
-5.33466
-5.22234
-5.07438
-4.89282
-4.68086
-4.44342
-4.18793
-3.92578
-3.6751
-3.46588
-3.34088
-3.25758
-2.02706
-5.81283
-5.77284
-5.69317
-5.57451
-5.41823
-5.22669
-5.00382
-4.75593
-4.49289
-4.23003
-3.99132
-3.81644
-3.78406
-4.1414
-6.25133
-6.20544
-6.16313
-6.07872
-5.95279
-5.78655
-5.5823
-5.34414
-5.07894
-4.79772
-4.51748
-4.2632
-4.06802
-3.95658
-3.8084
-2.36209
-6.62741
-6.58262
-6.49309
-6.35905
-6.18124
-5.96144
-5.70321
-5.41305
-5.10186
-4.78689
-4.49402
-4.26143
-4.15457
-4.37714
-6.15553
-7.08047
-7.03316
-6.93833
-6.79567
-6.60508
-6.36725
-6.08444
-5.76173
-5.4086
-5.04094
-4.68297
-4.36752
-4.12377
-3.8657
-2.49693
-7.56634
-7.51669
-7.41678
-7.26554
-7.06169
-6.80426
-6.49336
-6.13152
-5.72541
-5.28823
-4.84237
-4.4238
-4.10288
-4.12586
-5.82717
-8.08668
-8.03509
-7.93085
-7.77193
-7.5555
-7.27837
-6.93765
-6.53203
-6.06379
-5.54154
-4.9828
-4.41225
-3.84315
-3.22076
-2.39954
-8.64282
-8.59003
-8.48287
-8.31822
-8.09145
-7.79662
-7.42697
-6.976
-6.43965
-5.82016
-5.13144
-4.39967
-3.62041
-2.45399
1.59836
-9.23559
-9.18269
-9.07479
-8.90762
-8.67463
-8.3668
-7.97274
-7.47924
-6.87322
-6.14685
-5.30995
-4.42006
-3.6665
-3.6916
-7.27961
-9.86508
-9.81352
-9.70783
-9.54271
-9.30975
-8.99684
-8.58755
-8.0606
-7.39034
-6.55027
-5.52525
-4.34576
-3.17186
-2.45524
-2.9593
-10.5303
-10.4819
-10.3821
-10.2249
-10.0004
-9.69378
-9.28403
-8.74146
-8.02537
-7.08211
-5.84782
-4.26757
-2.35961
-0.371466
1.01095
-11.2292
-11.1859
-11.0962
-10.9538
-10.7479
-10.4623
-10.0727
-9.5428
-8.81815
-7.81603
-6.41062
-4.41695
-1.60301
2.13268
5.94116
-11.9582
-11.9221
-11.847
-11.7267
-11.5508
-11.3031
-10.9588
-10.4793
-9.80357
-8.83
-7.38194
-5.13597
-1.48647
4.58598
13.5161
-12.7121
-12.6853
-12.6291
-12.5382
-12.4035
-12.211
-11.9387
-11.5522
-10.9958
-10.1734
-8.90736
-6.82966
-3.05249
5.05451
27.2924
-154.089
-92.5371
-64.643
-51.3132
-44.173
-39.9076
-37.1355
-35.2235
-33.8523
-32.8469
-32.1053
-31.565
-31.187
-30.9467
-30.8299
-191.819
-86.5768
-57.3936
-46.1465
-40.5044
-37.1515
-34.9439
-33.3959
-32.2685
-31.4312
-30.8072
-30.3489
-30.0264
-29.8206
-29.7203
49.7879
-27.7992
-37.6884
-37.0874
-35.2459
-33.6002
-32.294
-31.276
-30.4833
-29.8674
-29.3939
-29.0385
-28.7846
-28.6211
-28.5409
-7.14706
-16.0348
-25.2681
-28.8897
-29.8515
-29.8128
-29.444
-28.9996
-28.5752
-28.2046
-27.8984
-27.6575
-27.4801
-27.3636
-27.3059
27.5327
-4.03133
-16.7448
-22.539
-25.1517
-26.2548
-26.6463
-26.7094
-26.6295
-26.4972
-26.3574
-26.2324
-26.1332
-26.0652
-26.0307
-1.31074
-5.11928
-13.0266
-18.3975
-21.5004
-23.1907
-24.0765
-24.5185
-24.7201
-24.7949
-24.8061
-24.7893
-24.7647
-24.7434
-24.7315
12.2394
-3.36164
-11.0696
-15.831
-18.8299
-20.6854
-21.8149
-22.4944
-22.8989
-23.1367
-23.2741
-23.3516
-23.3937
-23.4151
-23.4239
-3.12518
-7.086
-11.159
-14.4883
-16.9533
-18.6842
-19.8658
-20.6612
-21.1932
-21.5481
-21.7837
-21.9384
-22.0371
-22.0954
-22.1225
-15.7393
-10.7332
-11.7647
-13.7458
-15.5865
-17.0644