/*--------------------------------*- C++ -*----------------------------------*\
| =========                 |                                                 |
| \\      /  F ield         | OpenFOAM: The Open Source CFD Toolbox           |
|  \\    /   O peration     | Version:  5.x                                   |
|   \\  /    A nd           | Web:      www.OpenFOAM.org                      |
|    \\/     M anipulation  |                                                 |
\*---------------------------------------------------------------------------*/
FoamFile
{
    version     2.0;
    format      ascii;
    class       volScalarField;
    location    "3";
    object      T;
}
// * * * * * * * * * * * * * * * * * * * * * * * * * * * * * * * * * * * * * //

dimensions      [0 0 0 1 0 0 0];

internalField   nonuniform List<scalar> 
6300
(
322.85
322.55
322.249
321.947
321.642
321.334
321.022
320.706
320.386
320.06
319.729
319.393
319.05
318.702
318.348
322.851
322.551
322.251
321.949
321.645
321.337
321.026
320.711
320.391
320.066
319.735
319.398
319.056
318.708
318.353
322.851
322.553
322.255
321.954
321.651
321.345
321.035
320.72
320.401
320.077
319.746
319.41
319.068
318.719
318.364
322.852
322.557
322.26
321.961
321.66
321.356
321.047
320.735
320.417
320.093
319.764
319.428
319.086
318.737
318.382
322.854
322.561
322.267
321.971
321.672
321.371
321.065
320.754
320.438
320.116
319.788
319.452
319.11
318.761
318.405
322.856
322.566
322.276
321.983
321.688
321.39
321.087
320.779
320.465
320.145
319.818
319.484
319.142
318.792
318.435
322.858
322.573
322.287
321.998
321.707
321.413
321.114
320.809
320.499
320.181
319.856
319.523
319.181
318.83
318.471
322.86
322.58
322.299
322.016
321.73
321.441
321.146
320.846
320.539
320.225
319.902
319.57
319.229
318.877
318.516
322.863
322.589
322.314
322.037
321.757
321.473
321.184
320.889
320.587
320.277
319.958
319.628
319.287
318.934
318.57
322.867
322.6
322.331
322.061
321.788
321.51
321.228
320.939
320.643
320.338
320.023
319.696
319.356
319.003
318.634
322.87
322.611
322.35
322.088
321.822
321.553
321.278
320.997
320.708
320.41
320.1
319.778
319.44
319.085
318.712
322.875
322.624
322.372
322.118
321.861
321.6
321.334
321.062
320.782
320.493
320.191
319.874
319.54
319.186
318.809
322.879
322.638
322.395
322.15
321.903
321.652
321.397
321.136
320.866
320.588
320.296
319.989
319.661
319.31
318.93
322.884
322.652
322.42
322.185
321.949
321.709
321.466
321.217
320.96
320.695
320.417
320.123
319.806
319.462
319.086
322.889
322.668
322.446
322.223
321.998
321.77
321.54
321.305
321.064
320.815
320.555
320.279
319.979
319.645
319.276
318.018
317.714
317.407
317.097
316.783
316.466
316.147
315.825
315.501
315.174
314.846
314.516
314.184
313.851
313.516
313.181
312.845
312.509
312.172
311.835
311.498
311.161
310.823
310.486
310.149
309.811
309.474
309.136
308.799
308.461
308.124
307.787
307.451
307.115
306.779
306.443
306.109
305.774
305.44
305.106
304.772
304.439
304.105
303.772
303.44
303.108
302.776
302.444
302.114
301.783
301.453
301.124
300.795
300.467
300.139
299.812
299.484
299.158
298.831
298.505
298.179
297.854
297.53
297.206
296.883
296.56
296.238
295.917
295.596
295.275
294.955
294.636
294.317
293.998
293.68
293.363
293.045
292.729
292.412
292.097
291.781
291.466
291.15
290.835
290.519
290.203
289.886
289.568
289.249
288.929
318.023
317.719
317.412
317.101
316.787
316.47
316.151
315.828
315.504
315.177
314.848
314.518
314.186
313.852
313.518
313.182
312.846
312.509
312.173
311.835
311.498
311.161
310.824
310.486
310.149
309.811
309.474
309.136
308.799
308.461
308.124
307.787
307.45
307.114
306.778
306.443
306.108
305.773
305.439
305.105
304.772
304.438
304.105
303.772
303.439
303.107
302.775
302.444
302.113
301.782
301.453
301.123
300.795
300.467
300.139
299.811
299.484
299.157
298.83
298.504
298.179
297.853
297.529
297.205
296.882
296.559
296.237
295.916
295.595
295.275
294.955
294.635
294.316
293.998
293.68
293.362
293.045
292.728
292.412
292.096
291.781
291.466
291.151
290.835
290.52
290.204
289.887
289.569
289.25
288.93
318.034
317.73
317.422
317.11
316.796
316.478
316.158
315.835
315.51
315.183
314.853
314.522
314.19
313.855
313.52
313.184
312.848
312.51
312.173
311.836
311.498
311.161
310.824
310.486
310.149
309.811
309.474
309.136
308.798
308.461
308.123
307.786
307.449
307.113
306.777
306.442
306.107
305.772
305.438
305.105
304.771
304.437
304.104
303.771
303.438
303.106
302.774
302.442
302.111
301.781
301.451
301.122
300.793
300.465
300.138
299.81
299.483
299.156
298.829
298.503
298.177
297.852
297.527
297.203
296.88
296.557
296.235
295.914
295.593
295.273
294.954
294.634
294.315
293.996
293.678
293.36
293.043
292.726
292.41
292.095
291.78
291.466
291.151
290.836
290.521
290.206
289.889
289.572
289.253
288.933
318.05
317.745
317.436
317.124
316.808
316.49
316.169
315.845
315.519
315.191
314.861
314.529
314.195
313.86
313.524
313.187
312.849
312.512
312.174
311.836
311.498
311.161
310.824
310.486
310.149
309.811
309.474
309.136
308.798
308.46
308.122
307.784
307.447
307.111
306.775
306.44
306.105
305.771
305.437
305.103
304.77
304.436
304.103
303.77
303.437
303.104
302.771
302.44
302.108
301.778
301.449
301.12
300.791
300.464
300.136
299.809
299.481
299.154
298.827
298.501
298.175
297.849
297.524
297.2
296.877
296.554
296.233
295.912
295.591
295.271
294.952
294.632
294.313
293.994
293.676
293.358
293.041
292.724
292.408
292.093
291.779
291.465
291.152
290.838
290.524
290.209
289.893
289.576
289.258
288.938
318.072
317.766
317.456
317.142
316.825
316.506
316.183
315.859
315.532
315.203
314.871
314.538
314.203
313.867
313.529
313.191
312.852
312.513
312.174
311.836
311.498
311.161
310.824
310.487
310.149
309.812
309.474
309.136
308.797
308.458
308.12
307.782
307.444
307.107
306.772
306.437
306.102
305.769
305.435
305.102
304.769
304.435
304.102
303.768
303.434
303.101
302.768
302.436
302.105
301.774
301.445
301.116
300.789
300.461
300.134
299.807
299.48
299.153
298.825
298.498
298.171
297.845
297.52
297.196
296.872
296.55
296.229
295.908
295.588
295.269
294.949
294.63
294.311
293.992
293.673
293.355
293.037
292.721
292.405
292.09
291.777
291.464
291.152
290.84
290.527
290.214
289.899
289.583
289.265
288.944
318.101
317.792
317.48
317.165
316.846
316.525
316.201
315.876
315.547
315.217
314.885
314.55
314.213
313.875
313.535
313.195
312.854
312.514
312.174
311.835
311.497
311.16
310.824
310.487
310.15
309.813
309.475
309.136
308.797
308.457
308.118
307.778
307.44
307.103
306.767
306.433
306.099
305.766
305.433
305.101
304.768
304.435
304.101
303.766
303.432
303.097
302.764
302.431
302.099
301.769
301.44
301.112
300.785
300.459
300.132
299.805
299.478
299.151
298.823
298.495
298.167
297.84
297.514
297.19
296.866
296.545
296.224
295.904
295.585
295.266
294.947
294.628
294.308
293.989
293.669
293.35
293.032
292.715
292.4
292.086
291.774
291.463
291.153
290.843
290.532
290.221
289.908
289.592
289.274
288.954
318.135
317.825
317.51
317.192
316.871
316.548
316.223
315.896
315.566
315.235
314.901
314.564
314.225
313.884
313.542
313.199
312.856
312.514
312.173
311.833
311.496
311.159
310.823
310.488
310.152
309.815
309.476
309.137
308.797
308.456
308.114
307.774
307.435
307.097
306.761
306.427
306.094
305.763
305.431
305.1
304.768
304.434
304.1
303.765
303.429
303.093
302.758
302.424
302.092
301.762
301.434
301.107
300.781
300.456
300.13
299.804
299.477
299.149
298.82
298.491
298.162
297.834
297.507
297.182
296.858
296.537
296.218
295.899
295.581
295.263
294.945
294.626
294.306
293.986
293.665
293.345
293.026
292.708
292.393
292.08
291.769
291.46
291.153
290.846
290.538
290.23
289.919
289.605
289.288
288.967
318.177
317.863
317.544
317.223
316.899
316.573
316.247
315.918
315.588
315.256
314.921
314.582
314.24
313.896
313.55
313.203
312.857
312.512
312.169
311.829
311.492
311.157
310.823
310.489
310.154
309.818
309.48
309.14
308.797
308.454
308.11
307.767
307.426
307.088
306.752
306.419
306.088
305.759
305.43
305.1
304.769
304.436
304.101
303.764
303.426
303.088
302.75
302.415
302.082
301.752
301.425
301.1
300.776
300.453
300.129
299.804
299.478
299.149
298.818
298.487
298.156
297.825
297.497
297.171
296.848
296.527
296.21
295.893
295.577
295.261
294.944
294.625
294.304
293.983
293.66
293.337
293.016
292.698
292.382
292.07
291.761
291.455
291.152
290.849
290.546
290.242
289.935
289.624
289.307
288.985
318.226
317.907
317.583
317.257
316.929
316.601
316.273
315.944
315.614
315.281
314.945
314.604
314.259
313.911
313.559
313.206
312.855
312.506
312.162
311.821
311.485
311.152
310.821
310.491
310.159
309.825
309.487
309.145
308.8
308.453
308.105
307.758
307.415
307.075
306.74
306.408
306.081
305.755
305.429
305.102
304.773
304.44
304.104
303.765
303.423
303.081
302.74
302.402
302.068
301.739
301.413
301.091
300.771
300.451
300.13
299.807
299.481
299.151
298.818
298.483
298.148
297.814
297.483
297.156
296.833
296.514
296.199
295.886
295.574
295.26
294.945
294.627
294.305
293.98
293.654
293.328
293.004
292.683
292.367
292.055
291.749
291.448
291.149
290.853
290.556
290.258
289.957
289.649
289.334
289.011
318.284
317.958
317.627
317.293
316.959
316.628
316.299
315.972
315.643
315.312
314.976
314.633
314.284
313.929
313.569
313.208
312.849
312.495
312.148
311.808
311.474
311.145
310.82
310.495
310.168
309.836
309.499
309.155
308.806
308.452
308.098
307.745
307.397
307.056
306.721
306.393
306.07
305.75
305.43
305.108
304.782
304.45
304.112
303.768
303.421
303.072
302.725
302.383
302.048
301.719
301.396
301.079
300.765
300.451
300.135
299.814
299.489
299.157
298.82
298.48
298.138
297.798
297.463
297.134
296.812
296.497
296.186
295.879
295.572
295.263
294.95
294.633
294.309
293.981
293.649
293.316
292.986
292.662
292.344
292.033
291.731
291.435
291.144
290.856
290.569
290.28
289.986
289.685
289.373
289.049
318.354
318.017
317.673
317.328
316.987
316.652
316.324
316
315.677
315.35
315.015
314.672
314.317
313.953
313.581
313.207
312.837
312.475
312.124
311.784
311.455
311.134
310.818
310.502
310.182
309.856
309.52
309.174
308.817
308.454
308.088
307.725
307.37
307.026
306.693
306.37
306.055
305.744
305.434
305.12
304.799
304.468
304.128
303.778
303.42
303.061
302.704
302.355
302.017
301.69
301.373
301.063
300.758
300.453
300.145
299.83
299.505
299.171
298.828
298.478
298.125
297.776
297.434
297.103
296.782
296.471
296.168
295.87
295.572
295.271
294.963
294.647
294.321
293.986
293.645
293.301
292.961
292.63
292.309
292.001
291.703
291.415
291.135
290.859
290.584
290.309
290.028
289.736
289.429
289.103
318.44
318.086
317.721
317.357
317.005
316.668
316.343
316.028
315.716
315.397
315.069
314.725
314.365
313.988
313.597
313.201
312.812
312.438
312.083
311.745
311.424
311.116
310.815
310.514
310.207
309.889
309.556
309.206
308.839
308.459
308.073
307.694
307.328
306.981
306.65
306.336
306.033
305.738
305.443
305.141
304.829
304.501
304.157
303.797
303.423
303.044
302.671
302.312
301.971
301.646
301.338
301.04
300.75
300.46
300.164
299.858
299.536
299.199
298.845
298.479
298.107
297.742
297.39
297.056
296.738
296.435
296.144
295.861
295.577
295.288
294.988
294.675
294.345
294
293.643
293.28
292.925
292.583
292.258
291.951
291.661
291.384
291.119
290.859
290.602
290.345
290.084
289.809
289.512
289.184
318.551
318.173
317.765
317.371
317.001
316.663
316.349
316.053
315.762
315.46
315.143
314.802
314.437
314.041
313.622
313.184
312.767
312.375
312.016
311.683
311.376
311.087
310.811
310.536
310.248
309.944
309.616
309.263
308.88
308.473
308.048
307.642
307.26
306.91
306.585
306.285
306.001
305.731
305.461
305.179
304.88
304.558
304.211
303.835
303.435
303.018
302.619
302.244
301.9
301.581
301.286
301.007
300.742
300.477
300.2
299.907
299.59
299.25
298.881
298.489
298.08
297.689
297.321
296.984
296.671
296.382
296.11
295.85
295.591
295.32
295.034
294.725
294.393
294.032
293.649
293.25
292.868
292.51
292.182
291.878
291.599
291.338
291.093
290.855
290.618
290.388
290.159
289.916
289.639
289.31
318.71
318.305
317.787
317.351
316.952
316.625
316.326
316.072
315.824
315.545
315.253
314.913
314.555
314.128
313.672
313.137
312.685
312.264
311.912
311.582
311.302
311.037
310.806
310.576
310.312
310.035
309.71
309.365
308.953
308.513
307.995
307.556
307.147
306.805
306.483
306.209
305.95
305.724
305.497
305.239
304.967
304.648
304.309
303.905
303.473
302.964
302.533
302.131
301.795
301.479
301.21
300.955
300.733
300.511
300.257
299.99
299.677
299.345
298.948
298.524
298.025
297.602
297.208
296.879
296.569
296.306
296.057
295.839
295.622
295.374
295.113
294.807
294.482
294.094
293.68
293.192
292.779
292.393
292.072
291.769
291.512
291.269
291.059
290.851
290.623
290.431
290.256
290.07
289.841
289.522
318.96
318.599
317.693
317.279
316.798
316.548
316.238
316.083
315.932
315.646
315.433
315.051
314.77
314.255
313.838
312.971
312.558
312.051
311.778
311.41
311.207
310.94
310.801
310.662
310.396
310.195
309.832
309.564
309.068
308.666
307.828
307.428
306.936
306.669
306.312
306.113
305.852
305.716
305.58
305.319
305.122
304.766
304.502
304.015
303.621
302.798
302.405
301.922
301.66
301.309
301.114
300.857
300.724
300.591
300.334
300.14
299.791
299.532
299.054
298.668
297.861
297.475
297.001
296.745
296.401
296.21
295.958
295.828
295.697
295.446
295.257
294.915
294.662
294.195
293.817
293.027
292.65
292.185
291.933
291.594
291.405
291.152
291.019
290.878
290.575
290.448
290.368
290.288
290.171
289.931
288.576
288.19
287.803
287.416
287.028
286.64
286.253
285.867
285.482
285.097
284.714
284.332
283.951
283.57
283.19
288.577
288.191
287.804
287.416
287.028
286.64
286.252
285.866
285.48
285.096
284.713
284.331
283.95
283.57
283.19
288.58
288.193
287.805
287.416
287.027
286.639
286.251
285.864
285.478
285.094
284.711
284.329
283.949
283.569
283.19
288.584
288.196
287.807
287.417
287.027
286.637
286.248
285.86
285.475
285.09
284.708
284.326
283.947
283.568
283.189
288.59
288.2
287.809
287.417
287.025
286.634
286.244
285.856
285.469
285.085
284.703
284.322
283.943
283.566
283.188
288.598
288.207
287.813
287.418
287.024
286.63
286.238
285.849
285.462
285.078
284.696
284.317
283.939
283.563
283.188
288.609
288.215
287.818
287.419
287.021
286.624
286.23
285.839
285.452
285.068
284.687
284.309
283.934
283.559
283.186
288.625
288.227
287.824
287.419
287.016
286.615
286.218
285.826
285.438
285.055
284.676
284.3
283.926
283.555
283.185
288.648
288.242
287.831
287.419
287.009
286.603
286.202
285.808
285.42
285.038
284.661
284.287
283.917
283.549
283.183
288.679
288.263
287.84
287.416
286.997
286.585
286.18
285.785
285.397
285.016
284.641
284.272
283.906
283.542
283.181
288.724
288.29
287.849
287.41
286.978
286.558
286.15
285.753
285.366
284.988
284.617
284.252
283.891
283.534
283.178
288.788
288.326
287.856
287.395
286.948
286.52
286.108
285.711
285.327
284.953
284.587
284.228
283.874
283.523
283.174
288.882
288.369
287.856
287.364
286.901
286.465
286.051
285.657
285.277
284.909
284.551
284.2
283.853
283.511
283.17
289.022
288.413
287.834
287.306
286.827
286.386
285.976
285.587
285.215
284.857
284.508
284.166
283.829
283.496
283.165
289.227
288.428
287.759
287.199
286.713
286.278
285.878
285.501
285.141
284.794
284.457
284.127
283.801
283.48
283.16
322.894
322.683
322.471
322.259
322.045
321.829
321.611
321.391
321.166
320.935
320.696
320.444
320.168
319.846
319.428
322.899
322.697
322.495
322.292
322.089
321.884
321.679
321.471
321.262
321.05
320.834
320.61
320.372
320.096
319.678
322.904
322.711
322.519
322.326
322.134
321.941
321.747
321.554
321.361
321.168
320.976
320.786
320.604
320.443
320.389
322.909
322.726
322.543
322.361
322.178
321.997
321.816
321.636
321.459
321.285
321.116
320.958
320.819
320.717
320.681
322.913
322.74
322.567
322.395
322.223
322.052
321.884
321.717
321.555
321.398
321.25
321.117
321.009
320.946
320.97
322.918
322.754
322.591
322.428
322.267
322.107
321.95
321.796
321.647
321.505
321.373
321.258
321.167
321.114
321.105
322.923
322.768
322.614
322.461
322.309
322.16
322.013
321.871
321.734
321.604
321.485
321.382
321.3
321.25
321.249
322.927
322.781
322.636
322.492
322.35
322.21
322.074
321.942
321.815
321.696
321.587
321.491
321.411
321.352
321.315
322.931
322.794
322.658
322.523
322.389
322.259
322.132
322.009
321.892
321.781
321.68
321.588
321.509
321.439
321.369
322.935
322.807
322.678
322.552
322.427
322.305
322.186
322.072
321.963
321.86
321.765
321.678
321.598
321.526
321.463
322.939
322.818
322.698
322.579
322.463
322.349
322.238
322.132
322.03
321.934
321.845
321.761
321.683
321.607
321.524
322.943
322.83
322.717
322.606
322.497
322.39
322.287
322.188
322.093
322.004
321.92
321.841
321.767
321.694
321.626
322.947
322.84
322.735
322.631
322.529
322.429
322.333
322.241
322.153
322.07
321.992
321.919
321.848
321.777
321.693
322.95
322.85
322.751
322.654
322.559
322.466
322.376
322.291
322.209
322.133
322.061
321.994
321.931
321.869
321.808
322.953
322.86
322.767
322.676
322.587
322.5
322.417
322.337
322.262
322.192
322.127
322.067
322.012
321.959
321.892
322.956
322.869
322.782
322.697
322.614
322.533
322.455
322.381
322.312
322.247
322.188
322.136
322.092
322.06
322.057
322.959
322.877
322.796
322.716
322.638
322.563
322.491
322.422
322.358
322.299
322.246
322.2
322.164
322.14
322.132
322.961
322.885
322.809
322.734
322.661
322.591
322.523
322.46
322.4
322.346
322.298
322.257
322.226
322.209
322.215
322.964
322.892
322.821
322.751
322.683
322.617
322.554
322.494
322.439
322.389
322.344
322.308
322.28
322.263
322.257
322.966
322.899
322.832
322.766
322.702
322.641
322.582
322.526
322.475
322.428
322.386
322.352
322.325
322.309
322.308
322.968
322.905
322.842
322.781
322.721
322.663
322.607
322.555
322.507
322.462
322.423
322.39
322.364
322.345
322.334
322.97
322.911
322.852
322.794
322.737
322.683
322.631
322.582
322.536
322.494
322.456
322.423
322.397
322.376
322.365
322.972
322.916
322.86
322.806
322.753
322.702
322.652
322.606
322.562
322.522
322.486
322.453
322.425
322.401
322.381
322.974
322.921
322.868
322.817
322.767
322.719
322.672
322.628
322.587
322.548
322.512
322.48
322.45
322.422
322.394
322.975
322.925
322.876
322.827
322.78
322.734
322.69
322.648
322.609
322.571
322.537
322.504
322.474
322.445
322.417
322.976
322.929
322.883
322.837
322.792
322.749
322.707
322.667
322.629
322.593
322.559
322.527
322.497
322.466
322.433
322.978
322.933
322.889
322.846
322.803
322.762
322.723
322.684
322.648
322.614
322.581
322.55
322.52
322.49
322.46
322.979
322.937
322.895
322.854
322.814
322.775
322.737
322.701
322.666
322.633
322.602
322.571
322.542
322.512
322.479
322.98
322.94
322.9
322.861
322.823
322.786
322.75
322.716
322.683
322.651
322.621
322.593
322.565
322.537
322.51
322.981
322.943
322.905
322.868
322.832
322.797
322.762
322.73
322.698
322.668
322.64
322.613
322.588
322.563
322.533
322.982
322.946
322.91
322.875
322.84
322.806
322.774
322.742
322.713
322.684
322.658
322.633
322.61
322.591
322.58
322.983
322.948
322.914
322.88
322.847
322.815
322.784
322.754
322.726
322.699
322.674
322.651
322.63
322.613
322.601
322.984
322.951
322.918
322.886
322.854
322.824
322.794
322.765
322.738
322.713
322.689
322.667
322.648
322.633
322.624
322.984
322.953
322.922
322.891
322.861
322.831
322.803
322.775
322.749
322.725
322.702
322.681
322.663
322.648
322.637
322.985
322.955
322.925
322.895
322.866
322.838
322.811
322.785
322.76
322.736
322.714
322.694
322.676
322.662
322.651
322.985
322.957
322.928
322.899
322.872
322.845
322.818
322.793
322.769
322.746
322.724
322.705
322.687
322.672
322.659
322.986
322.958
322.931
322.903
322.876
322.85
322.825
322.8
322.777
322.755
322.734
322.714
322.697
322.681
322.668
322.987
322.96
322.933
322.907
322.881
322.856
322.831
322.807
322.784
322.763
322.742
322.723
322.705
322.688
322.672
322.987
322.961
322.935
322.91
322.885
322.86
322.836
322.813
322.791
322.77
322.749
322.73
322.712
322.694
322.676
322.987
322.962
322.937
322.913
322.888
322.865
322.841
322.819
322.797
322.776
322.756
322.737
322.718
322.7
322.683
322.988
322.963
322.939
322.915
322.891
322.868
322.846
322.824
322.803
322.782
322.762
322.743
322.725
322.706
322.687
322.988
322.964
322.941
322.917
322.894
322.872
322.85
322.828
322.808
322.787
322.768
322.749
322.731
322.713
322.695
322.988
322.965
322.942
322.919
322.897
322.875
322.853
322.832
322.812
322.792
322.773
322.755
322.737
322.719
322.7
322.989
322.966
322.943
322.921
322.899
322.878
322.857
322.836
322.816
322.797
322.778
322.76
322.742
322.725
322.708
322.989
322.967
322.945
322.923
322.901
322.88
322.859
322.839
322.82
322.801
322.783
322.765
322.748
322.731
322.714
322.989
322.967
322.946
322.924
322.903
322.882
322.862
322.842
322.823
322.804
322.787
322.77
322.753
322.738
322.726
322.989
322.968
322.946
322.925
322.904
322.884
322.864
322.845
322.826
322.808
322.79
322.774
322.758
322.744
322.731
322.989
322.968
322.947
322.926
322.906
322.885
322.866
322.847
322.828
322.81
322.793
322.777
322.762
322.748
322.736
322.989
322.968
322.948
322.927
322.906
322.886
322.867
322.848
322.83
322.812
322.795
322.78
322.765
322.751
322.738
322.99
322.969
322.948
322.927
322.907
322.887
322.868
322.849
322.831
322.814
322.797
322.781
322.767
322.753
322.741
322.99
322.969
322.948
322.928
322.907
322.888
322.868
322.85
322.832
322.815
322.798
322.783
322.768
322.754
322.742
322.99
322.969
322.948
322.928
322.907
322.888
322.869
322.85
322.832
322.815
322.799
322.783
322.769
322.755
322.743
322.99
322.969
322.948
322.927
322.907
322.888
322.868
322.85
322.832
322.815
322.799
322.783
322.769
322.755
322.743
322.989
322.968
322.948
322.927
322.907
322.887
322.868
322.849
322.831
322.814
322.798
322.782
322.768
322.755
322.743
322.989
322.968
322.947
322.926
322.906
322.886
322.866
322.848
322.83
322.813
322.796
322.781
322.767
322.754
322.742
322.989
322.968
322.946
322.925
322.905
322.884
322.865
322.846
322.828
322.81
322.794
322.779
322.765
322.752
322.74
322.989
322.967
322.946
322.924
322.903
322.883
322.863
322.844
322.825
322.808
322.791
322.776
322.762
322.749
322.738
322.989
322.967
322.945
322.923
322.901
322.88
322.86
322.841
322.822
322.804
322.788
322.772
322.758
322.745
322.735
322.989
322.966
322.943
322.921
322.899
322.878
322.857
322.837
322.818
322.8
322.783
322.767
322.753
322.74
322.729
322.988
322.965
322.942
322.919
322.897
322.875
322.854
322.833
322.814
322.795
322.778
322.762
322.746
322.733
322.723
322.988
322.964
322.94
322.917
322.894
322.871
322.849
322.829
322.809
322.79
322.772
322.755
322.739
322.724
322.708
322.988
322.963
322.938
322.914
322.89
322.867
322.845
322.823
322.803
322.783
322.765
322.748
322.731
322.715
322.7
322.987
322.961
322.936
322.911
322.886
322.862
322.839
322.817
322.796
322.776
322.758
322.74
322.723
322.706
322.689
322.987
322.96
322.933
322.907
322.882
322.857
322.834
322.811
322.789
322.769
322.749
322.731
322.714
322.698
322.682
322.986
322.958
322.931
322.904
322.877
322.852
322.827
322.803
322.781
322.76
322.74
322.722
322.705
322.689
322.672
322.985
322.956
322.928
322.899
322.872
322.845
322.819
322.795
322.772
322.751
322.731
322.712
322.695
322.68
322.665
322.985
322.954
322.924
322.895
322.866
322.838
322.811
322.786
322.762
322.74
322.72
322.701
322.685
322.67
322.655
322.984
322.952
322.92
322.889
322.859
322.83
322.802
322.775
322.751
322.728
322.707
322.689
322.673
322.66
322.649
322.983
322.949
322.916
322.883
322.852
322.821
322.792
322.764
322.738
322.715
322.693
322.675
322.66
322.649
322.642
322.982
322.947
322.911
322.877
322.843
322.811
322.78
322.751
322.724
322.699
322.678
322.659
322.644
322.634
322.627
322.981
322.944
322.906
322.87
322.834
322.8
322.767
322.737
322.708
322.682
322.659
322.64
322.626
322.616
322.615
322.98
322.94
322.901
322.862
322.824
322.788
322.753
322.721
322.69
322.663
322.639
322.618
322.603
322.593
322.59
322.979
322.936
322.895
322.854
322.814
322.775
322.738
322.703
322.671
322.641
322.615
322.593
322.576
322.567
322.569
322.977
322.932
322.888
322.844
322.802
322.761
322.721
322.684
322.649
322.618
322.589
322.564
322.544
322.532
322.527
322.976
322.928
322.881
322.834
322.789
322.745
322.703
322.663
322.626
322.591
322.56
322.532
322.508
322.491
322.489
322.974
322.923
322.873
322.823
322.775
322.728
322.683
322.641
322.601
322.563
322.528
322.496
322.467
322.439
322.404
322.973
322.918
322.865
322.812
322.76
322.71
322.662
322.617
322.573
322.533
322.495
322.459
322.426
322.392
322.36
322.971
322.913
322.855
322.799
322.744
322.691
322.639
322.591
322.544
322.501
322.46
322.421
322.383
322.345
322.301
322.969
322.907
322.846
322.785
322.727
322.67
322.615
322.563
322.513
322.467
322.423
322.382
322.342
322.302
322.265
322.967
322.901
322.835
322.771
322.708
322.647
322.589
322.533
322.48
322.431
322.385
322.341
322.3
322.258
322.212
322.965
322.894
322.824
322.755
322.688
322.623
322.561
322.501
322.445
322.393
322.345
322.299
322.257
322.217
322.18
322.962
322.887
322.812
322.738
322.666
322.597
322.53
322.467
322.408
322.353
322.302
322.256
322.214
322.174
322.131
322.96
322.879
322.799
322.72
322.643
322.569
322.498
322.43
322.367
322.309
322.256
322.209
322.168
322.132
322.104
322.957
322.87
322.785
322.701
322.619
322.539
322.463
322.39
322.323
322.262
322.207
322.159
322.119
322.087
322.07
322.954
322.862
322.77
322.68
322.592
322.507
322.425
322.347
322.275
322.21
322.152
322.103
322.064
322.03
321.99
322.951
322.852
322.754
322.658
322.563
322.472
322.384
322.3
322.222
322.152
322.091
322.042
322.004
321.978
321.955
322.947
322.842
322.738
322.634
322.533
322.434
322.339
322.249
322.164
322.088
322.023
321.971
321.937
321.924
321.93
322.944
322.832
322.72
322.61
322.501
322.395
322.292
322.193
322.101
322.017
321.945
321.889
321.856
321.857
321.899
322.94
322.821
322.702
322.584
322.467
322.353
322.241
322.134
322.032
321.937
321.855
321.79
321.752
321.76
321.844
322.936
322.809
322.683
322.557
322.432
322.309
322.188
322.07
321.957
321.85
321.753
321.672
321.617
321.611
321.718
289.441
288.325
287.59
287.032
286.564
286.148
285.766
285.405
285.061
284.728
284.404
284.086
283.773
283.463
283.154
289.046
287.965
287.314
286.817
286.391
286.007
285.648
285.308
284.98
284.663
284.352
284.046
283.745
283.446
283.148
287.488
287.306
286.932
286.552
286.191
285.847
285.519
285.201
284.893
284.592
284.296
284.004
283.715
283.428
283.143
286.876
286.78
286.555
286.275
285.977
285.678
285.381
285.089
284.801
284.517
284.237
283.959
283.684
283.41
283.136
286.297
286.344
286.216
286.009
285.765
285.506
285.24
284.973
284.706
284.44
284.176
283.913
283.651
283.391
283.13
286.035
286.029
285.932
285.768
285.564
285.338
285.101
284.857
284.61
284.362
284.114
283.866
283.619
283.371
283.124
285.763
285.777
285.695
285.556
285.379
285.179
284.965
284.743
284.515
284.285
284.052
283.819
283.585
283.351
283.117
285.641
285.592
285.499
285.368
285.209
285.029
284.836
284.632
284.422
284.208
283.991
283.773
283.553
283.332
283.111
285.543
285.437
285.329
285.201
285.054
284.89
284.713
284.526
284.332
284.134
283.931
283.727
283.52
283.313
283.104
285.376
285.282
285.172
285.048
284.91
284.759
284.596
284.425
284.246
284.062
283.873
283.682
283.489
283.294
283.098
285.267
285.14
285.025
284.905
284.775
284.636
284.486
284.328
284.163
283.993
283.817
283.639
283.458
283.275
283.092
285.087
284.989
284.881
284.768
284.648
284.519
284.382
284.237
284.084
283.926
283.764
283.598
283.429
283.258
283.086
284.97
284.845
284.741
284.636
284.527
284.409
284.283
284.15
284.01
283.864
283.713
283.558
283.401
283.241
283.08
284.772
284.688
284.6
284.508
284.41
284.304
284.19
284.068
283.939
283.804
283.664
283.52
283.374
283.225
283.075
284.628
284.533
284.461
284.385
284.3
284.206
284.102
283.991
283.872
283.748
283.618
283.485
283.348
283.21
283.07
284.347
284.362
284.325
284.268
284.196
284.113
284.02
283.918
283.81
283.695
283.575
283.451
283.325
283.196
283.065
284.221
284.226
284.205
284.161
284.1
284.027
283.944
283.851
283.751
283.646
283.535
283.42
283.302
283.182
283.061
284.081
284.11
284.099
284.065
284.013
283.949
283.873
283.789
283.697
283.6
283.497
283.391
283.281
283.17
283.057
284.011
284.02
284.01
283.981
283.936
283.877
283.809
283.732
283.648
283.557
283.462
283.364
283.262
283.158
283.053
283.928
283.944
283.935
283.908
283.867
283.814
283.751
283.68
283.602
283.518
283.43
283.338
283.244
283.147
283.049
283.885
283.885
283.872
283.845
283.806
283.756
283.698
283.632
283.56
283.483
283.401
283.315
283.227
283.137
283.046
283.835
283.835
283.818
283.79
283.752
283.705
283.651
283.589
283.522
283.45
283.374
283.294
283.212
283.128
283.043
283.811
283.795
283.773
283.743
283.705
283.66
283.608
283.551
283.488
283.42
283.349
283.275
283.198
283.119
283.04
283.79
283.761
283.733
283.701
283.663
283.619
283.57
283.515
283.456
283.393
283.326
283.257
283.185
283.112
283.037
283.754
283.727
283.696
283.662
283.624
283.582
283.535
283.483
283.428
283.368
283.306
283.24
283.173
283.105
283.035
283.73
283.694
283.661
283.626
283.589
283.548
283.503
283.454
283.401
283.346
283.287
283.226
283.163
283.098
283.033
283.69
283.66
283.627
283.593
283.556
283.517
283.474
283.427
283.378
283.325
283.27
283.212
283.153
283.092
283.031
283.664
283.627
283.594
283.561
283.526
283.488
283.447
283.403
283.356
283.306
283.254
283.2
283.144
283.087
283.029
283.619
283.591
283.561
283.53
283.497
283.461
283.423
283.381
283.336
283.289
283.24
283.189
283.136
283.082
283.027
283.587
283.556
283.529
283.501
283.471
283.437
283.4
283.361
283.318
283.274
283.227
283.178
283.128
283.077
283.026
283.525
283.518
283.499
283.474
283.446
283.414
283.38
283.342
283.302
283.26
283.215
283.169
283.122
283.073
283.025
283.497
283.488
283.471
283.45
283.424
283.394
283.361
283.326
283.287
283.247
283.205
283.161
283.116
283.07
283.023
283.467
283.462
283.448
283.428
283.404
283.376
283.345
283.311
283.274
283.236
283.195
283.154
283.11
283.067
283.022
283.453
283.443
283.429
283.41
283.387
283.36
283.33
283.297
283.263
283.226
283.187
283.147
283.106
283.064
283.021
283.436
283.427
283.413
283.394
283.372
283.346
283.317
283.286
283.252
283.217
283.18
283.141
283.102
283.061
283.02
283.428
283.416
283.4
283.382
283.359
283.334
283.306
283.276
283.243
283.209
283.173
283.136
283.098
283.059
283.02
283.418
283.406
283.39
283.371
283.349
283.324
283.297
283.267
283.236