/*--------------------------------*- C++ -*----------------------------------*\
| =========                 |                                                 |
| \\      /  F ield         | OpenFOAM: The Open Source CFD Toolbox           |
|  \\    /   O peration     | Version:  5.x                                   |
|   \\  /    A nd           | Web:      www.OpenFOAM.org                      |
|    \\/     M anipulation  |                                                 |
\*---------------------------------------------------------------------------*/
FoamFile
{
    version     2.0;
    format      ascii;
    class       volScalarField;
    location    "9.7";
    object      gradTy;
}
// * * * * * * * * * * * * * * * * * * * * * * * * * * * * * * * * * * * * * //

dimensions      [0 -1 0 1 0 0 0];

internalField   nonuniform List<scalar> 
2048
(
-26.4237
-26.3961
-26.3417
-26.2621
-26.1593
-26.0359
-25.8946
-25.7383
-25.5698
-25.3916
-25.2061
-25.0154
-24.8216
-24.6262
-24.4309
-24.2369
-24.0452
-23.8569
-23.6727
-23.4932
-23.3188
-23.1499
-22.9867
-22.8295
-22.6784
-22.5338
-22.396
-22.2651
-22.1418
-22.0263
-21.9193
-21.8214
-21.7334
-21.6561
-21.5903
-21.5373
-21.498
-21.4736
-21.4654
-21.4745
-21.5023
-21.5501
-21.6189
-21.7101
-21.8245
-21.9629
-22.1257
-22.3128
-22.5236
-22.7567
-23.0097
-23.2793
-23.5613
-23.8504
-24.1406
-24.4253
-24.6976
-24.9511
-25.1796
-25.3777
-25.5412
-25.6666
-25.7515
-25.7943
-26.446
-26.4178
-26.3621
-26.2808
-26.1759
-26.0503
-25.9067
-25.7482
-25.5776
-25.3974
-25.2102
-25.018
-24.8228
-24.6263
-24.4298
-24.2349
-24.0425
-23.8536
-23.669
-23.4891
-23.3144
-23.1453
-22.9819
-22.8245
-22.6732
-22.5284
-22.3903
-22.2591
-22.1354
-22.0195
-21.9119
-21.8135
-21.7247
-21.6466
-21.5801
-21.5262
-21.4859
-21.4605
-21.4513
-21.4594
-21.4862
-21.5329
-21.6009
-21.6913
-21.8051
-21.9432
-22.106
-22.2937
-22.5056
-22.7406
-22.9962
-23.2693
-23.5556
-23.8496
-24.1451
-24.4352
-24.7129
-24.9713
-25.2041
-25.4058
-25.572
-25.6994
-25.7855
-25.829
-26.4887
-26.4592
-26.4012
-26.3165
-26.2076
-26.0777
-25.9297
-25.7669
-25.5923
-25.4085
-25.2179
-25.0228
-24.825
-24.6261
-24.4277
-24.2311
-24.0373
-23.8473
-23.6617
-23.4812
-23.306
-23.1365
-22.9727
-22.815
-22.6634
-22.5181
-22.3795
-22.2478
-22.1233
-22.0066
-21.8981
-21.7984
-21.7084
-21.6289
-21.5608
-21.5051
-21.4631
-21.4359
-21.4247
-21.4308
-21.4557
-21.5005
-21.5667
-21.6555
-21.7681
-21.9055
-22.0684
-22.257
-22.4711
-22.7095
-22.9701
-23.2498
-23.5442
-23.8476
-24.1534
-24.4541
-24.7421
-25.01
-25.251
-25.4595
-25.6309
-25.7619
-25.8504
-25.895
-26.5499
-26.5185
-26.4569
-26.3673
-26.2526
-26.1163
-25.9619
-25.793
-25.6126
-25.4237
-25.2285
-25.0293
-24.8278
-24.6257
-24.4245
-24.2255
-24.0297
-23.8381
-23.6513
-23.4699
-23.2941
-23.124
-22.9599
-22.8017
-22.6496
-22.5037
-22.3644
-22.2318
-22.1064
-21.9885
-21.8786
-21.7774
-21.6856
-21.604
-21.5336
-21.4756
-21.431
-21.4011
-21.3872
-21.3906
-21.4126
-21.4547
-21.5184
-21.6049
-21.7157
-21.8519
-22.0146
-22.2044
-22.4212
-22.6643
-22.932
-23.2211
-23.5271
-23.8441
-24.1649
-24.481
-24.784
-25.0656
-25.3184
-25.5364
-25.7151
-25.8512
-25.9428
-25.9889
-26.6284
-26.5944
-26.528
-26.4317
-26.3092
-26.1646
-26.002
-25.8252
-25.6376
-25.4421
-25.2412
-25.0369
-24.8309
-24.6248
-24.4201
-24.218
-24.0198
-23.8262
-23.638
-23.4556
-23.279
-23.1084
-22.9437
-22.7851
-22.6324
-22.4859
-22.3457
-22.2121
-22.0855
-21.9661
-21.8546
-21.7514
-21.6572
-21.5731
-21.4999
-21.4388
-21.391
-21.3578
-21.3404
-21.3403
-21.3588
-21.3974
-21.4576
-21.5411
-21.6494
-21.7839
-21.9461
-22.1369
-22.3569
-22.6057
-22.882
-23.1829
-23.5039
-23.8385
-24.1787
-24.515
-24.8376
-25.137
-25.4049
-25.6349
-25.8224
-25.9647
-26.0601
-26.1079
-26.723
-26.6857
-26.6131
-26.5085
-26.3762
-26.2213
-26.0485
-25.8622
-25.666
-25.4629
-25.2553
-25.0451
-24.8338
-24.6231
-24.4143
-24.2087
-24.0076
-23.8118
-23.622
-23.4384
-23.2611
-23.09
-22.9249
-22.7657
-22.6124
-22.4651
-22.324
-22.1892
-22.0612
-21.9402
-21.8267
-21.7212
-21.6244
-21.5372
-21.4606
-21.396
-21.3444
-21.3072
-21.2857
-21.2814
-21.2956
-21.3299
-21.3861
-21.4658
-21.5708
-21.7029
-21.864
-22.0556
-22.2787
-22.5337
-22.8199
-23.1348
-23.4737
-23.83
-24.1942
-24.5555
-24.9023
-25.2234
-25.5095
-25.7536
-25.9513
-26.1003
-26.1997
-26.2493
-26.8331
-26.7918
-26.7115
-26.5965
-26.4523
-26.285
-26.1001
-25.9028
-25.6968
-25.4853
-25.2703
-25.0535
-24.8364
-24.6205
-24.407
-24.1975
-23.9932
-23.7949
-23.6034
-23.4187
-23.2408
-23.0692
-22.9037
-22.7441
-22.5901
-22.442
-22.2998
-22.1638
-22.0343
-21.9115
-21.7958
-21.6877
-21.5878
-21.4972
-21.4168
-21.3481
-21.2922
-21.2505
-21.2243
-21.2152
-21.2245
-21.2539
-21.3052
-21.3803
-21.4812
-21.6102
-21.7694
-21.9611
-22.1871
-22.4485
-22.7455
-23.076
-23.4359
-23.8175
-24.2105
-24.6019
-24.9777
-25.3246
-25.6317
-25.8916
-26.1003
-26.2562
-26.3595
-26.4108
-26.9584
-26.912
-26.8223
-26.6947
-26.5363
-26.3543
-26.1556
-25.9458
-25.729
-25.5083
-25.2854
-25.0617
-24.8384
-24.6167
-24.3982
-24.1843
-23.9764
-23.7755
-23.5822
-23.3966
-23.2182
-23.0464
-22.8807
-22.7206
-22.566
-22.4169
-22.2736
-22.1364
-22.0053
-21.8807
-21.7626
-21.6516
-21.5484
-21.4539
-21.3693
-21.296
-21.2353
-21.1887
-21.1574
-21.143
-21.1469
-21.1707
-21.2164
-21.2861
-21.382
-21.5069
-21.6633
-21.8542
-22.0823
-22.3499
-22.658
-23.0058
-23.3892
-23.8002
-24.227
-24.6538
-25.0637
-25.4404
-25.7713
-26.0484
-26.2683
-26.4307
-26.5374
-26.5901
-27.0986
-27.0461
-26.945
-26.8024
-26.627
-26.428
-26.2135
-25.99
-25.7616
-25.5313
-25.3002
-25.0694
-24.8395
-24.6118
-24.3877
-24.169
-23.9572
-23.7536
-23.5587
-23.3722
-23.1937
-23.0219
-22.8562
-22.6958
-22.5405
-22.3904
-22.246
-22.1074
-21.9748
-21.8482
-21.7277
-21.6137
-21.5068
-21.4081
-21.3189
-21.2406
-21.1748
-21.1228
-21.086
-21.0658
-21.0637
-21.0814
-21.1208
-21.1843
-21.2744
-21.3941
-21.5466
-21.7356
-21.9647
-22.2377
-22.5569
-22.9229
-23.3323
-23.7768
-24.2427
-24.711
-25.1606
-25.5715
-25.9286
-26.2236
-26.4542
-26.6223
-26.7314
-26.7849
-27.2539
-27.194
-27.0791
-26.9185
-26.7233
-26.5048
-26.2727
-26.0341
-25.7937
-25.5535
-25.3143
-25.0763
-24.8397
-24.6056
-24.3755
-24.1515
-23.9356
-23.7291
-23.5327
-23.3458
-23.1674
-22.9961
-22.8306
-22.6699
-22.5139
-22.3628
-22.2171
-22.0772
-21.9431
-21.8147
-21.6918
-21.5746
-21.4638
-21.3605
-21.2662
-21.1826
-21.1113
-21.0536
-21.011
-20.9847
-20.9762
-20.9872
-21.0197
-21.0762
-21.1595
-21.2729
-21.4202
-21.6058
-21.8346
-22.1117
-22.4414
-22.8261
-23.2637
-23.7459
-24.2567
-24.7733
-25.2689
-25.7185
-26.1041
-26.4171
-26.6573
-26.8293
-26.9393
-26.9928
-27.4246
-27.3556
-27.2243
-27.0423
-26.824
-26.5833
-26.3317
-26.0771
-25.8242
-25.5745
-25.3274
-25.0824
-24.839
-24.5981
-24.3616
-24.1319
-23.9115
-23.7021
-23.5043
-23.3174
-23.1397
-22.9693
-22.8042
-22.6434
-22.4867
-22.3345
-22.1874
-22.0462
-21.9107
-21.7805
-21.6552
-21.5348
-21.4198
-21.3116
-21.2119
-21.1226
-21.0454
-20.9819
-20.9332
-20.9006
-20.8853
-20.8891
-20.9141
-20.9629
-21.0385
-21.1446
-21.2853
-21.4658
-21.6923
-21.9717
-22.3107
-22.7141
-23.1818
-23.7057
-24.2679
-24.8405
-25.3894
-25.8827
-26.2986
-26.6291
-26.8768
-27.0502
-27.1591
-27.2115
-27.6111
-27.5312
-27.3802
-27.1731
-26.9279
-26.6621
-26.3891
-26.1177
-25.8524
-25.5936
-25.3393
-25.0876
-24.8375
-24.5896
-24.346
-24.1099
-23.8847
-23.6723
-23.4734
-23.287
-23.1108
-22.9418
-22.7776
-22.6168
-22.4592
-22.3055
-22.1571
-22.0146
-21.8779
-21.7463
-21.6186
-21.4949
-21.3755
-21.262
-21.1565
-21.0611
-20.9779
-20.9082
-20.8533
-20.8142
-20.792
-20.7882
-20.8051
-20.8455
-20.9125
-21.0101
-21.1427
-21.3164
-21.5384
-21.8177
-22.164
-22.5853
-23.0845
-23.6544
-24.2752
-24.9128
-25.5234
-26.0657
-26.5134
-26.8597
-27.1117
-27.2833
-27.3885
-27.4383
-27.814
-27.7212
-27.5467
-27.3098
-27.0337
-26.7397
-26.4434
-26.1547
-25.8774
-25.6104
-25.3499
-25.0921
-24.8354
-24.5801
-24.3287
-24.0856
-23.855
-23.6396
-23.44
-23.2549
-23.0809
-22.9141
-22.7511
-22.5903
-22.4316
-22.2763
-22.1262
-21.9825
-21.8451
-21.7122
-21.5825
-21.4553
-21.3313
-21.2121
-21.1003
-20.9986
-20.9091
-20.8332
-20.7721
-20.7264
-20.697
-20.6853
-20.6936
-20.7249
-20.7826
-20.8706
-20.9937
-21.1585
-21.3735
-21.6498
-22.0005
-22.4382
-22.9696
-23.5898
-24.2771
-24.9903
-25.6727
-26.2698
-26.7502
-27.1094
-27.3612
-27.5266
-27.625
-27.6706
-28.0343
-27.9258
-27.7234
-27.4517
-27.14
-26.8145
-26.4934
-26.1869
-25.8984
-25.6247
-25.3592
-25.0962
-24.8329
-24.5698
-24.3099
-24.0588
-23.8225
-23.604
-23.404
-23.221
-23.0503
-22.8865
-22.7251
-22.5643
-22.4043
-22.2469
-22.0948
-21.9502
-21.8123
-21.6788
-21.5471
-21.4165
-21.2877
-21.1623
-21.0438
-20.9354
-20.8394
-20.7574
-20.6901
-20.6378
-20.6011
-20.5812
-20.5805
-20.6021
-20.6498
-20.7272
-20.8394
-20.9934
-21.1985
-21.4681
-21.8197
-22.2711
-22.8348
-23.509
-24.2715
-25.0731
-25.8394
-26.498
-27.0107
-27.3784
-27.6243
-27.7783
-27.8662
-27.9057
-28.273
-28.1457
-27.9104
-27.5977
-27.2451
-26.885
-26.5374
-26.213
-25.9147
-25.6362
-25.3676
-25.1001
-24.8305
-24.5592
-24.2896
-24.0294
-23.7867
-23.565
-23.3653
-23.1854
-23.0193
-22.8594
-22.7
-22.5392
-22.3776
-22.2173
-22.0629
-21.9175
-21.7799
-21.6463
-21.513
-21.379
-21.245
-21.1129
-20.987
-20.8717
-20.7692
-20.681
-20.6077
-20.5491
-20.5051
-20.4767
-20.4665
-20.478
-20.515
-20.5811
-20.6811
-20.8222
-21.0145
-21.2733
-21.6209
-22.0824
-22.6774
-23.4091
-24.2562
-25.1613
-26.0266
-26.7536
-27.2973
-27.667
-27.8996
-28.0362
-28.1093
-28.1407
-28.5312
-28.3815
-28.1074
-27.7469
-27.3475
-26.9496
-26.574
-26.2319
-25.9256
-25.6449
-25.3752
-25.1043
-24.8286
-24.5487
-24.2679
-23.9971
-23.7475
-23.5227
-23.3235
-23.1481
-22.9881
-22.8335
-22.6764
-22.5154
-22.3516
-22.1877
-22.0302
-21.8844
-21.7479
-21.6151
-21.4806
-21.3432
-21.2038
-21.0642
-20.9303
-20.8077
-20.6987
-20.6044
-20.5255
-20.4608
-20.4095
-20.3724
-20.3523
-20.3533
-20.3793
-20.4334
-20.52
-20.6463
-20.8228
-21.066
-21.404
-21.8704
-22.4947
-23.2864
-24.228
-25.2552
-26.2381
-27.0413
-27.6124
-27.9754
-28.1857
-28.2977
-28.3518
-28.373
-28.8104
-28.6339
-28.3144
-27.8979
-27.4452
-27.0065
-26.6018
-26.2423
-25.9305
-25.6508
-25.3828
-25.1093
-24.8276
-24.5388
-24.245
-23.9617
-23.7047
-23.4766
-23.2785
-23.1091
-22.9571
-22.8091
-22.6547
-22.4932
-22.3269
-22.158
-21.9965
-21.8506
-21.7166
-21.5857
-21.4502
-21.3093
-21.1643
-21.0165
-20.8736
-20.7436
-20.628
-20.5279
-20.4437
-20.3734
-20.3151
-20.269
-20.2385
-20.2287
-20.2434
-20.2852
-20.3572
-20.4673
-20.625
-20.8473
-21.1688
-21.6336
-22.2838
-23.1369
-24.1825
-25.3545
-26.4789
-27.3665
-27.9586
-28.3032
-28.4805
-28.5604
-28.5908
-28.5998
-29.1122
-28.9034
-28.5315
-28.0494
-27.5359
-27.0542
-26.6195
-26.2429
-25.9288
-25.6542
-25.3911
-25.1158
-24.8281
-24.5304
-24.221
-23.9227
-23.6581
-23.4266
-23.2298
-23.0684
-22.9267
-22.7871
-22.6353
-22.473
-22.3037
-22.1281
-21.9613
-21.8161
-21.6859
-21.5585
-21.4222
-21.2778
-21.1271
-20.9698
-20.8169
-20.6794
-20.5574
-20.4515
-20.3628
-20.2875
-20.2224
-20.167
-20.1257
-20.1046
-20.1082
-20.1374
-20.1941
-20.2867
-20.423
-20.6186
-20.9157
-21.3706
-22.0422
-22.956
-24.1143
-25.4588
-26.7559
-27.7355
-28.3385
-28.6497
-28.7817
-28.8214
-28.8237
-28.8184
-29.4384
-29.1906
-28.7591
-28.2001
-27.6169
-27.0914
-26.626
-26.2321
-25.9201
-25.6554
-25.4013
-25.1241
-24.8303
-24.5244
-24.1961
-23.8792
-23.6076
-23.3726
-23.1768
-23.0259
-22.8973
-22.7682
-22.6186
-22.4548
-22.2827
-22.098
-21.9236
-21.7803
-21.6562
-21.534
-21.3969
-21.2487
-21.0927
-20.9244
-20.7598
-20.6153
-20.487
-20.3754
-20.283
-20.2034
-20.1321
-20.0669
-20.0141
-19.9814
-19.9741
-19.9911
-20.0315
-20.1061
-20.2192
-20.3814
-20.6451
-21.0801
-21.7674
-22.739
-24.0157
-25.5671
-27.0778
-28.1562
-28.7543
-29.0135
-29.0864
-29.0779
-29.0478
-29.0266
-29.7912
-29.4956
-28.9977
-28.3482
-27.685
-27.117
-26.6205
-26.2084
-25.904
-25.6547
-25.4147
-25.1349
-24.8345
-24.5222
-24.1704
-23.8303
-23.5531
-23.3144
-23.1188
-22.9815
-22.8692
-22.7536
-22.6049
-22.4389
-22.2646
-22.0674
-21.8825
-21.7429
-21.6274
-21.5131
-21.3745
-21.2222
-21.0619
-20.8803
-20.702
-20.5512
-20.4168
-20.2995
-20.2046
-20.1217
-20.0446
-19.9692
-19.904
-19.8595
-19.842
-19.8473
-19.8704
-19.9271
-20.016
-20.1379
-20.358
-20.7606
-21.4578
-22.4812
-23.8763
-25.6775
-27.4568
-28.6376
-29.2079
-29.3923
-29.3914
-29.3267
-29.2608
-29.2223
-30.1732
-29.8178
-29.2487
-28.492
-27.7358
-27.1307
-26.6025
-26.1695
-25.8803
-25.6527
-25.4335
-25.1482
-24.8403
-24.5261
-24.1441
-23.774
-23.4953
-23.2522
-23.0546
-22.9353
-22.8427
-22.7445
-22.5945
-22.4249
-22.2507
-22.0364
-21.8365
-21.7036
-21.5996
-21.4966
-21.3551
-21.1981
-21.0356
-20.8377
-20.6426
-20.4875
-20.3472
-20.2235
-20.1278
-20.0427
-19.9606
-19.8741
-19.7956
-19.7388
-19.7122
-19.707
-19.7112
-19.7509
-19.8167
-19.8901
-20.0558
-20.4106
-21.1125
-22.1787
-23.6821
-25.7864
-27.909
-29.1899
-29.6998
-29.7825
-29.6927
-29.565
-29.4603
-29.4036
-30.5874
-30.1555
-29.5146
-28.6294
-27.7637
-27.1332
-26.5721
-26.1125
-25.8492
-25.6495
-25.4605
-25.1642
-24.8468
-24.5391
-24.1173
-23.7077
-23.435
-23.1865
-22.9823
-22.8875
-22.8183
-22.7429
-22.5872
-22.4122
-22.243
-22.0047
-21.7832
-21.662
-21.573
-21.4862
-21.3387
-21.1758
-21.0152
-20.7965
-20.5802
-20.4245
-20.2783
-20.147
-20.0529
-19.9666
-19.881
-19.7821
-19.689
-19.6192
-19.585
-19.5716
-19.5541
-19.5789
-19.6249
-19.6404
-19.7408
-20.0281
-20.732
-21.829
-23.414
-25.8882
-28.4571
-29.8243
-30.2293
-30.1796
-29.9863
-29.7897
-29.6445
-29.5693
-31.0379
-30.505
-29.7995
-28.7584
-27.761
-27.1267
-26.5302
-26.0333
-25.8114
-25.6452
-25.4999
-25.182
-24.8518
-24.5657
-24.0901
-23.6271
-23.3743
-23.1181
-22.8995
-22.8385
-22.7957
-22.7515
-22.5827
-22.3994
-22.2441
-21.9722
-21.7197
-21.6181
-21.5472
-21.4839
-21.3249
-21.1542
-21.0031
-20.7568
-20.5131
-20.363
-20.2105
-20.0691
-19.9803
-19.8938
-19.8064
-19.6934
-19.5841
-19.5003
-19.4608
-19.4425
-19.3986
-19.4116
-19.4452
-19.3909
-19.4158
-19.6099
-20.3184
-21.433
-23.046
-25.9739
-29.132
-30.552
-30.7931
-30.5777
-30.2674
-29.9982
-29.8119
-29.7182
-31.5301
-30.8592
-30.1106
-28.8768
-27.7167
-27.116
-26.4785
-25.926
-25.7687
-25.6387
-25.5572
-25.2006
-24.8515
-24.613
-24.0627
-23.5258
-23.3166
-23.0482
-22.8022
-22.7895
-22.7742
-22.7739
-22.5801
-22.384
-22.2586
-21.939
-21.6416
-21.5726
-21.5217
-21.4927
-21.3132
-21.1314
-21.0023
-20.7186
-20.4381
-20.3045
-20.1444
-19.9886
-19.9106
-19.8243
-19.7381
-19.6081
-19.4809
-19.3815
-19.3397
-19.322
-19.2433
-19.2493
-19.2834
-19.1431
-19.0854
-19.1506
-19.876
-20.9965
-22.5432
-26.0296
-29.977
-31.3838
-31.3851
-30.9694
-30.5317
-30.188
-29.9612
-29.8498
-32.0714
-31.2065
-30.4589
-28.9822
-27.6157
-27.1095
-26.4201
-25.7819
-25.7249
-25.6274
-25.6409
-25.2177
-24.8398
-24.6908
-24.035
-23.3947
-23.2674
-22.979
-22.6848
-22.7428
-22.7522
-22.8157
-22.5779
-22.3619
-22.2928
-21.9049
-21.543
-21.5272
-21.495
-21.5168
-21.3022
-21.1041
-21.0178
-20.6817
-20.351
-20.2512
-20.0807
-19.9034
-19.8448
-19.7578
-19.6773
-19.5263
-19.3792
-19.2619
-19.2212
-19.213
-19.0859
-19.0912
-19.1469
-18.8974
-18.7562
-18.6421
-19.411
-20.5338
-21.8589
-26.0347
-31.0517
-32.3275
-31.9955
-31.3466
-30.7746
-30.3573
-30.0919
-29.9639
-32.6723
-31.5278
-30.862
-29.0725
-27.4366
-27.1206
-26.3592
-25.5883
-25.6867
-25.6061
-25.7627
-25.2297
-24.8068
-24.8137
-24.007
-23.2202
-23.2357
-22.9133
-22.5387
-22.7028
-22.726
-22.8845
-22.5738
-22.3267
-22.356
-21.8697
-21.4155
-21.4852
-21.4643
-21.5626
-21.2901
-21.0673
-21.0565
-20.6458
-20.2456
-20.207
-20.0204
-19.8106
-19.7846
-19.6937
-19.6259
-19.4477
-19.2791
-19.1401
-19.1049
-19.1202
-18.9228
-18.9351
-19.0455
-18.652
-18.4386
-18.0709
-18.9319
-20.071
-20.9309
-25.9593
-32.4383
-33.3851
-32.6101
-31.7001
-30.992
-30.5045
-30.2037
-30.0606
-33.3475
-31.7937
-31.3459
-29.1454
-27.1496
-27.1699
-26.3017
-25.327
-25.6657
-25.565
-25.9396
-25.2316
-24.7377
-25.0024
-23.9786
-22.983
-23.2348
-22.855
-22.3517
-22.6767
-22.6892
-22.9914
-22.5643
-22.2689
-22.4616
-21.8333
-21.2476
-21.4528
-21.4247
-21.6389
-21.2742
-21.0136
-21.1285
-20.6107
-20.1131
-20.1777
-19.9647
-19.7057
-19.7326
-19.6303
-19.5864
-19.3717
-19.1808
-19.0145
-18.9892
-19.0501
-18.7484
-18.7774
-18.9927
-18.4017
-18.148
-17.4167
-18.449
-19.6519
-19.6777
-25.7602
-34.2496
-34.5487
-33.2103
-32.0205
-31.1806
-30.6289
-30.2966
-30.1405
-34.118
-31.9598
-31.949
-29.1986
-26.7136
-27.288
-26.255
-24.9718
-25.6805
-25.4879
-26.1955
-25.2163
-24.611
-25.2862
-23.9491
-22.6562
-23.2845
-22.8091
-22.1066
-22.6767
-22.6309
-23.1521
-22.5448
-22.1747
-22.6284
-21.795
-21.0237
-21.4405
-21.3674
-21.7583
-21.2507
-20.9323
-21.2481
-20.5755
-19.9413
-20.1718
-19.9152
-19.5825
-19.6932
-19.5651
-19.5624
-19.2972
-19.0847
-18.8831
-18.8716
-19.0121
-18.5551
-18.6116
-19.0068
-18.1354
-17.9081
-16.6496
-17.9732
-19.3444
-17.9932
-25.3772
-36.6388
-35.7944
-33.7728
-32.2988
-31.3377
-30.7301
-30.3713
-30.2042
-35.0134
-31.9618
-32.7266
-29.2299
-26.0723
-27.5184
-26.2287
-24.486
-25.7605
-25.3484
-26.5639
-25.1743
-24.3961
-25.7051
-23.9176
-22.2028
-23.4126
-22.7818
-21.7788
-22.7216
-22.5337
-23.3885
-22.5087
-22.0243
-22.8822
-21.7538
-20.7224
-21.4643
-21.2787
-21.9383
-21.2144
-20.8081
-21.4349
-20.539
-19.7136
-20.2018
-19.8734
-19.4322
-19.673
-19.4936
-19.5586
-19.222
-18.992
-18.7435
-18.7481
-19.0194
-18.3326
-18.4284
-19.113
-17.8337
-17.7538
-15.7266
-17.5145
-19.2485
-15.741
-24.7268
-39.8117
-37.0738
-34.271
-32.5274
-31.4619
-30.8085
-30.4285
-30.2528
-36.0745
-31.7086
-33.7558
-29.2371
-25.1502
-27.9217
-26.2338
-23.8192
-25.9495
-25.1062
-27.0907
-25.0932
-24.0509
-26.3132
-23.8827
-21.5731
-23.6583
-22.7806
-21.335
-22.84
-22.3711
-23.7308
-22.4477
-21.7905
-23.2582
-21.7079
-20.3152
-21.5489
-21.1373
-22.2032
-21.1584
-20.6202
-21.7156
-20.4993
-19.4078
-20.2851
-19.841
-19.2428
-19.6818
-19.4089
-19.5819
-19.143
-18.9046
-18.5929
-18.6121
-19.0906
-18.0674
-18.2138
-19.3463
-17.4651
-17.7363
-14.5881
-17.0793
-19.5068
-12.7485
-23.6962
-44.0418
-38.3041
-34.6766
-32.7002
-31.5528
-30.865
-30.4694
-30.2875
-37.3573
-31.074
-35.1424
-29.2173
-23.8477
-28.5806
-26.2832
-22.9028
-26.3121
-24.7016
-27.8387
-24.9571
-23.5182
-27.1825
-23.8418
-20.7014
-24.0748
-22.8142
-20.7295
-23.0739
-22.1037
-24.2201
-22.3509
-21.4369
-23.8027
-21.6544
-19.7646
-21.7302
-20.9116
-22.5858
-21.0738
-20.3404
-22.1257
-20.4537
-18.9945
-20.4456
-19.8195
-18.998
-19.7337
-19.3006
-19.6417
-19.0552
-18.8253
-18.4285
-18.454
-19.2508
-17.7421
-17.9482
-19.7541
-16.9811
-17.9287
-13.1533
-16.6672
-20.3157
-8.79949
-22.1345
-49.6876
-39.3538
-34.9631
-32.8145
-31.6114
-30.901
-30.4953
-30.3094
-38.9367
-29.8876
-37.0291
-29.1678
-22.036
-29.6053
-26.3919
-21.6469
-26.941
-24.0504
-28.8929
-24.7464
-22.7227
-28.4066
-23.7927
-19.5049
-24.7352
-22.8948
-19.9053
-23.4862
-21.679
-24.9152
-22.2047
-20.913
-24.5748
-21.5918
-19.0293
-22.0671
-20.5613
-23.1354
-20.9503
-19.9333
-22.7136
-20.4007
-18.4381
-20.7175
-19.8114
-18.6772
-19.8495
-19.1544
-19.7515
-18.9528
-18.7606
-18.2493
-18.2603
-19.533
-17.3346
-17.6051
-20.4018
-16.3111
-18.4337
-11.3168
-16.2665
-21.939
-3.628
-19.8437
-57.2123
-40.0268
-35.1103
-32.8697
-31.639
-30.9176
-30.507
-30.3191
)
;

boundaryField
{
    left
    {
        type            calculated;
        value           nonuniform List<scalar> 
32
(
-26.4237
-26.446
-26.4887
-26.5499
-26.6284
-26.723
-26.8331
-26.9584
-27.0986
-27.2539
-27.4246
-27.6111
-27.814
-28.0343
-28.273
-28.5312
-28.8104
-29.1122
-29.4384
-29.7912
-30.1732
-30.5874
-31.0379
-31.5301
-32.0714
-32.6723
-33.3475
-34.118
-35.0134
-36.0745
-37.3573
-38.9367
)
;
    }
    right
    {
        type            calculated;
        value           nonuniform List<scalar> 
32
(
-25.7943
-25.829
-25.895
-25.9889
-26.1079
-26.2493
-26.4108
-26.5901
-26.7849
-26.9928
-27.2115
-27.4383
-27.6706
-27.9057
-28.1407
-28.373
-28.5998
-28.8184
-29.0266
-29.2223
-29.4036
-29.5693
-29.7182
-29.8498
-29.9639
-30.0606
-30.1405
-30.2042
-30.2528
-30.2875
-30.3094
-30.3191
)
;
    }
    interface
    {
        type            calculated;
        value           nonuniform List<scalar> 
64
(
-39.8114
-29.1321
-38.1178
-29.1352
-20.9848
-30.2249
-26.4632
-20.9214
-27.3358
-23.651
-29.5089
-24.6196
-22.2484
-29.1205
-23.7659
-18.814
-25.1372
-22.9487
-19.4307
-23.7465
-21.4199
-25.323
-22.1174
-20.6011
-25.0258
-21.5583
-18.6104
-22.2837
-20.3497
-23.4595
-20.8776
-19.6932
-23.059
-20.3724
-18.1193
-20.8865
-19.8111
-18.4951
-19.9265
-19.0698
-19.8209
-18.8972
-18.733
-18.1561
-18.1528
-19.7094
-17.1072
-17.4103
-20.7951
-15.9193
-18.7794
-10.2834
-16.0668
-22.992
-0.700095
-18.4879
-61.5095
-40.2399
-35.147
-32.8826
-31.6451
-30.9211
-30.5093
-30.321
)
;
    }
    bottom
    {
        type            calculated;
        value           nonuniform List<scalar> 
64
(
-26.4179
-26.3905
-26.3364
-26.2572
-26.1549
-26.0321
-25.8914
-25.7357
-25.5677
-25.39
-25.205
-25.0147
-24.8213
-24.6262
-24.4312
-24.2374
-24.0459
-23.8578
-23.6737
-23.4943
-23.32
-23.1511
-22.988
-22.8308
-22.6798
-22.5353
-22.3975
-22.2667
-22.1434
-22.0281
-21.9212
-21.8235
-21.7357
-21.6585
-21.593
-21.5402
-21.5011
-21.477
-21.469
-21.4785
-21.5065
-21.5545
-21.6236
-21.715
-21.8295
-21.968
-22.1308
-22.3178
-22.5283
-22.7609
-23.0131
-23.2819
-23.5628
-23.8506
-24.1394
-24.4227
-24.6937
-24.9458
-25.1732
-25.3704
-25.5332
-25.6581
-25.7427
-25.7853
)
;
    }
    defaultFaces
    {
        type            empty;
    }
}


// ************************************************************************* //
