/*--------------------------------*- C++ -*----------------------------------*\
| =========                 |                                                 |
| \\      /  F ield         | OpenFOAM: The Open Source CFD Toolbox           |
|  \\    /   O peration     | Version:  5.x                                   |
|   \\  /    A nd           | Web:      www.OpenFOAM.org                      |
|    \\/     M anipulation  |                                                 |
\*---------------------------------------------------------------------------*/
FoamFile
{
    version     2.0;
    format      ascii;
    class       volScalarField;
    location    "4.3";
    object      gradTx;
}
// * * * * * * * * * * * * * * * * * * * * * * * * * * * * * * * * * * * * * //

dimensions      [0 -1 0 1 0 0 0];

internalField   nonuniform List<scalar> 
2048
(
0.00630473
0.0187337
0.0306377
0.0417189
0.0517482
0.0605764
0.068133
0.0744159
0.0794748
0.0833925
0.0862688
0.088208
0.0893121
0.0896779
0.0893979
0.0885612
0.0872547
0.0855618
0.0835604
0.0813189
0.0788932
0.0763239
0.0736359
0.0708394
0.067932
0.0649018
0.0617291
0.0583884
0.0548488
0.0510745
0.0470251
0.0426571
0.0379253
0.0327851
0.0271946
0.0211163
0.0145179
0.00737322
-0.000337289
-0.00862532
-0.0174924
-0.0269263
-0.0368955
-0.0473428
-0.0581765
-0.0692619
-0.0804119
-0.0913795
-0.101853
-0.111461
-0.119778
-0.126355
-0.130748
-0.132564
-0.131506
-0.12741
-0.120272
-0.110243
-0.097611
-0.0827611
-0.0661264
-0.0481479
-0.0292454
-0.00980688
0.0187878
0.0558162
0.0912539
0.124202
0.153975
0.180132
0.202473
0.221006
0.235893
0.247392
0.255809
0.261457
0.264641
0.265646
0.264744
0.262199
0.258268
0.253199
0.247225
0.240553
0.233348
0.225732
0.217777
0.209512
0.200927
0.191985
0.182627
0.172776
0.162342
0.151217
0.139282
0.126407
0.112455
0.0972939
0.0807981
0.0628556
0.0433707
0.0222653
-0.000519408
-0.0250198
-0.0512434
-0.0791584
-0.108678
-0.139638
-0.171777
-0.204703
-0.23787
-0.27055
-0.301822
-0.330574
-0.355535
-0.375345
-0.388658
-0.394273
-0.39128
-0.379176
-0.357946
-0.328059
-0.290399
-0.24614
-0.196599
-0.143102
-0.0869006
-0.0291367
0.031139
0.0924803
0.151102
0.20548
0.254466
0.297344
0.333818
0.363943
0.388032
0.40655
0.420027
0.428994
0.43395
0.435361
0.433666
0.429292
0.422662
0.414188
0.404261
0.393225
0.381359
0.368862
0.35585
0.342361
0.328375
0.313825
0.298609
0.282603
0.265656
0.247593
0.228216
0.207308
0.18464
0.159991
0.133152
0.103936
0.0721873
0.0377762
0.000604185
-0.0393937
-0.082239
-0.127893
-0.17623
-0.227006
-0.279814
-0.334039
-0.38881
-0.442951
-0.494952
-0.542972
-0.584877
-0.618361
-0.64111
-0.651048
-0.646582
-0.626834
-0.591774
-0.542228
-0.479746
-0.40637
-0.324357
-0.235949
-0.143216
-0.0480065
0.0435983
0.129422
0.211269
0.286932
0.354786
0.413861
0.46381
0.504803
0.53737
0.562235
0.580184
0.591977
0.598306
0.599801
0.597052
0.590638
0.581141
0.569142
0.555196
0.539795
0.523334
0.506089
0.488213
0.469745
0.450641
0.430796
0.410066
0.388277
0.365223
0.340664
0.314321
0.285887
0.255039
0.221461
0.184859
0.144973
0.101585
0.0545186
0.00363325
-0.0511695
-0.109936
-0.17264
-0.239141
-0.309147
-0.382145
-0.457341
-0.533584
-0.609291
-0.68239
-0.750309
-0.810016
-0.858172
-0.891384
-0.906556
-0.901291
-0.874253
-0.825395
-0.755978
-0.668349
-0.565565
-0.450951
-0.327728
-0.198782
-0.0666068
0.0563812
0.167264
0.272714
0.369761
0.456273
0.531053
0.593781
0.644833
0.685049
0.715485
0.737231
0.751288
0.758533
0.759735
0.755611
0.746877
0.734272
0.718551
0.700451
0.680625
0.659596
0.637715
0.615161
0.59196
0.568028
0.543212
0.517319
0.49013
0.461389
0.430792
0.397982
0.362556
0.324087
0.282157
0.236381
0.186429
0.132025
0.0729441
0.00900768
-0.0599228
-0.133933
-0.213027
-0.297086
-0.385803
-0.47861
-0.57459
-0.672367
-0.770005
-0.864908
-0.953772
-1.03261
-1.09695
-1.14212
-1.16382
-1.15863
-1.12465
-1.0618
-0.971899
-0.858289
-0.72528
-0.577454
-0.419113
-0.253961
-0.0850511
0.0696928
0.206593
0.336333
0.455061
0.560107
0.650091
0.72482
0.785008
0.831925
0.867059
0.891857
0.907573
0.915246
0.915754
0.909903
0.898523
0.882507
0.862803
0.840351
0.815992
0.79039
0.763973
0.736932
0.709254
0.680793
0.651333
0.620631
0.588426
0.554422
0.518259
0.479498
0.437632
0.392117
0.342422
0.288067
0.228648
0.163837
0.0933726
0.0170357
-0.0653554
-0.153939
-0.248777
-0.349801
-0.45674
-0.569023
-0.68567
-0.80516
-0.925271
-1.04294
-1.15413
-1.25387
-1.33636
-1.39548
-1.42537
-1.42137
-1.38079
-1.30352
-1.19209
-1.05114
-0.886581
-0.704506
-0.51044
-0.3089
-0.103379
0.0837371
0.24799
0.402993
0.543868
0.667365
0.771991
0.857819
0.92607
0.978609
1.01747
1.04452
1.06128
1.0689
1.06831
1.06037
1.04599
1.02621
1.0022
0.97514
0.946097
0.915896
0.885041
0.853713
0.821831
0.789155
0.755384
0.72022
0.683374
0.644528
0.603275
0.559092
0.511354
0.459382
0.402516
0.34017
0.271871
0.19725
0.116014
0.0279147
-0.0672753
-0.169762
-0.279691
-0.397083
-0.521748
-0.653172
-0.79039
-0.931816
-1.07504
-1.2166
-1.35179
-1.47456
-1.57767
-1.6532
-1.69341
-1.69197
-1.64514
-1.55274
-1.41825
-1.24805
-1.05009
-0.832344
-0.601725
-0.363544
-0.12156
0.0987256
0.29205
0.47357
0.637195
0.779058
0.897652
0.993503
1.06856
1.12549
1.16702
1.19549
1.21267
1.2198
1.21776
1.20738
1.18961
1.16568
1.13698
1.10499
1.07107
1.03623
1.00104
0.965656
0.92987
0.893308
0.855558
0.816267
0.775139
0.731858
0.68599
0.636926
0.5839
0.526073
0.462631
0.392875
0.316263
0.2324
0.140984
0.0417479
-0.0655822
-0.181293
-0.305643
-0.43878
-0.580644
-0.730839
-0.888494
-1.05206
-1.21906
-1.38576
-1.54682
-1.69511
-1.82177
-1.91674
-1.96988
-1.97267
-1.91997
-1.81143
-1.65179
-1.44978
-1.21602
-0.960818
-0.692675
-0.417637
-0.139497
0.114884
0.339405
0.548975
0.736065
0.896159
1.02787
1.13245
1.21284
1.27276
1.3158
1.34485
1.3619
1.36815
1.36435
1.35122
1.32969
1.30115
1.26731
1.23003
1.19099
1.15145
1.11206
1.07288
1.03353
0.993431
0.952034
0.908927
0.863842
0.816512
0.766501
0.713107
0.655398
0.592332
0.522911
0.446307
0.361921
0.269353
0.168321
0.0585561
-0.0602563
-0.188499
-0.326573
-0.474795
-0.633279
-0.80181
-0.979692
-1.16553
-1.35693
-1.55
-1.73896
-1.91559
-2.06922
-2.18724
-2.25653
-2.26565
-2.20748
-2.08139
-1.89385
-1.65673
-1.38417
-1.0894
-0.782697
-0.470739
-0.157027
0.132459
0.390736
0.630174
0.84153
1.01962
1.16338
1.2751
1.35909
1.42042
1.46373
1.49254
1.50897
1.51407
1.50832
1.49216
1.46648
1.43284
1.39334
1.3503
1.30587
1.26157
1.21814
1.17548
1.13295
1.0897
1.04498
0.998335
0.949574
0.898549
0.84486
0.787702
0.725935
0.658263
0.58346
0.50055
0.40889
0.308115
0.197994
0.0782888
-0.0513492
-0.191414
-0.342483
-0.505083
-0.67955
-0.865896
-1.06368
-1.2718
-1.48807
-1.70874
-1.92768
-2.13572
-2.32024
-2.46563
-2.55498
-2.57302
-2.50987
-2.36441
-2.14538
-1.86896
-1.55395
-1.21718
-0.870909
-0.522228
-0.17393
0.151722
0.44679
0.718206
0.954686
1.15036
1.30481
1.42176
1.50733
1.56828
1.61056
1.63834
1.65379
1.65763
1.64984
1.63046
1.60023
1.56093
1.51516
1.46584
1.41567
1.36656
1.31929
1.27355
1.2283
1.1823
1.13458
1.08462
1.03239
0.977985
0.921074
0.860741
0.795571
0.723949
0.64436
0.555657
0.457177
0.348638
0.229913
0.100833
-0.038975
-0.190132
-0.353432
-0.529659
-0.719402
-0.922947
-1.14018
-1.3704
-1.61187
-1.86117
-2.11218
-2.35493
-2.57475
-2.75256
-2.86675
-2.89699
-2.82949
-2.66225
-2.40714
-2.08619
-1.72434
-1.34288
-0.956155
-0.571325
-0.189932
0.172977
0.508392
0.814203
1.07669
1.28934
1.45273
1.57262
1.65741
1.71599
1.75587
1.78193
1.79622
1.79884
1.78909
1.76637
1.7312
1.68562
1.63285
1.57661
1.5203
1.46633
1.41551
1.36717
1.31972
1.27144
1.22101
1.16789
1.11233
1.05479
0.995113
0.932222
0.864344
0.789456
0.705679
0.611661
0.506755
0.390833
0.26394
0.126018
-0.0233034
-0.184799
-0.359531
-0.548588
-0.752845
-0.972874
-1.20894
-1.46087
-1.7276
-2.00635
-2.2914
-2.5723
-2.83235
-3.04846
-3.19327
-3.23984
-3.16885
-2.97679
-2.67971
-2.30775
-1.89392
-1.46487
-1.03703
-0.617114
-0.204719
0.196561
0.576455
0.919398
1.20878
1.43747
1.60764
1.72774
1.80903
1.86302
1.89911
1.92287
1.93601
1.93771
1.92625
1.9002
1.85967
1.80706
1.74648
1.68256
1.61965
1.56076
1.50675
1.45641
1.4074
1.35735
1.3045
1.24827
1.18939
1.1289
1.06691
1.00212
0.932279
0.854847
0.767485
0.668583
0.557572
0.434577
0.29989
0.153628
-0.00455191
-0.175606
-0.360933
-0.561988
-0.779946
-1.01566
-1.26979
-1.54282
-1.83455
-2.14324
-2.46407
-2.78661
-3.09227
-3.35347
-3.5359
-3.60405
-3.53081
-3.31005
-2.96353
-2.53257
-2.06079
-1.58116
-1.11192
-0.658576
-0.217946
0.222856
0.651992
1.03514
1.35225
1.59568
1.76994
1.88705
1.96173
2.00869
2.03957
2.06066
2.07294
2.07423
2.06154
2.03227
1.98592
1.92546
1.85608
1.78358
1.71351
1.64969
1.59297
1.54137
1.49155
1.4403
1.38529
1.32588
1.26354
1.2002
1.13635
1.07039
0.99939
0.920188
0.829852
0.726441
0.609555
0.479715
0.337541
0.183402
0.0170206
-0.162778
-0.357826
-0.570022
-0.800842
-1.05136
-1.32264
-1.6159
-1.93202
-2.2707
-2.62871
-2.99633
-3.35339
-3.66742
-3.89586
-3.99233
-3.91866
-3.6643
-3.2588
-2.7591
-2.22259
-1.68942
-1.17903
-0.694633
-0.229257
0.252287
0.736119
1.1629
1.50849
1.76485
1.93992
2.05036
2.11493
2.15214
2.17641
2.1947
2.20671
2.20839
2.19521
2.16298
2.11031
2.04099
1.96169
1.87956
1.80164
1.73288
1.6741
1.62216
1.57238
1.52059
1.46368
1.40086
1.33469
1.26851
1.20331
1.13697
1.06569
0.985551
0.892872
0.785255
0.662616
0.526068
0.376641
0.21504
0.0411198
-0.146567
-0.35042
-0.572889
-0.815729
-1.08013
-1.36749
-1.67986
-2.0194
-2.38759
-2.78366
-3.19961
-3.61422
-3.98978
-4.2742
-4.40762
-4.33628
-4.04214
-3.56553
-2.98524
-2.37644
-1.78705
-1.23649
-0.724195
-0.2383
0.285338
0.830059
1.30427
1.67901
1.94584
2.11775
2.21737
2.26791
2.29238
2.30868
2.32437
2.33708
2.3402
2.32753
2.2928
2.2332
2.15382
2.06335
1.97035
1.88376
1.81008
1.75005
1.69891
1.65015
1.59859
1.54003
1.47336
1.40275
1.3336
1.26761
1.20182
1.13118
1.05102
0.956671
0.845049
0.716646
0.573441
0.416909
0.248208
0.0674209
-0.127241
-0.338935
-0.570812
-0.824867
-1.10222
-1.40446
-1.73461
-2.09618
-2.49278
-2.92713
-3.39431
-3.87288
-4.31959
-4.6717
-4.85317
-4.78833
-4.4466
-3.88336
-3.20824
-2.51898
-1.87122
-1.28239
-0.746224
-0.244751
0.322557
0.935138
1.46097
1.8654
2.13944
2.30344
2.3877
2.41983
2.42825
2.43531
2.449
2.46382
2.46966
2.45884
2.42232
2.355
2.26411
2.16111
2.05579
1.95949
1.88096
1.82076
1.77179
1.72513
1.67469
1.61481
1.54354
1.4675
1.39516
1.32906
1.26487
1.19587
1.1167
1.02141
0.905857
0.771515
0.621625
0.458049
0.282539
0.0955728
-0.105078
-0.323588
-0.564029
-0.828568
-1.11795
-1.43379
-1.78017
-2.16203
-2.58521
-3.05723
-3.57804
-4.12711
-4.65544
-5.08872
-5.3325
-5.28048
-4.88128
-4.21149
-3.42454
-2.64632
-1.93897
-1.31489
-0.759789
-0.248333
0.364582
1.05278
1.63482
2.06943
2.34633
2.49677
2.56088
2.56979
2.55844
2.55508
2.56797
2.58679
2.59675
2.58949
2.55227
2.47613
2.37198
2.25506
2.1357
2.0284
1.94511
1.88616
1.84103
1.79758
1.74933
1.68857
1.61158
1.5287
1.4528
1.38744
1.32612
1.25975
1.18269
1.08734
0.967721
0.82706
0.670408
0.49975
0.317635
0.1252
-0.0803514
-0.304575
-0.552778
-0.827194
-1.12776
-1.45579
-1.81672
-2.21683
-2.66394
-3.172
-3.74814
-4.37433
-4.9954
-5.52497
-5.84936
-5.81976
-5.35046
-4.54844
-3.62965
-2.75407
-1.9873
-1.33234
-0.764131
-0.248837
0.412179
1.18447
1.82772
2.29306
2.56704
2.69726
2.73647
2.71686
2.68149
2.66668
2.68066
2.70598
2.7214
2.71984
2.68356
2.59703
2.47744
2.34534
2.20993
2.08996
2.00205
1.9462
1.90693
1.86772
1.82296
1.76203
1.67773
1.58596
1.50602
1.44253
1.3856
1.32277
1.2491
1.15476
1.03069
0.883068
0.719591
0.5417
0.353063
0.155904
-0.0533297
-0.282056
-0.537279
-0.82115
-1.13219
-1.47087
-1.84458
-2.26073
-2.7282
-3.26943
-3.90175
-4.61167
-5.33704
-5.97924
-6.40764
-6.41497
-5.85928
-4.89177
-3.81798
-2.83743
-2.01329
-1.33333
-0.758718
-0.246134
0.466306
1.33173
2.04161
2.53855
2.80187
2.90402
2.9141
2.86011
2.79577
2.76864
2.78655
2.8216
2.8434
2.85023
2.81743
2.71811
2.58035
2.43222
2.27837
2.14352
2.05121
2.00086
1.96994
1.93572
1.89605
1.83615
1.74221
1.63876
1.55418
1.49413
1.44346
1.38482
1.31603
1.22416
1.09479
0.93925
0.769008
0.583593
0.38835
0.187262
-0.024266
-0.256141
-0.517721
-0.810879
-1.13184
-1.47951
-1.86421
-2.29422
-2.77746
-3.34754
-4.03581
-4.83608
-5.67749
-6.449
-7.01112
-7.07724
-6.41395
-5.23765
-3.98266
-2.89129
-2.01431
-1.31686
-0.743287
-0.240192
0.528227
1.49608
2.27834
2.80863
3.0508
3.11567
3.09366
2.99866
2.89942
2.85933
2.88521
2.93416
2.96234
2.98092
2.9555
2.83971
2.68033
2.51617
2.34094
2.18831
2.09187
2.05021
2.0307
2.00157
1.969
1.91217
1.80531
1.68639
1.59654
1.54206
1.49999
1.44569
1.38351
1.2962
1.16005
0.995198
0.818558
0.62514
0.422979
0.218828
0.00660369
-0.226867
-0.494242
-0.796852
-1.12747
-1.48217
-1.87614
-2.3182
-2.81144
-3.40436
-4.14707
-5.04445
-6.01363
-6.92987
-7.66321
-7.82084
-7.02193
-5.58032
-4.1154
-2.91037
-1.98813
-1.28237
-0.717878
-0.231079
0.599691
1.6789
2.53956
3.10673
3.31336
3.33007
3.27545
3.13173
2.99035
2.93694
2.97637
3.04467
3.0774
3.11197
3.10003
2.96202
2.7766
2.59797
2.39765
2.22338
2.12317
2.09433
2.09013
2.06502
2.04212
1.99179
1.86732
1.72793
1.63215
1.58618
1.55575
1.505
1.45153
1.37183
1.22643
1.05033
0.868262
0.66608
0.45637
0.25013
0.0390616
-0.194186
-0.466918
-0.779565
-1.11997
-1.47928
-1.88089
-2.33405
-2.83015
-3.43799
-4.23209
-5.23378
-6.34239
-7.41501
-8.36639
-8.66419
-7.69218
-5.91122
-4.20639
-2.88952
-1.93317
-1.22987
-0.682838
-0.218959
0.683227
1.88136
2.82647
3.43738
3.58845
3.54412
3.46056
3.25869
3.06619
2.99941
3.0599
3.15485
3.18719
3.24317
3.25419
3.08498
2.86781
2.67895
2.44858
2.24754
2.14409
2.1334
2.1496
2.12542
2.1155
2.0773
1.92851
1.76213
1.6599
1.62641
1.61163
1.56205
1.51988
1.45247
1.29378
1.10381
0.918337
0.706183
0.487862
0.280675
0.0729047
-0.15794
-0.435741
-0.759524
-1.1104
-1.47117
-1.87891
-2.34378
-2.83392
-3.44659
-4.28714
-5.40131
-6.66131
-7.89426
-9.12146
-9.63121
-8.43542
-6.21802
-4.24435
-2.824
-1.84861
-1.1599
-0.63882
-0.204088
0.782573
2.10422
3.13947
3.80674
3.87411
3.75334
3.65126
3.37901
3.12418
3.04443
3.13579
3.26744
3.28945
3.37383
3.42243
3.2081
2.95175
2.76118
2.4939
2.25937
2.15336
2.16767
2.21114
2.18153
2.18895
2.17186
1.98905
1.78742
1.6785
1.66271
1.6691
1.61575
1.58817
1.54014
1.3618
1.15443
0.969307
0.745245
0.51669
0.309951
0.107936
-0.11785
-0.400612
-0.737226
-1.10011
-1.45798
-1.87042
-2.35016
-2.82335
-3.42848
-4.30814
-5.54465
-6.96943
-8.35322
-9.92646
-10.7531
-9.26427
-6.48322
-4.21668
-2.7099
-1.7346
-1.07361
-0.586746
-0.1868
0.903323
2.34761
3.47769
4.22337
4.16716
3.95143
3.8516
3.49223
3.16112
3.06939
3.2041
3.38671
3.38065
3.50256
3.61112
3.33028
3.02506
2.84792
2.53377
2.25709
2.14951
2.19734
2.27771
2.23126
2.26178
2.27981
2.04894
1.8018
1.68643
1.69508
1.73037
1.66438
1.65564
1.63775
1.42993
1.20048
1.02217
0.783074
0.541952
0.337448
0.143949
-0.0734887
-0.361324
-0.713126
-1.09079
-1.4396
-1.85519
-2.35695
-2.79929
-3.38212
-4.29049
-5.66182
-7.2684
-8.77208
-10.7752
-12.0708
-10.1935
-6.68243
-4.10989
-2.54459
-1.59235
-0.972676
-0.527762
-0.167484
1.05383
2.61074
3.83828
4.69932
4.46283
4.12965
4.06828
3.59776
3.1733
3.07136
3.26479
3.51899
3.45548
3.62695
3.82921
3.44948
3.08279
2.94412
2.56828
2.23856
2.1308
2.22258
2.35364
2.27139
2.33263
2.4071
2.10779
1.80282
1.68203
1.72346
1.79875
1.70535
1.72103
1.74946
1.49716
1.23958
1.07859
0.819445
0.562569
0.36268
0.180703
-0.0242607
-0.317569
-0.687579
-1.08467
-1.41557
-1.83228
-2.36919
-2.7627
-3.30632
-4.22886
-5.75112
-7.56425
-9.12433
-11.6552
-13.6377
-11.24
-6.78218
-3.91038
-2.32724
-1.42416
-0.859265
-0.463176
-0.146568
1.24645
2.89148
4.2155
5.25149
4.75411
4.27605
4.31166
3.6946
3.15643
3.04714
3.31746
3.67359
3.50626
3.74318
4.08922
3.56231
3.11783
3.05709
2.59719
2.20121
2.09527
2.24324
2.4451
2.29707
2.39922
2.56187
2.16456
1.7875
1.66348
1.7476
1.87906
1.73489
1.78245
1.8811
1.56192
1.26842
1.14123
0.854026
0.577246
0.385224
0.217881
0.0306256
-0.268946
-0.660754
-1.08468
-1.38501
-1.79975
-2.39358
-2.71445
-3.20034
-4.1169
-5.8108
-7.86953
-9.37534
-12.5452
-15.5233
-12.423
-6.73735
-3.60567
-2.05927
-1.23343
-0.735889
-0.394391
-0.124494
1.49919
3.18589
4.59952
5.90349
5.03109
4.37451
4.59715
3.78084
3.10562
2.99328
3.36088
3.86374
3.52214
3.84551
4.40843
3.66355
3.12031
3.19738
2.61968
2.14205
2.04077
2.25864
2.56085
2.3014
2.458
2.75514
2.21721
1.7524
1.62891
1.76687
1.97815
1.74763
1.83704
2.04077
1.62177
1.28257
1.21406
0.886252
0.584429
0.404788
0.255044
0.0921926
-0.214992
-0.632506
-1.09467
-1.34652
-1.75417
-2.43897
-2.65496
-3.06417
-3.94699
-5.83837
-8.20616
-9.48084
-13.4118
-17.8179
-13.7632
-6.48799
-3.18611
-1.74476
-1.0245
-0.605293
-0.322827
-0.101696
1.83786
3.48761
4.97484
6.68788
5.28
4.40366
4.94698
3.85286
3.01543
2.9063
3.39241
4.10802
3.48817
3.92564
4.81038
3.74545
3.07682
3.37995
2.63379
2.05765
1.96505
2.26713
2.71307
2.27478
2.50382
3.0017
2.26215
1.6936
1.57653
1.77986
2.10556
1.73616
1.8808
2.2395
1.67311
1.27607
1.30288
0.915147
0.582265
0.421286
0.29155
0.161738
-0.155241
-0.602191
-1.11978
-1.29821
-1.69009
-2.51703
-2.58378
-2.89894
-3.70995
-5.82952
-8.60889
-9.38534
-14.2054
-20.6376
-15.2829
-5.95578
-2.64736
-1.3907
-0.80245
-0.4703
-0.24986
-0.0785843
2.2987
3.78712
5.31847
7.64898
5.4821
4.33556
5.39221
3.90439
2.87993
2.78288
3.40704
4.43189
3.38419
3.97204
5.32655
3.79697
2.96954
3.62547
2.63578
1.94426
1.86596
2.26552
2.91841
2.20421
2.52947
3.32114
2.29356
1.60685
1.50477
1.78402
2.27439
1.69044
1.90817
2.49208
1.71074
1.24121
1.41585
0.939068
0.568574
0.43495
0.326465
0.240896
-0.0893167
-0.568427
-1.16672
-1.23757
-1.5994
-2.64308
-2.49893
-2.70742
-3.3948
-5.77644
-9.12941
-9.02065
-14.8553
-24.1309
-17.0047
-5.03995
-1.99345
-1.00693
-0.572796
-0.333659
-0.176762
-0.0555304
2.93158
4.07087
5.59766
8.8461
5.61228
4.13422
5.97526
3.92501
2.69304
2.62027
3.39625
4.86973
3.18365
3.96901
5.99845
3.80283
2.77524
3.96199
2.61925
1.79791
1.74167
2.24833
3.19928
2.07246
2.52515
3.73907
2.30253
1.48775
1.41257
1.77494
2.50226
1.59715
1.91171
2.81801
1.72746
1.16805
1.56414
0.95537
0.540836
0.446462
0.358435
0.331715
-0.0170707
-0.528771
-1.24421
-1.1616
-1.47052
-2.83705
-2.39598
-2.49467
-2.98869
-5.66564
-9.84118
-8.30446
-15.264
-28.4854
-18.9503
-3.61282
-1.24079
-0.605789
-0.341131
-0.197911
-0.104656
-0.0328551
3.80385
4.32029
5.7673
10.3573
5.63753
3.75404
6.75281
3.89847
2.44878
2.41679
3.34651
5.46704
2.85216
3.89578
6.87983
3.7424
2.46425
4.42679
2.57397
1.6147
1.59098
2.20676
3.58534
1.85717
2.47799
4.28857
2.27595
1.33204
1.29967
1.74562
2.81245
1.43899
1.88164
3.24258
1.71341
1.04407
1.76275
0.959975
0.49621
0.45711
0.385539
0.43677
0.0612247
-0.479332
-1.36343
-1.06682
-1.28748
-3.12473
-2.26703
-2.26887
-2.47693
-5.47496
-10.8448
-7.13926
-15.3008
-33.936
-21.1388
-1.51512
-0.42284
-0.201259
-0.112732
-0.0652752
-0.0344893
-0.0108246
)
;

boundaryField
{
    left
    {
        type            calculated;
        value           uniform 0;
    }
    right
    {
        type            calculated;
        value           uniform 0;
    }
    interface
    {
        type            calculated;
        value           nonuniform List<scalar> 
64
(
3.80385
4.32029
5.7673
10.3573
5.63753
3.75404
6.75281
3.89847
2.44878
2.41679
3.34651
5.46704
2.85216
3.89578
6.87983
3.7424
2.46425
4.42679
2.57397
1.6147
1.59098
2.20676
3.58534
1.85717
2.47799
4.28857
2.27595
1.33204
1.29967
1.74562
2.81245
1.43899
1.88164
3.24258
1.71341
1.04407
1.76275
0.959975
0.49621
0.45711
0.385539
0.43677
0.0612247
-0.479332
-1.36343
-1.06682
-1.28748
-3.12473
-2.26703
-2.26887
-2.47693
-5.47496
-10.8448
-7.13926
-15.3008
-33.936
-21.1388
-1.51512
-0.42284
-0.201259
-0.112732
-0.0652752
-0.0344893
-0.0108246
)
;
    }
    bottom
    {
        type            calculated;
        value           nonuniform List<scalar> 
64
(
0.00630473
0.0187337
0.0306377
0.0417189
0.0517482
0.0605764
0.068133
0.0744159
0.0794748
0.0833925
0.0862688
0.088208
0.0893121
0.0896779
0.0893979
0.0885612
0.0872547
0.0855618
0.0835604
0.0813189
0.0788932
0.0763239
0.0736359
0.0708394
0.067932
0.0649018
0.0617291
0.0583884
0.0548488
0.0510745
0.0470251
0.0426571
0.0379253
0.0327851
0.0271946
0.0211163
0.0145179
0.00737322
-0.000337289
-0.00862532
-0.0174924
-0.0269263
-0.0368955
-0.0473428
-0.0581765
-0.0692619
-0.0804119
-0.0913795
-0.101853
-0.111461
-0.119778
-0.126355
-0.130748
-0.132564
-0.131506
-0.12741
-0.120272
-0.110243
-0.097611
-0.0827611
-0.0661264
-0.0481479
-0.0292454
-0.00980688
)
;
    }
    defaultFaces
    {
        type            empty;
    }
}


// ************************************************************************* //
