/*--------------------------------*- C++ -*----------------------------------*\
| =========                 |                                                 |
| \\      /  F ield         | OpenFOAM: The Open Source CFD Toolbox           |
|  \\    /   O peration     | Version:  5.x                                   |
|   \\  /    A nd           | Web:      www.OpenFOAM.org                      |
|    \\/     M anipulation  |                                                 |
\*---------------------------------------------------------------------------*/
FoamFile
{
    version     2.0;
    format      ascii;
    class       volScalarField;
    location    "4.3";
    object      gradTy;
}
// * * * * * * * * * * * * * * * * * * * * * * * * * * * * * * * * * * * * * //

dimensions      [0 -1 0 1 0 0 0];

internalField   nonuniform List<scalar> 
2048
(
-26.4238
-26.3962
-26.3418
-26.2622
-26.1594
-26.036
-25.8947
-25.7384
-25.5699
-25.3917
-25.2062
-25.0156
-24.8218
-24.6264
-24.4311
-24.237
-24.0454
-23.8572
-23.673
-23.4935
-23.3191
-23.1502
-22.987
-22.8298
-22.6787
-22.5342
-22.3963
-22.2655
-22.1421
-22.0267
-21.9197
-21.8219
-21.7338
-21.6565
-21.5908
-21.5378
-21.4985
-21.4741
-21.4659
-21.4751
-21.5029
-21.5506
-21.6195
-21.7107
-21.8251
-21.9635
-22.1263
-22.3134
-22.5242
-22.7573
-23.0103
-23.2799
-23.5619
-23.851
-24.1411
-24.4258
-24.6982
-24.9516
-25.1801
-25.3782
-25.5417
-25.6671
-25.752
-25.7948
-26.4461
-26.4179
-26.3623
-26.2809
-26.1761
-26.0504
-25.9069
-25.7484
-25.5777
-25.3976
-25.2104
-25.0182
-24.823
-24.6264
-24.43
-24.2351
-24.0427
-23.8538
-23.6692
-23.4893
-23.3147
-23.1455
-22.9822
-22.8247
-22.6735
-22.5287
-22.3906
-22.2595
-22.1357
-22.0199
-21.9124
-21.8139
-21.7252
-21.6471
-21.5806
-21.5266
-21.4864
-21.4611
-21.4518
-21.46
-21.4868
-21.5335
-21.6015
-21.6919
-21.8057
-21.9438
-22.1066
-22.2943
-22.5062
-22.7412
-22.9968
-23.2699
-23.5561
-23.8501
-24.1456
-24.4357
-24.7134
-24.9718
-25.2046
-25.4063
-25.5725
-25.6999
-25.786
-25.8295
-26.4888
-26.4593
-26.4013
-26.3166
-26.2078
-26.0778
-25.9298
-25.767
-25.5924
-25.4086
-25.2181
-25.023
-24.8252
-24.6263
-24.4279
-24.2313
-24.0375
-23.8475
-23.6619
-23.4814
-23.3063
-23.1367
-22.973
-22.8153
-22.6637
-22.5185
-22.3798
-22.2481
-22.1237
-22.0069
-21.8985
-21.7989
-21.7089
-21.6294
-21.5613
-21.5056
-21.4636
-21.4364
-21.4252
-21.4314
-21.4562
-21.5011
-21.5673
-21.6561
-21.7687
-21.9061
-22.069
-22.2576
-22.4717
-22.71
-22.9707
-23.2504
-23.5448
-23.8482
-24.1539
-24.4547
-24.7427
-25.0105
-25.2515
-25.46
-25.6314
-25.7624
-25.8509
-25.8954
-26.5501
-26.5187
-26.457
-26.3674
-26.2527
-26.1164
-25.9621
-25.7931
-25.6128
-25.4238
-25.2287
-25.0294
-24.828
-24.6259
-24.4247
-24.2257
-24.0299
-23.8383
-23.6516
-23.4701
-23.2943
-23.1243
-22.9601
-22.802
-22.6499
-22.5041
-22.3647
-22.2322
-22.1068
-21.9889
-21.879
-21.7778
-21.686
-21.6045
-21.5341
-21.4761
-21.4315
-21.4017
-21.3878
-21.3911
-21.4132
-21.4553
-21.5189
-21.6055
-21.7163
-21.8525
-22.0152
-22.205
-22.4218
-22.6649
-22.9326
-23.2216
-23.5277
-23.8447
-24.1654
-24.4815
-24.7845
-25.0661
-25.3189
-25.5369
-25.7155
-25.8517
-25.9433
-25.9894
-26.6285
-26.5945
-26.5281
-26.4318
-26.3094
-26.1647
-26.0021
-25.8253
-25.6377
-25.4423
-25.2413
-25.037
-24.831
-24.625
-24.4203
-24.2182
-24.02
-23.8265
-23.6383
-23.4558
-23.2792
-23.1087
-22.944
-22.7854
-22.6327
-22.4862
-22.346
-22.2125
-22.0859
-21.9665
-21.855
-21.7518
-21.6577
-21.5736
-21.5004
-21.4393
-21.3916
-21.3583
-21.341
-21.3408
-21.3593
-21.3979
-21.4582
-21.5417
-21.65
-21.7845
-21.9467
-22.1375
-22.3575
-22.6063
-22.8825
-23.1834
-23.5044
-23.8391
-24.1792
-24.5156
-24.8381
-25.1375
-25.4054
-25.6354
-25.8229
-25.9651
-26.0605
-26.1083
-26.7231
-26.6859
-26.6132
-26.5086
-26.3764
-26.2214
-26.0486
-25.8623
-25.6661
-25.4631
-25.2555
-25.0452
-24.834
-24.6233
-24.4145
-24.2089
-24.0078
-23.8121
-23.6222
-23.4387
-23.2614
-23.0903
-22.9252
-22.766
-22.6127
-22.4654
-22.3243
-22.1896
-22.0616
-21.9406
-21.8271
-21.7216
-21.6248
-21.5376
-21.4611
-21.3965
-21.3449
-21.3077
-21.2863
-21.2819
-21.2962
-21.3305
-21.3867
-21.4663
-21.5714
-21.7035
-21.8646
-22.0562
-22.2793
-22.5343
-22.8205
-23.1353
-23.4743
-23.8305
-24.1947
-24.556
-24.9028
-25.2239
-25.51
-25.7541
-25.9518
-26.1007
-26.2001
-26.2497
-26.8332
-26.7919
-26.7116
-26.5966
-26.4524
-26.2851
-26.1003
-25.9029
-25.697
-25.4854
-25.2704
-25.0536
-24.8366
-24.6206
-24.4072
-24.1977
-23.9934
-23.7951
-23.6036
-23.4189
-23.241
-23.0695
-22.904
-22.7444
-22.5904
-22.4423
-22.3001
-22.1642
-22.0347
-21.9119
-21.7962
-21.6881
-21.5883
-21.4976
-21.4173
-21.3486
-21.2927
-21.251
-21.2249
-21.2158
-21.2251
-21.2545
-21.3058
-21.3809
-21.4818
-21.6108
-21.7701
-21.9617
-22.1877
-22.4491
-22.746
-23.0766
-23.4364
-23.8181
-24.2111
-24.6024
-24.9782
-25.325
-25.6322
-25.8921
-26.1007
-26.2566
-26.3599
-26.4112
-26.9585
-26.9121
-26.8224
-26.6949
-26.5364
-26.3544
-26.1557
-25.9459
-25.7292
-25.5084
-25.2855
-25.0618
-24.8385
-24.6169
-24.3984
-24.1845
-23.9766
-23.7757
-23.5825
-23.3968
-23.2184
-23.0467
-22.881
-22.7209
-22.5663
-22.4173
-22.274
-22.1367
-22.0057
-21.8811
-21.763
-21.6521
-21.5489
-21.4544
-21.3698
-21.2965
-21.2358
-21.1892
-21.158
-21.1435
-21.1474
-21.1713
-21.217
-21.2866
-21.3826
-21.5075
-21.6639
-21.8548
-22.0829
-22.3505
-22.6586
-23.0063
-23.3897
-23.8008
-24.2275
-24.6543
-25.0642
-25.4409
-25.7718
-26.0488
-26.2687
-26.4311
-26.5378
-26.5905
-27.0987
-27.0462
-26.9451
-26.8025
-26.6271
-26.4281
-26.2137
-25.9901
-25.7618
-25.5314
-25.3004
-25.0695
-24.8397
-24.6119
-24.3879
-24.1692
-23.9574
-23.7538
-23.5589
-23.3725
-23.1939
-23.0222
-22.8565
-22.6961
-22.5408
-22.3908
-22.2463
-22.1077
-21.9752
-21.8486
-21.7282
-21.6142
-21.5073
-21.4086
-21.3194
-21.2411
-21.1753
-21.1233
-21.0865
-21.0664
-21.0643
-21.082
-21.1214
-21.1849
-21.275
-21.3947
-21.5472
-21.7362
-21.9653
-22.2382
-22.5575
-22.9235
-23.3328
-23.7773
-24.2432
-24.7115
-25.1611
-25.5719
-25.929
-26.224
-26.4546
-26.6227
-26.7317
-26.7853
-27.254
-27.1941
-27.0792
-26.9186
-26.7234
-26.5049
-26.2728
-26.0343
-25.7938
-25.5537
-25.3145
-25.0764
-24.8399
-24.6057
-24.3757
-24.1517
-23.9358
-23.7294
-23.5329
-23.346
-23.1677
-22.9964
-22.8308
-22.6702
-22.5142
-22.3632
-22.2175
-22.0776
-21.9435
-21.8151
-21.6922
-21.575
-21.4643
-21.361
-21.2667
-21.1831
-21.1118
-21.0541
-21.0115
-20.9853
-20.9768
-20.9878
-21.0203
-21.0768
-21.1601
-21.2735
-21.4208
-21.6064
-21.8352
-22.1122
-22.442
-22.8267
-23.2643
-23.7464
-24.2571
-24.7737
-25.2693
-25.7189
-26.1045
-26.4175
-26.6577
-26.8297
-26.9397
-26.9932
-27.4247
-27.3557
-27.2244
-27.0424
-26.8241
-26.5834
-26.3318
-26.0773
-25.8244
-25.5746
-25.3276
-25.0825
-24.8392
-24.5983
-24.3618
-24.1321
-23.9117
-23.7023
-23.5045
-23.3176
-23.14
-22.9696
-22.8045
-22.6438
-22.487
-22.3348
-22.1878
-22.0466
-21.9111
-21.7809
-21.6557
-21.5352
-21.4203
-21.3121
-21.2124
-21.1231
-21.0459
-20.9824
-20.9337
-20.9011
-20.8859
-20.8897
-20.9147
-20.9635
-21.0391
-21.1451
-21.2858
-21.4664
-21.6929
-21.9722
-22.3113
-22.7147
-23.1823
-23.7062
-24.2684
-24.841
-25.3898
-25.8831
-26.299
-26.6295
-26.8771
-27.0506
-27.1595
-27.2118
-27.6112
-27.5313
-27.3803
-27.1732
-26.928
-26.6622
-26.3892
-26.1179
-25.8526
-25.5937
-25.3395
-25.0878
-24.8377
-24.5898
-24.3462
-24.1101
-23.8849
-23.6725
-23.4736
-23.2873
-23.1111
-22.9421
-22.7779
-22.6171
-22.4595
-22.3059
-22.1574
-22.015
-21.8783
-21.7467
-21.6191
-21.4953
-21.376
-21.2625
-21.157
-21.0616
-20.9784
-20.9087
-20.8539
-20.8147
-20.7925
-20.7887
-20.8057
-20.846
-20.9131
-21.0106
-21.1433
-21.3169
-21.539
-21.8183
-22.1645
-22.5859
-23.085
-23.6549
-24.2757
-24.9132
-25.5238
-26.0661
-26.5138
-26.8601
-27.112
-27.2836
-27.3888
-27.4386
-27.8141
-27.7212
-27.5467
-27.3099
-27.0338
-26.7398
-26.4436
-26.1548
-25.8775
-25.6105
-25.35
-25.0923
-24.8355
-24.5802
-24.3289
-24.0858
-23.8552
-23.6399
-23.4403
-23.2551
-23.0812
-22.9144
-22.7514
-22.5906
-22.4319
-22.2766
-22.1265
-21.9829
-21.8455
-21.7126
-21.5829
-21.4557
-21.3317
-21.2126
-21.1008
-20.9991
-20.9096
-20.8337
-20.7726
-20.7269
-20.6975
-20.6858
-20.6941
-20.7254
-20.7831
-20.8711
-20.9943
-21.1591
-21.374
-21.6503
-22.001
-22.4387
-22.9701
-23.5902
-24.2775
-24.9907
-25.6731
-26.2702
-26.7505
-27.1097
-27.3615
-27.5269
-27.6253
-27.6709
-28.0344
-27.9259
-27.7235
-27.4518
-27.14
-26.8146
-26.4935
-26.187
-25.8985
-25.6248
-25.3594
-25.0963
-24.8331
-24.57
-24.31
-24.059
-23.8227
-23.6042
-23.4043
-23.2212
-23.0506
-22.8867
-22.7253
-22.5646
-22.4046
-22.2472
-22.0952
-21.9505
-21.8127
-21.6792
-21.5475
-21.417
-21.2881
-21.1628
-21.0442
-20.9358
-20.8399
-20.7578
-20.6905
-20.6383
-20.6016
-20.5817
-20.581
-20.6027
-20.6503
-20.7277
-20.84
-20.9939
-21.199
-21.4687
-21.8202
-22.2716
-22.8353
-23.5095
-24.2719
-25.0734
-25.8397
-26.4983
-27.011
-27.3786
-27.6246
-27.7786
-27.8664
-27.9059
-28.273
-28.1458
-27.9104
-27.5978
-27.2452
-26.8851
-26.5375
-26.2131
-25.9148
-25.6363
-25.3677
-25.1002
-24.8306
-24.5594
-24.2897
-24.0296
-23.7869
-23.5653
-23.3655
-23.1856
-23.0195
-22.8597
-22.7003
-22.5395
-22.3779
-22.2177
-22.0632
-21.9178
-21.7803
-21.6467
-21.5134
-21.3794
-21.2454
-21.1134
-20.9875
-20.8721
-20.7696
-20.6814
-20.6082
-20.5496
-20.5055
-20.4771
-20.4669
-20.4785
-20.5155
-20.5816
-20.6816
-20.8227
-21.015
-21.2738
-21.6214
-22.0828
-22.6778
-23.4095
-24.2566
-25.1617
-26.0269
-26.7539
-27.2976
-27.6672
-27.8999
-28.0364
-28.1096
-28.141
-28.5312
-28.3816
-28.1074
-27.7469
-27.3476
-26.9496
-26.5741
-26.232
-25.9257
-25.645
-25.3753
-25.1044
-24.8287
-24.5489
-24.2681
-23.9973
-23.7477
-23.5229
-23.3238
-23.1483
-22.9883
-22.8337
-22.6767
-22.5157
-22.3519
-22.188
-22.0306
-21.8847
-21.7483
-21.6155
-21.481
-21.3436
-21.2041
-21.0646
-20.9307
-20.8081
-20.6991
-20.6048
-20.5259
-20.4612
-20.41
-20.3728
-20.3527
-20.3538
-20.3798
-20.4339
-20.5204
-20.6468
-20.8232
-21.0665
-21.4044
-21.8708
-22.4951
-23.2868
-24.2283
-25.2555
-26.2383
-27.0416
-27.6126
-27.9756
-28.1859
-28.2979
-28.352
-28.3732
-28.8104
-28.6339
-28.3145
-27.8979
-27.4453
-27.0065
-26.6019
-26.2424
-25.9306
-25.651
-25.3829
-25.1094
-24.8277
-24.539
-24.2452
-23.9619
-23.7049
-23.4768
-23.2787
-23.1093
-22.9574
-22.8094
-22.6549
-22.4935
-22.3272
-22.1583
-21.9969
-21.851
-21.7169
-21.5861
-21.4506
-21.3097
-21.1647
-21.0168
-20.874
-20.744
-20.6284
-20.5283
-20.4441
-20.3738
-20.3155
-20.2694
-20.2389
-20.2291
-20.2439
-20.2856
-20.3576
-20.4678
-20.6254
-20.8477
-21.1693
-21.634
-22.2842
-23.1373
-24.1829
-25.3547
-26.4792
-27.3667
-27.9588
-28.3034
-28.4807
-28.5606
-28.591
-28.5999
-29.1122
-28.9035
-28.5316
-28.0495
-27.5359
-27.0543
-26.6196
-26.243
-25.9289
-25.6543
-25.3912
-25.1159
-24.8282
-24.5305
-24.2212
-23.9228
-23.6583
-23.4268
-23.23
-23.0686
-22.9269
-22.7873
-22.6355
-22.4732
-22.304
-22.1284
-21.9616
-21.8164
-21.6863
-21.5588
-21.4225
-21.2781
-21.1274
-20.9701
-20.8172
-20.6798
-20.5578
-20.4519
-20.3632
-20.2879
-20.2228
-20.1674
-20.126
-20.1049
-20.1085
-20.1378
-20.1944
-20.2871
-20.4234
-20.619
-20.9161
-21.371
-22.0425
-22.9563
-24.1146
-25.459
-26.7561
-27.7357
-28.3386
-28.6499
-28.7818
-28.8216
-28.8238
-28.8186
-29.4384
-29.1907
-28.7591
-28.2001
-27.617
-27.0914
-26.6261
-26.2322
-25.9202
-25.6555
-25.4013
-25.1242
-24.8304
-24.5245
-24.1963
-23.8794
-23.6077
-23.3728
-23.177
-23.0261
-22.8975
-22.7684
-22.6188
-22.4551
-22.2829
-22.0982
-21.9239
-21.7806
-21.6565
-21.5343
-21.3972
-21.249
-21.093
-20.9247
-20.7602
-20.6156
-20.4873
-20.3758
-20.2834
-20.2038
-20.1324
-20.0673
-20.0144
-19.9818
-19.9745
-19.9914
-20.0318
-20.1065
-20.2195
-20.3818
-20.6454
-21.0804
-21.7677
-22.7393
-24.016
-25.5673
-27.078
-28.1564
-28.7544
-29.0136
-29.0865
-29.078
-29.0479
-29.0267
-29.7912
-29.4956
-28.9977
-28.3482
-27.685
-27.117
-26.6206
-26.2085
-25.9041
-25.6548
-25.4148
-25.135
-24.8346
-24.5223
-24.1706
-23.8304
-23.5533
-23.3146
-23.119
-22.9817
-22.8694
-22.7538
-22.6051
-22.4391
-22.2648
-22.0677
-21.8828
-21.7433
-21.6277
-21.5134
-21.3747
-21.2225
-21.0622
-20.8806
-20.7023
-20.5515
-20.4171
-20.2998
-20.2049
-20.122
-20.0449
-19.9695
-19.9043
-19.8598
-19.8423
-19.8476
-19.8707
-19.9274
-20.0163
-20.1382
-20.3583
-20.7609
-21.4581
-22.4814
-23.8765
-25.6776
-27.4569
-28.6377
-29.2079
-29.3923
-29.3914
-29.3268
-29.2608
-29.2224
-30.1732
-29.8178
-29.2487
-28.492
-27.7359
-27.1307
-26.6025
-26.1695
-25.8804
-25.6527
-25.4336
-25.1483
-24.8404
-24.5262
-24.1442
-23.7742
-23.4955
-23.2524
-23.0547
-22.9355
-22.8429
-22.7447
-22.5947
-22.4251
-22.2509
-22.0366
-21.8367
-21.7039
-21.5999
-21.4969
-21.3553
-21.1983
-21.0358
-20.8379
-20.6428
-20.4877
-20.3474
-20.2237
-20.1281
-20.0429
-19.9609
-19.8744
-19.7959
-19.739
-19.7124
-19.7073
-19.7115
-19.7512
-19.8169
-19.8904
-20.0561
-20.4109
-21.1127
-22.1789
-23.6823
-25.7865
-27.909
-29.19
-29.6998
-29.7825
-29.6927
-29.565
-29.4603
-29.4037
-30.5874
-30.1555
-29.5146
-28.6294
-27.7638
-27.1332
-26.5721
-26.1125
-25.8493
-25.6496
-25.4606
-25.1642
-24.8468
-24.5391
-24.1174
-23.7078
-23.4352
-23.1867
-22.9825
-22.8877
-22.8185
-22.7431
-22.5874
-22.4124
-22.2431
-22.0049
-21.7835
-21.6623
-21.5733
-21.4865
-21.3389
-21.176
-21.0154
-20.7967
-20.5805
-20.4247
-20.2785
-20.1472
-20.0531
-19.9668
-19.8812
-19.7823
-19.6892
-19.6194
-19.5852
-19.5718
-19.5543
-19.5791
-19.6251
-19.6406
-19.741
-20.0283
-20.7322
-21.8292
-23.4141
-25.8883
-28.4571
-29.8242
-30.2292
-30.1796
-29.9862
-29.7897
-29.6445
-29.5692
-31.0379
-30.5049
-29.7995
-28.7584
-27.761
-27.1267
-26.5302
-26.0333
-25.8114
-25.6453
-25.4999
-25.1821
-24.8518
-24.5658
-24.0902
-23.6272
-23.3745
-23.1182
-22.8997
-22.8387
-22.7958
-22.7516
-22.5828
-22.3995
-22.2443
-21.9724
-21.7199
-21.6184
-21.5475
-21.4842
-21.3251
-21.1544
-21.0032
-20.757
-20.5132
-20.3632
-20.2106
-20.0692
-19.9805
-19.894
-19.8066
-19.6936
-19.5843
-19.5004
-19.461
-19.4426
-19.3987
-19.4118
-19.4454
-19.391
-19.4159
-19.61
-20.3186
-21.4331
-23.0461
-25.9739
-29.132
-30.5519
-30.793
-30.5776
-30.2674
-29.9981
-29.8118
-29.7181
-31.5301
-30.8592
-30.1105
-28.8767
-27.7167
-27.1161
-26.4786
-25.926
-25.7687
-25.6387
-25.5572
-25.2007
-24.8516
-24.613
-24.0627
-23.526
-23.3167
-23.0484
-22.8024
-22.7896
-22.7744
-22.774
-22.5802
-22.384
-22.2587
-21.9392
-21.6419
-21.5729
-21.5219
-21.4929
-21.3133
-21.1315
-21.0024
-20.7187
-20.4382
-20.3046
-20.1445
-19.9887
-19.9107
-19.8244
-19.7381
-19.6082
-19.481
-19.3816
-19.3397
-19.322
-19.2434
-19.2494
-19.2835
-19.1432
-19.0855
-19.1508
-19.8761
-20.9966
-22.5433
-26.0295
-29.9769
-31.3837
-31.3849
-30.9693
-30.5316
-30.1879
-29.9612
-29.8497
-32.0714
-31.2065
-30.4589
-28.9822
-27.6157
-27.1095
-26.4201
-25.7819
-25.7249
-25.6275
-25.6409
-25.2177
-24.8398
-24.6908
-24.0351
-23.3948
-23.2675
-22.9792
-22.685
-22.743
-22.7523
-22.8158
-22.578
-22.3619
-22.2928
-21.905
-21.5433
-21.5274
-21.4952
-21.5171
-21.3023
-21.1042
-21.0178
-20.6817
-20.3511
-20.2513
-20.0807
-19.9034
-19.8448
-19.7578
-19.6773
-19.5263
-19.3792
-19.2619
-19.2212
-19.213
-19.0859
-19.0912
-19.1469
-18.8974
-18.7563
-18.6421
-19.411
-20.5338
-21.8589
-26.0346
-31.0514
-32.3272
-31.9952
-31.3464
-30.7744
-30.3572
-30.0918
-29.9637
-32.6722
-31.5278
-30.8619
-29.0725
-27.4366
-27.1206
-26.3592
-25.5884
-25.6867
-25.6061
-25.7627
-25.2297
-24.8068
-24.8137
-24.0071
-23.2203
-23.2358
-22.9135
-22.5389
-22.7029
-22.7261
-22.8846
-22.5738
-22.3267
-22.356
-21.8698
-21.4158
-21.4855
-21.4646
-21.5628
-21.2902
-21.0674
-21.0565
-20.6459
-20.2456
-20.207
-20.0204
-19.8106
-19.7845
-19.6936
-19.6258
-19.4477
-19.2791
-19.1401
-19.1048
-19.1202
-18.9227
-18.9351
-19.0455
-18.652
-18.4386
-18.0709
-18.9319
-20.071
-20.9309
-25.9591
-32.4379
-33.3848
-32.6098
-31.6998
-30.9918
-30.5044
-30.2035
-30.0604
-33.3474
-31.7936
-31.3458
-29.1453
-27.1496
-27.1699
-26.3017
-25.327
-25.6657
-25.5651
-25.9396
-25.2316
-24.7377
-25.0024
-23.9786
-22.9831
-23.2349
-22.8551
-22.3519
-22.6768
-22.6893
-22.9915
-22.5643
-22.2688
-22.4615
-21.8334
-21.248
-21.4531
-21.4249
-21.6391
-21.2743
-21.0137
-21.1285
-20.6107
-20.1131
-20.1777
-19.9647
-19.7057
-19.7325
-19.6302
-19.5863
-19.3716
-19.1807
-19.0144
-18.989
-19.05
-18.7483
-18.7773
-18.9926
-18.4016
-18.148
-17.4167
-18.449
-19.6519
-19.6777
-25.76
-34.2492
-34.5483
-33.21
-32.0202
-31.1804
-30.6287
-30.2964
-30.1403
-34.1179
-31.9597
-31.949
-29.1985
-26.7136
-27.2879
-26.255
-24.9718
-25.6806
-25.4879
-26.1955
-25.2163
-24.611
-25.2861
-23.9491
-22.6563
-23.2846
-22.8092
-22.1068
-22.6768
-22.631
-23.1522
-22.5447
-22.1745
-22.6282
-21.7951
-21.0241
-21.4408
-21.3676
-21.7585
-21.2507
-20.9323
-21.2481
-20.5755
-19.9413
-20.1718
-19.9152
-19.5825
-19.6931
-19.565
-19.5622
-19.2971
-19.0846
-18.883
-18.8715
-19.0119
-18.555
-18.6115
-19.0066
-18.1353
-17.908
-16.6496
-17.9731
-19.3443
-17.9932
-25.3769
-36.6383
-35.7939
-33.7725
-32.2985
-31.3374
-30.7298
-30.371
-30.204
-35.0133
-31.9618
-32.7266
-29.2299
-26.0723
-27.5183
-26.2287
-24.4861
-25.7605
-25.3484
-26.5639
-25.1743
-24.3961
-25.705
-23.9177
-22.203
-23.4127
-22.7819
-21.7791
-22.7217
-22.5339
-23.3886
-22.5086
-22.0241
-22.882
-21.754
-20.7229
-21.4647
-21.2789
-21.9385
-21.2144
-20.8082
-21.4349
-20.539
-19.7137
-20.2018
-19.8734
-19.4322
-19.6729
-19.4935
-19.5584
-19.2219
-18.992
-18.7434
-18.748
-19.0193
-18.3325
-18.4283
-19.113
-17.8337
-17.7538
-15.7267
-17.5144
-19.2484
-15.7411
-24.7266
-39.8111
-37.0733
-34.2706
-32.527
-31.4616
-30.8083
-30.4282
-30.2527
-36.0744
-31.7087
-33.7558
-29.237
-25.1502
-27.9217
-26.2338
-23.8193
-25.9496
-25.1062
-27.0908
-25.0932
-24.0508
-26.313
-23.8827
-21.5735
-23.6585
-22.7808
-21.3353
-22.8402
-22.3714
-23.731
-22.4476
-21.7903
-23.2578
-21.7082
-20.316
-21.5495
-21.1377
-22.2035
-21.1585
-20.6203
-21.7156
-20.4995
-19.408
-20.2851
-19.8411
-19.2428
-19.6818
-19.4089
-19.5818
-19.1431
-18.9047
-18.5929
-18.6121
-19.0906
-18.0674
-18.2138
-19.3463
-17.4652
-17.7364
-14.5882
-17.0794
-19.5068
-12.7487
-23.6961
-44.0411
-38.3035
-34.6762
-32.6999
-31.5526
-30.8648
-30.4692
-30.2873
-37.3571
-31.0741
-35.1426
-29.2173
-23.8478
-28.5806
-26.2833
-22.903
-26.3122
-24.7018
-27.8388
-24.9571
-23.5182
-27.1823
-23.842
-20.7019
-24.0751
-22.8145
-20.73
-23.0743
-22.1043
-24.2206
-22.351
-21.4367
-23.8022
-21.6548
-19.7659
-21.7313
-20.9124
-22.5864
-21.074
-20.3406
-22.1259
-20.4541
-18.995
-20.4459
-19.8198
-18.9983
-19.7339
-19.3008
-19.6418
-19.0556
-18.8257
-18.4288
-18.4542
-19.2509
-17.7422
-17.9485
-19.7544
-16.9815
-17.929
-13.1537
-16.6675
-20.3159
-8.80001
-22.1345
-49.6868
-39.3533
-34.9627
-32.8142
-31.6112
-30.9008
-30.4951
-30.3092
-38.9366
-29.8864
-37.0279
-29.1674
-22.0353
-29.6045
-26.391
-21.6456
-26.9397
-24.049
-28.8914
-24.7459
-22.7225
-28.4062
-23.7915
-19.5027
-24.7328
-22.8927
-19.9024
-23.4832
-21.6756
-24.9117
-22.2044
-20.914
-24.5754
-21.5886
-19.0229
-22.0603
-20.5566
-23.1304
-20.9486
-19.9311
-22.7113
-20.3979
-18.4357
-20.7149
-19.8092
-18.6757
-19.8479
-19.1529
-19.7498
-18.9505
-18.7581
-18.2467
-18.2586
-19.5321
-17.3336
-17.6036
-20.3998
-16.3093
-18.432
-11.3154
-16.2651
-21.9375
-3.627
-19.8431
-57.2113
-40.0263
-35.1099
-32.8694
-31.6388
-30.9175
-30.5069
-30.319
)
;

boundaryField
{
    left
    {
        type            calculated;
        value           nonuniform List<scalar> 
32
(
-26.4238
-26.4461
-26.4888
-26.5501
-26.6285
-26.7231
-26.8332
-26.9585
-27.0987
-27.254
-27.4247
-27.6112
-27.8141
-28.0344
-28.273
-28.5312
-28.8104
-29.1122
-29.4384
-29.7912
-30.1732
-30.5874
-31.0379
-31.5301
-32.0714
-32.6722
-33.3474
-34.1179
-35.0133
-36.0744
-37.3571
-38.9366
)
;
    }
    right
    {
        type            calculated;
        value           nonuniform List<scalar> 
32
(
-25.7948
-25.8295
-25.8954
-25.9894
-26.1083
-26.2497
-26.4112
-26.5905
-26.7853
-26.9932
-27.2118
-27.4386
-27.6709
-27.9059
-28.141
-28.3732
-28.5999
-28.8186
-29.0267
-29.2224
-29.4037
-29.5692
-29.7181
-29.8497
-29.9637
-30.0604
-30.1403
-30.204
-30.2527
-30.2873
-30.3092
-30.319
)
;
    }
    interface
    {
        type            calculated;
        value           nonuniform List<scalar> 
64
(
-39.8112
-29.1297
-38.1153
-29.1343
-20.9833
-30.2232
-26.4613
-20.9187
-27.3329
-23.648
-29.5058
-24.6186
-22.2481
-29.12
-23.7632
-18.8091
-25.1319
-22.944
-19.4243
-23.7399
-21.4125
-25.3155
-22.1167
-20.6034
-25.0277
-21.5515
-18.5961
-22.2689
-20.3393
-23.4488
-20.8739
-19.6883
-23.054
-20.3661
-18.1138
-20.8807
-19.8064
-18.4916
-19.9229
-19.0663
-19.8173
-18.8922
-18.7275
-18.1504
-18.1489
-19.7071
-17.105
-17.407
-20.7907
-15.9151
-18.7756
-10.2798
-16.0636
-22.9886
-0.697396
-18.4866
-61.5084
-40.2394
-35.1467
-32.8824
-31.645
-30.921
-30.5092
-30.3209
)
;
    }
    bottom
    {
        type            calculated;
        value           nonuniform List<scalar> 
64
(
-26.418
-26.3906
-26.3365
-26.2573
-26.155
-26.0322
-25.8915
-25.7358
-25.5679
-25.3901
-25.2051
-25.0149
-24.8214
-24.6264
-24.4313
-24.2375
-24.0461
-23.858
-23.674
-23.4945
-23.3202
-23.1514
-22.9882
-22.8311
-22.6801
-22.5356
-22.3978
-22.2671
-22.1438
-22.0285
-21.9217
-21.8239
-21.7361
-21.659
-21.5935
-21.5407
-21.5016
-21.4775
-21.4696
-21.479
-21.5071
-21.5551
-21.6242
-21.7156
-21.8301
-21.9686
-22.1314
-22.3184
-22.5289
-22.7615
-23.0137
-23.2825
-23.5633
-23.8512
-24.14
-24.4232
-24.6942
-24.9464
-25.1737
-25.3709
-25.5337
-25.6586
-25.7431
-25.7858
)
;
    }
    defaultFaces
    {
        type            empty;
    }
}


// ************************************************************************* //
