/*--------------------------------*- C++ -*----------------------------------*\
| =========                 |                                                 |
| \\      /  F ield         | OpenFOAM: The Open Source CFD Toolbox           |
|  \\    /   O peration     | Version:  5.x                                   |
|   \\  /    A nd           | Web:      www.OpenFOAM.org                      |
|    \\/     M anipulation  |                                                 |
\*---------------------------------------------------------------------------*/
FoamFile
{
    version     2.0;
    format      ascii;
    class       volScalarField;
    location    "9.0999";
    object      gradTy;
}
// * * * * * * * * * * * * * * * * * * * * * * * * * * * * * * * * * * * * * //

dimensions      [0 -1 0 1 0 0 0];

internalField   nonuniform List<scalar> 
6300
(
32284.1
32252.2
32220.3
32188.1
32155.7
32123
32090
32056.5
32022.5
31988
31952.9
31917.2
31881
31844.1
31806.7
0.0534753
0.159926
0.264844
0.367096
0.465389
0.558228
0.643899
0.720485
0.78593
0.838169
0.875305
0.895872
0.89911
0.885251
0.855707
0.0896808
0.268249
0.444375
0.616234
0.78172
0.938359
1.08328
1.2132
1.32458
1.41374
1.47726
1.51238
1.51751
1.49285
1.44072
0.126681
0.379016
0.628178
0.871756
1.10691
1.33023
1.53767
1.7245
1.88546
2.01499
2.10767
2.15891
2.16577
2.12796
2.04863
0.16471
0.49296
0.817574
1.13572
1.44395
1.73801
2.01269
2.26171
2.47784
2.65314
2.77958
2.84987
2.85878
2.80468
2.69111
0.203911
0.610545
1.01345
1.40961
1.79518
2.16522
2.51341
2.83186
3.11108
3.34023
3.50771
3.60228
3.61487
3.54091
3.38325
0.244303
0.731866
1.2161
1.6941
2.16196
2.61432
3.04392
3.44129
3.79447
4.08906
4.3088
4.43673
4.45753
4.36087
4.14626
0.285743
0.856528
1.42498
1.98876
2.54429
3.08621
3.60672
4.09498
4.53648
4.9128
5.20171
5.37833
5.41761
5.29873
5.01225
0.327886
0.983534
1.63856
2.29169
2.94027
3.57955
4.20183
4.79546
5.34374
5.82396
6.20688
6.45721
6.53574
6.404
6.03301
0.370156
1.11117
1.85406
2.5992
3.34558
4.08993
4.82564
5.54133
6.21906
6.83238
7.34456
7.70776
7.86395
7.7483
7.2953
0.411724
1.23695
2.06732
2.90551
3.75296
4.60899
5.46951
6.32517
7.15876
7.94185
8.63109
9.16514
9.46394
9.43006
8.94484
0.451515
1.35761
2.27276
3.20258
4.1518
5.1236
6.11826
7.13106
8.14888
9.14506
10.0727
10.8578
11.3972
11.5649
11.2083
0.488249
1.46921
2.46356
3.48025
4.52809
5.61536
6.74885
7.9319
9.16055
10.4167
11.6567
12.7968
13.7046
14.2314
14.3267
0.520526
1.56742
2.63204
3.7268
4.86498
6.06092
7.32989
8.68707
10.1446
11.7043
13.3409
14.9696
16.3998
17.3506
17.9765
0.546958
1.64792
2.77039
3.92994
5.14411
6.43346
7.82269
9.3418
11.0265
12.9149
15.0331
17.3437
19.5877
20.8451
18.6159
31771.8
31739.8
31707.3
31674.6
31641.5
31608.1
31574.5
31540.6
31506.5
31472.2
31437.7
31403.1
31368.3
31333.4
31298.4
31263.4
31228.3
31193.2
31158.1
31123
31088
31053
31018
30983.1
30948.2
30913.3
30878.6
30843.8
30809.1
30774.5
30740
30705.5
30671.2
30636.9
30602.7
30568.7
30534.8
30500.9
30467.2
30433.5
30400
30366.5
30333.1
30299.8
30266.6
30233.5
30200.5
30167.6
30134.8
30102.2
30069.7
30037.2
30004.9
29972.7
29940.6
29908.5
29876.6
29844.7
29813
29781.3
29749.7
29718.2
29686.8
29655.5
29624.4
29593.3
29562.3
29531.4
29500.6
29469.9
29439.3
29408.7
29378.2
29347.7
29317.3
29287
29256.7
29226.5
29196.4
29166.3
29136.2
29106.2
29076.2
29046.1
29016.1
28986
28955.8
28925.5
28895.2
28864.7
0.816641
0.774316
0.727463
0.678299
0.628682
0.579854
0.532318
0.485852
0.439686
0.392796
0.344245
0.293509
0.240716
0.186746
0.133163
0.0819967
0.0354122
-0.00467287
-0.0369342
-0.060889
-0.0769987
-0.0866111
-0.0917563
-0.0948317
-0.0982292
-0.103964
-0.113365
-0.126874
-0.144001
-0.163425
-0.18325
-0.201364
-0.215821
-0.225203
-0.228868
-0.227059
-0.220861
-0.212013
-0.202608
-0.194749
-0.190192
-0.190057
-0.194642
-0.203369
-0.214892
-0.227336
-0.238627
-0.246868
-0.250667
-0.249377
-0.243198
-0.233131
-0.220799
-0.208166
-0.197204
-0.189557
-0.18627
-0.187602
-0.192989
-0.201133
-0.210234
-0.218307
-0.223529
-0.224558
-0.220755
-0.212281
-0.20005
-0.185557
-0.170605
-0.156981
-0.146136
-0.138909
-0.13535
-0.134674
-0.135345
-0.135295
-0.132243
-0.124047
-0.109049
-0.0863503
-0.0559807
-0.0189564
0.0227813
0.066528
0.109065
0.146971
0.176985
0.196371
0.203253
0.196865
1.372
1.29783
1.2162
1.13131
1.04662
0.964435
0.885542
0.8093
0.733967
0.657287
0.577182
0.492404
0.403011
0.31057
0.218036
0.129323
0.0486365
-0.0202736
-0.0748077
-0.113998
-0.138705
-0.1515
-0.156266
-0.157591
-0.160051
-0.167497
-0.182459
-0.205755
-0.236393
-0.271771
-0.30817
-0.341443
-0.367792
-0.384448
-0.390167
-0.385429
-0.372341
-0.354266
-0.335253
-0.319362
-0.309987
-0.309292
-0.317847
-0.334528
-0.356712
-0.380739
-0.402571
-0.418514
-0.425872
-0.423404
-0.411515
-0.39216
-0.368488
-0.344301
-0.323415
-0.309015
-0.30312
-0.306239
-0.317274
-0.333704
-0.352025
-0.368372
-0.379207
-0.381936
-0.375343
-0.359768
-0.337012
-0.309995
-0.282236
-0.257229
-0.237823
-0.225699
-0.22102
-0.222335
-0.226737
-0.230281
-0.228596
-0.217568
-0.193998
-0.156113
-0.103876
-0.0390742
0.0347972
0.112836
0.189175
0.257546
0.311924
0.347216
0.359903
0.348536
1.94428
1.83214
1.70974
1.58409
1.46105
1.34434
1.23501
1.1315
1.03024
0.926751
0.816882
0.697971
0.569715
0.434543
0.297422
0.165099
0.044912
-0.0565686
-0.134769
-0.187957
-0.21756
-0.227946
-0.225725
-0.218709
-0.214686
-0.220204
-0.239545
-0.274058
-0.321954
-0.378644
-0.437583
-0.491491
-0.533714
-0.559437
-0.566519
-0.555818
-0.530996
-0.497864
-0.463399
-0.434589
-0.417279
-0.415203
-0.429346
-0.457759
-0.495872
-0.5373
-0.574991
-0.602519
-0.615222
-0.610994
-0.590583
-0.557403
-0.516913
-0.475681
-0.440285
-0.416222
-0.406989
-0.413476
-0.433788
-0.46355
-0.496657
-0.526374
-0.546558
-0.552738
-0.542865
-0.517596
-0.480108
-0.435502
-0.389904
-0.349411
-0.319026
-0.301766
-0.29806
-0.305552
-0.319363
-0.332798
-0.338401
-0.329149
-0.299561
-0.246543
-0.169863
-0.0722533
0.0408114
0.16159
0.28076
0.38827
0.474346
0.530609
0.551192
0.533629
2.54154
2.38131
2.20804
2.03321
1.86645
1.7137
1.5762
1.45053
1.32978
1.20546
1.06964
0.917029
0.746402
0.561337
0.369908
0.183405
0.0142541
-0.126385
-0.230749
-0.295878
-0.324087
-0.322545
-0.30209
-0.275519
-0.255584
-0.253005
-0.274785
-0.323089
-0.394851
-0.482279
-0.574242
-0.658367
-0.723397
-0.761269
-0.768478
-0.746544
-0.701619
-0.643381
-0.583402
-0.533256
-0.502636
-0.497759
-0.520298
-0.56702
-0.630261
-0.699241
-0.762048
-0.80787
-0.828953
-0.821886
-0.788036
-0.733172
-0.666408
-0.598656
-0.540834
-0.502075
-0.48822
-0.500801
-0.536696
-0.588579
-0.646168
-0.698104
-0.734071
-0.746653
-0.732555
-0.693018
-0.633452
-0.562434
-0.490222
-0.427035
-0.381326
-0.358314
-0.358974
-0.37967
-0.412527
-0.446591
-0.469599
-0.470012
-0.438861
-0.371046
-0.26599
-0.127686
0.0357181
0.212662
0.389137
0.54986
0.679698
0.765386
0.797409
0.771649
3.17379
2.94934
2.70868
2.47079
2.25175
2.06121
1.90045
1.76255
1.63455
1.50078
1.34665
1.16207
0.943909
0.697315
0.435316
0.176734
-0.0574565
-0.248434
-0.383227
-0.456963
-0.473459
-0.444378
-0.387262
-0.322775
-0.271493
-0.250727
-0.271834
-0.33834
-0.445191
-0.579384
-0.722191
-0.85274
-0.952187
-1.00726
-1.01241
-0.970375
-0.891416
-0.791407
-0.689246
-0.603807
-0.550923
-0.540836
-0.576425
-0.652495
-0.756385
-0.870071
-0.973563
-1.04885
-1.08322
-1.07135
-1.01575
-0.926078
-0.817322
-0.707331
-0.613929
-0.552065
-0.531383
-0.554551
-0.616578
-0.705388
-0.803817
-0.892828
-0.955257
-0.978986
-0.958878
-0.897277
-0.803287
-0.691082
-0.577542
-0.479489
-0.410941
-0.38077
-0.391036
-0.436273
-0.503952
-0.576305
-0.63333
-0.656328
-0.630955
-0.549174
-0.409992
-0.219264
0.0111289
0.26441
0.520198
0.755927
0.948625
1.07744
1.12684
1.08974
3.85504
3.54071
3.20537
2.88124
2.59605
2.36592
2.19184
2.0604
1.9477
1.82548
1.66759
1.45549
1.1824
0.855504
0.495824
0.134948
-0.191386
-0.451384
-0.623624
-0.700474
-0.688461
-0.606581
-0.483051
-0.351017
-0.243458
-0.188155
-0.203509
-0.295498
-0.456159
-0.664086
-0.887792
-1.0919
-1.24488
-1.32514
-1.32427
-1.24739
-1.11152
-0.942532
-0.771012
-0.627481
-0.537584
-0.518142
-0.574261
-0.697911
-0.868401
-1.05558
-1.2257
-1.34872
-1.40409
-1.38376
-1.29253
-1.14646
-0.970016
-0.792114
-0.641611
-0.542748
-0.511402
-0.552344
-0.65789
-0.808345
-0.975026
-1.12583
-1.23217
-1.27444
-1.24495
-1.14818
-0.999347
-0.821652
-0.642558
-0.489451
-0.385292
-0.344996
-0.372738
-0.460557
-0.588644
-0.728089
-0.846058
-0.912295
-0.904275
-0.809957
-0.628221
-0.367957
-0.0464175
0.312548
0.680146
1.02396
1.30955
1.50386
1.58081
1.52759
4.60756
4.16222
3.68582
3.23558
2.86103
2.5899
2.42188
2.3313
2.27462
2.20163
2.06665
1.8368
1.49843
1.06093
0.558078
0.043437
-0.420832
-0.780701
-1.00138
-1.07195
-1.00407
-0.828759
-0.591089
-0.344014
-0.140179
-0.0238353
-0.0248344
-0.153768
-0.399068
-0.726068
-1.08161
-1.4047
-1.64229
-1.75984
-1.74559
-1.60934
-1.37934
-1.0973
-0.812477
-0.573923
-0.422789
-0.386641
-0.474852
-0.675877
-0.956386
-1.26566
-1.54566
-1.74603
-1.83396
-1.79828
-1.64826
-1.41061
-1.1248
-0.837439
-0.594931
-0.436206
-0.387323
-0.457103
-0.634534
-0.887931
-1.1691
-1.42286
-1.60132
-1.67324
-1.6279
-1.47403
-1.23697
-0.954233
-0.67015
-0.428926
-0.267678
-0.211245
-0.267927
-0.426853
-0.656976
-0.910799
-1.13328
-1.27519
-1.30186
-1.19662
-0.959529
-0.604886
-0.157856
0.348259
0.874345
1.37584
1.8019
2.09928
2.22225
2.14587
5.47127
4.82808
4.12827
3.48071
2.97699
2.66527
2.54036
2.5534
2.62506
2.66711
2.60237
2.37442
1.95727
1.36048
0.637335
-0.120592
-0.8006
-1.31045
-1.5953
-1.64276
-1.47441
-1.14073
-0.71267
-0.274748
0.0890869
0.309455
0.338064
0.155529
-0.224333
-0.746945
-1.32218
-1.84059
-2.21257
-2.38436
-2.34258
-2.1063
-1.72209
-1.25607
-0.787322
-0.39448
-0.142418
-0.0760647
-0.212992
-0.539389
-1.00295
-1.51788
-1.98029
-2.30524
-2.44183
-2.37745
-2.13017
-1.7441
-1.28182
-0.818176
-0.4276
-0.17149
-0.0923658
-0.206842
-0.501783
-0.927532
-1.40262
-1.82832
-2.12391
-2.24088
-2.16712
-1.91967
-1.54038
-1.08874
-0.636023
-0.253231
0.000872812
0.085397
-0.01588
-0.290625
-0.691175
-1.13864
-1.53651
-1.80403
-1.88941
-1.77313
-1.46011
-0.974849
-0.354375
0.355212
1.10396
1.83633
2.47957
2.94585
3.15074
3.04172
6.52531
5.57466
4.49469
3.51826
2.81637
2.4715
2.46005
2.69103
3.01811
3.28638
3.37317
3.18453
2.67485
1.84203
0.766701
-0.396805
-1.42539
-2.16417
-2.53107
-2.52436
-2.18281
-1.5886
-0.848458
-0.0988005
0.524943
0.918878
1.00501
0.748974
0.155961
-0.692043
-1.6446
-2.48734
-3.07115
-3.31638
-3.21968
-2.81626
-2.18265
-1.41877
-0.652865
-0.0123174
0.405371
0.527234
0.321702
-0.205387
-0.975536
-1.84575
-2.61285
-3.1357
-3.33908
-3.22
-2.81193
-2.18733
-1.44079
-0.693698
-0.066638
0.34809
0.481378
0.303292
-0.180668
-0.896084
-1.70724
-2.42116
-2.90369
-3.08316
-2.95646
-2.55516
-1.94798
-1.2248
-0.501195
0.107776
0.513623
0.649596
0.485965
0.0267647
-0.657812
-1.4379
-2.12744
-2.59515
-2.76735
-2.63294
-2.20873
-1.53951
-0.679215
0.305775
1.35717
2.42518
3.41205
4.16883
4.53125
4.37984
7.94051
6.50635
4.71001
3.15886
2.14161
1.79767
2.03054
2.69016
3.49578
4.16698
4.54065
4.45696
3.8578
2.67281
1.02308
-0.867282
-2.4675
-3.55337
-4.00483
-3.88813
-3.25502
-2.24663
-0.997947
0.258461
1.29172
1.97154
2.16466
1.82767
0.903439
-0.48659
-2.12515
-3.50694
-4.41729
-4.7408
-4.53845
-3.85771
-2.83081
-1.58439
-0.337893
0.690759
1.37915
1.60198
1.31944
0.47862
-0.804025
-2.32212
-3.59714
-4.4262
-4.70067
-4.47872
-3.80548
-2.80615
-1.60055
-0.396371
0.600084
1.27295
1.5035
1.25389
0.473744
-0.72677
-2.15186
-3.3472
-4.11989
-4.36631
-4.14124
-3.48711
-2.52259
-1.36147
-0.201289
0.761288
1.415
1.64523
1.41343
0.668701
-0.486908
-1.86755
-3.0378
-3.81178
-4.08682
-3.91006
-3.31017
-2.37932
-1.18361
0.160721
1.58644
3.13088
4.67587
5.95967
6.65169
6.46182
10.112
7.96222
4.56871
2.02373
0.49577
0.293549
0.986789
2.47911
4.16705
5.47606
6.36673
6.47174
5.88436
4.17289
1.62597
-1.75554
-4.25025
-5.85613
-6.29674
-5.99552
-4.86767
-3.25065
-1.15857
0.937056
2.56745
3.72504
4.08767
3.75197
2.32167
0.0767383
-2.97545
-5.2054
-6.60849
-6.92246
-6.54612
-5.39764
-3.79505
-1.75015
0.290776
1.88382
3.02331
3.40447
3.12108
1.79885
-0.293473
-3.1485
-5.2236
-6.51529
-6.77713
-6.38728
-5.26859
-3.72199
-1.75828
0.200082
1.73278
2.83473
3.21707
2.96846
1.73349
-0.234063
-2.92733
-4.88184
-6.0939
-6.3284
-5.94386
-4.866
-3.38033
-1.49677
0.38317
1.85958
2.92617
3.30619
3.07953
1.90231
0.00804735
-2.60015
-4.5188
-5.7469
-6.05687
-5.79649
-4.88817
-3.60053
-1.90203
-0.101519
1.64475
3.83578
6.31581
8.60268
10.0421
9.90339
13.9767
11.2455
3.21904
-0.595019
-3.06993
-2.50304
-1.20837
1.98621
5.38392
7.3876
9.32417
9.48363
9.52964
6.87604
3.43073
-3.92076
-7.31292
-9.83688
-9.65687
-9.29324
-7.18473
-4.93877
-1.3243
2.28559
4.52399
6.6233
7.01629
7.2525
4.91295
1.80251
-5.00977
-8.09456
-10.368
-10.0982
-9.66565
-7.59151
-5.39623
-1.91017
1.56439
3.72998
5.75947
6.16389
6.41867
4.22803
1.31536
-5.09797
-7.97818
-10.0874
-9.79202
-9.34534
-7.3479
-5.23848
-1.90828
1.40948
3.48578
5.43275
5.8392
6.1034
4.04817
1.30367
-4.76659
-7.48561
-9.4756
-9.1819
-8.74484
-6.83213
-4.81102
-1.62685
1.54872
3.548
5.42604
5.84077
6.11444
4.16845
1.53108
-4.3257
-6.99418
-9.00411
-8.84823
-8.61594
-7.01238
-5.41338
-2.76734
-0.285646
1.06259
4.12452
8.23393
12.466
15.7049
16.1743
21.4515
22.3797
-3.99219
-5.10792
-11.0185
-6.34926
-6.13994
1.20063
8.60816
9.39578
14.8407
12.6589
17.0624
10.7193
10.8604
-11.7874
-11.6258
-17.7114
-13.2814
-15.1036
-9.69969
-8.59757
-1.48342
5.60905
6.68083
11.9787
10.1706
14.4621
8.61433
8.85893
-12.4117
-12.1521
-17.7899
-13.5082
-15.1491
-9.95984
-8.85614
-2.05365
4.72294
5.77211
10.8357
9.13882
13.2376
7.69691
7.96515
-12.1351
-11.843
-17.122
-13.0248
-14.5365
-9.58846
-8.51287
-2.04039
4.40661
5.425
10.2491
8.66618
12.5783
7.35538
7.63051
-11.4316
-11.1392
-16.1458
-12.2419
-13.6707
-8.95434
-7.9165
-1.74456
4.40814
5.41102
10.0331
8.57848
12.3457
7.43017
7.69007
-10.6424
-10.4179
-15.3801
-11.7496
-13.41
-9.13002
-8.73396
-3.39597
1.1624
-1.98727
2.90488
9.97537
17.7597
25.3556
29.605
32.4406
72.8564
-47.5473
-2.6925
-34.1929
-3.77081
-21.3399
0.318809
21.3651
4.69743
31.3396
6.35132
40.0704
5.22514
51.1062
-52.4997
-6.94263
-40.7282
-7.90275
-31.3197
-6.02
-20.9136
-1.6113
17.6023
2.75219
27.5665
4.54182
36.2722
3.54273
46.8973
-50.8171
-7.71722
-39.4958
-8.38964
-30.4679
-6.44497
-20.5223
-2.15981
16.129
2.0335
25.6471
3.76794
33.9376
2.80091
43.9456
-48.5373
-7.68538
-37.6585
-8.18061
-29.0298
-6.25264
-19.5588
-2.13579
15.2209
1.88399
24.2916
3.58025
32.2078
2.74537
41.8031
-45.9674
-7.16197
-35.6472
-7.62255
-27.4459
-5.77945
-18.4151
-1.8346
14.6833
2.06244
23.3904
3.79681
31.08
3.23928
40.6221
-43.6812
-6.37267
-34.1294
-7.03218
-26.7583
-5.65477
-19.1709
-2.90198
13.71
-16.6174
-1.45158
10.6889
23.3247
39.8252
66.374
28831.1
28794.3
28757.5
28720.6
28683.6
28646.7
28609.8
28573
28536.3
28499.7
28463.2
28426.8
28390.5
28354.3
28318.1
0.175739
0.136794
0.0866554
0.031078
-0.0240848
-0.0736754
-0.113744
-0.141759
-0.156561
-0.15818
-0.147566
-0.126329
-0.0965189
-0.0604476
-0.0205739
0.310501
0.240392
0.150467
0.0513618
-0.0462883
-0.133319
-0.202917
-0.250898
-0.275549
-0.2772
-0.257727
-0.220064
-0.167815
-0.104968
-0.0357047
0.47388
0.363806
0.22346
0.0701897
-0.0791115
-0.210397
-0.313706
-0.38337
-0.417535
-0.417345
-0.386078
-0.328385
-0.249711
-0.155903
-0.0529817
0.682151
0.517495
0.309375
0.0850494
-0.12995
-0.315452
-0.458139
-0.55134
-0.593875
-0.588567
-0.540856
-0.457686
-0.346738
-0.215954
-0.0733005
0.957444
0.714647
0.411498
0.090583
-0.210284
-0.463321
-0.652056
-0.769977
-0.818057
-0.802193
-0.731091
-0.614766
-0.463603
-0.287873
-0.0975668
1.33122
0.972151
0.531388
0.0760692
-0.338447
-0.675492
-0.916786
-1.05845
-1.10618
-1.07105
-0.966549
-0.806683
-0.605033
-0.374367
-0.126661
1.84983
1.31136
0.665835
0.0207537
-0.54408
-0.983412
-1.28114
-1.44087
-1.47717
-1.40929
-1.25737
-1.04038
-0.77548
-0.477903
-0.16137
2.58396
1.75761
0.799846
-0.114808
-0.875215
-1.43293
-1.7835
-1.94671
-1.95232
-1.83159
-1.61324
-1.322
-0.9786
-0.600393
-0.202287
3.64506
2.33528
0.890748
-0.404615
-1.40904
-2.0896
-2.47321
-2.61016
-2.5538
-2.3515
-2.042
-1.65579
-1.21652
-0.742781
-0.249673
5.21438
3.04769
0.832489
-0.985362
-2.26671
-3.04323
-3.40957
-3.46693
-3.30123
-2.9786
-2.54748
-2.04262
-1.48893
-0.904533
-0.303298
7.58955
3.8086
0.376884
-2.1026
-3.62922
-4.40704
-4.65492
-4.54674
-4.2056
-3.71419
-3.12668
-2.4783
-1.79202
-1.08313
-0.362284
11.2215
4.2203
-1.03095
-4.17271
-5.74054
-6.30077
-6.25633
-5.8595
-5.26024
-4.54587
-3.76677
-2.95188
-2.11773
-1.27367
-0.424997
16.4514
2.88208
-4.54826
-7.81676
-8.85944
-8.79917
-8.21014
-7.37467
-6.43
-5.44227
-4.44263
-3.44473
-2.45336
-1.46881
-0.489035
20.9013
-4.59512
-12.2274
-13.6866
-13.0813
-11.8263
-10.4104
-8.99906
-7.64281
-6.35058
-5.11675
-3.93103
-2.78218
-1.65916
-0.551373
0.56531
1.70378
2.86631
4.07065
5.33747
6.69204
8.16688
9.80546
11.6678
13.8384
16.4331
19.5875
23.33
26.8379
24.3287
0.576017
1.73626
2.92168
4.15106
5.44653
6.8358
8.35563
10.0576
12.0186
14.3606
17.2929
21.2149
27.0089
37.074
59.7487
0.581023
1.75124
2.94652
4.18557
5.49044
6.88888
8.41788
10.13
12.1049
14.4725
17.4636
21.5343
27.7039
38.603
62.1984
0.580354
1.7488
2.94096
4.17435
5.46938
6.85127
8.35296
10.0199
11.9187
14.1517
16.8844
20.3886
25.0681
31.1477
35.9162
0.574307
1.72989
2.90675
4.1203
5.38799
6.73047
8.17325
9.74897
11.5005
13.4845
15.7712
18.4289
21.4416
24.4327
26.0955
0.563416
1.6962
2.84705
4.02864
5.25463
6.53999
7.90121
9.35591
10.9211
12.6072
14.4021
16.2289
17.8451
18.6165
16.9687
0.548385
1.64996
2.76597
3.90611
5.08
6.29682
7.56424
8.88616
10.2576
11.6544
13.0107
14.1765
14.8437
14.4837
12.6763
0.530015
1.59367
2.66812
3.76011
4.87554
6.01847
7.18941
8.38199
9.57675
10.7297
11.7516
12.4701
12.558
11.357
7.14518
0.509119
1.52989
2.55806
3.59781
4.65192
5.72061
6.79952
7.87631
8.92491
9.89617
10.7033
11.2015
11.1681
10.3213
8.61327
0.486458
1.46095
2.43994
3.42551
4.41815
5.41562
6.41105
7.39015
8.32678
9.17668
9.86951
10.3021
10.3434
9.8839
8.99379
0.462698
1.38889
2.31723
3.24825
4.18099
5.11198
6.03387
6.93343
7.78884
8.56625
9.21653
9.67432
9.86644
9.74561
9.38321
0.438379
1.31533
2.19264
3.06979
3.94501
4.81461
5.67213
6.50732
7.30499
8.04407
8.69718
9.23104
9.60682
9.77508
9.6459
0.413924
1.24151
2.06815
2.89264
3.71289
4.52558
5.32585
6.10719
6.86176
7.58153
8.2606
8.89747
9.49128
10.011
10.3087
0.389647
1.16835
1.94515
2.71842
3.48599
4.24514
4.99268
5.72561
6.44262
7.14719
7.85324
8.59374
9.42708
10.4011
11.2343
0.365781
1.09649
1.82459
2.54813
3.26493
3.97274
4.66961
5.35503
6.03207
6.71176
7.42189
8.22545
9.26505
10.889
14.0803
0.342503
1.02645
1.7072
2.38251
3.05011
3.7079
4.35446
4.99023
5.61961
6.25515
6.92558
7.69317
8.69713
10.2884
13.5476
0.319958
0.958634
1.59357
2.22223
2.84209
3.45083
4.04679
4.62984
5.20285
5.77425
6.36174
6.99668
7.72132
8.52926
8.94363
0.298272
0.893409
1.4843
2.06807
2.64179
3.20263
3.74808
4.27639
4.78719
5.28214
5.76492
6.23784
6.68758
7.04339
7.12381
0.277563
0.831129
1.37998
1.92087
2.45042
2.9651
3.46126
3.93508
4.3825
4.79846
5.17492
5.49507
5.71904
5.7487
5.32871
0.257937
0.772121
1.28119
1.78155
2.26938
2.74044
3.18993
3.61211
3.99963
4.3422
4.62399
4.81906
4.88541
4.76624
4.45397
0.239485
0.716669
1.18843
1.65093
2.09997
2.53075
2.93757
3.31319
3.64797
3.92814
4.13325
4.23242
4.1806
3.91784
3.35947
0.222273
0.664982
1.1021
1.52966
1.94323
2.33771
2.70685
3.04264
3.33422
3.5662
3.71608
3.75063
3.62225
3.27472
2.7281
0.206337
0.617173
1.02242
1.41809
1.79976
2.16226
2.49929
2.80278
3.06184
3.26125
3.37899
3.38198
3.21609
2.76983
1.69113
0.191677
0.573245
0.949389
1.31625
1.66958
2.00448
2.31503
2.59378
2.83089
3.01302
3.12159
3.13058
3.00461
2.70413
2.25386
0.178257
0.533084
0.8828
1.22381
1.55221
1.86361
2.15286
2.41367
2.63812
2.81588
2.93332
2.97291
2.91433
2.74243
2.46866
0.166007
0.496471
0.822256
1.14012
1.44665
1.73812
2.01042
2.25882
2.47778
2.66061
2.79912
2.88341
2.90273
2.85149
2.75643
0.154832
0.463109
0.767208
1.06431
1.35154
1.62595
1.88458
2.12441
2.34251
2.5361
2.70258
2.83903
2.94011
2.99096
2.94451
0.144622
0.432646
0.717021
0.995351
1.26532
1.52475
1.77179
2.00509
2.22427
2.43043
2.62688
2.81922
3.01238
3.19801
3.32786
0.135258
0.404717
0.671032
0.932202
1.18641
1.43216
1.66853
1.89558
2.11506
2.3315
2.55404
2.79882
3.08989
3.44378
3.74724
0.126629
0.378972
0.628614
0.873888
1.11337
1.34608
1.57174
1.79134
2.00796
2.22833
2.46576
2.74628
3.12376
3.72457
4.90571
0.118633
0.355104
0.589229
0.819593
1.04505
1.26488
1.47916
1.68916
1.89824
2.11331
2.34756
2.62641
3.00254
3.60234
4.80134
0.111191
0.332864
0.552455
0.768711
0.980617
1.18755
1.38954
1.58761
1.78438
1.98498
2.19837
2.43897
2.726
3.06401
3.30156
0.104239
0.312071
0.517996
0.720848
0.919639
1.11366
1.30265
1.48696
1.66786
1.84776
2.0303
2.21929
2.41406
2.59545
2.70699
0.0977362
0.292603
0.485672
0.675807
0.861971
1.04327
1.219
1.38869
1.55203
1.70872
1.85775
1.99559
2.11142
2.17539
2.10431
0.0916538
0.274383
0.455385
0.633523
0.80768
0.976744
1.13956
1.29482
1.44082
1.57499
1.69298
1.78717
1.8448
1.84913
1.80345
0.0859727
0.257364
0.427087
0.594004
0.756928
0.914557
1.06536
1.20737
1.33782
1.45249
1.54474
1.60414
1.61518
1.5576
1.40422
0.0806767
0.241503
0.400736
0.557259
0.709854
0.857111
0.997271
1.12797
1.24578
1.34556
1.41932
1.45468
1.43323
1.3326
1.16268
0.0757463
0.22675
0.376268
0.523242
0.666488
0.804594
0.935755
1.0575
1.16627
1.25671
1.32057
1.34469
1.30626
1.15571
0.731877
0.0711555
0.213028
0.353567
0.491816
0.626693
0.756901
0.880777
0.996053
1.09949
1.18632
1.24941
1.27813
1.25717
1.1686
1.02324
0.0668692
0.200233
0.332458
0.462731
0.59014
0.713607
0.831773
0.942828
1.04425
1.13242
1.20212
1.24606
1.25505
1.22091
1.14406
0.0628432
0.188229
0.312706
0.435635
0.556326
0.673996
0.78771
0.896296
0.99821
1.09134
1.17273
1.23828
1.28288
1.3029
1.30973
0.0590259
0.176858
0.294028
0.410095
0.524613
0.637134
0.74721
0.8544
0.958276
1.05842
1.15433
1.24505
1.32779
1.39404
1.41708
0.0553617
0.165945
0.276118
0.385631
0.494287
0.601971
0.708717
0.814808
0.920937
1.02844
1.13956
1.25736
1.38415
1.51521
1.62646
0.0517947
0.15532
0.258666
0.361765
0.464637
0.567462
0.670682
0.775193
0.882645
0.995961
1.12015
1.26342
1.43755
1.65015
1.84361
0.0482725
0.144819
0.241387
0.338057
0.435024
0.53268
0.631754
0.733538
0.840285
0.955933
1.0875
1.24806
1.46425
1.79838
2.42721
0.0447496
0.134303
0.224038
0.314145
0.404933
0.496916
0.590947
0.688439
0.791749
0.904859
1.03471
1.19408
1.40906
1.74198
2.37841
0.0411894
0.123662
0.206432
0.289761
0.374014
0.459732
0.547738
0.639304
0.736412
0.842166
0.961415
1.10151
1.27196
1.47482
1.63474
0.0375644
0.112814
0.18844
0.264738
0.34208
0.420962
0.502061
0.586325
0.675076
0.770105
0.873656
0.987854
1.11236
1.23749
1.33569
0.0338556
0.101706
0.169981
0.23899
0.30908
0.380655
0.454189
0.530235
0.609383
0.692133
0.778509
0.86705
0.952337
1.01886
1.02307
0.0300504
0.0903035
0.151015
0.212494
0.275051
0.338989
0.404578
0.471994
0.541193
0.611649
0.681863
0.748513
0.805353
0.843512
0.863688
0.0261396
0.0785835
0.131517
0.185251
0.240065
0.29618
0.3537
0.412518
0.472134
0.531338
0.587699
0.636795
0.671349
0.680661
0.647281
0.0221148
0.0665243
0.111464
0.157259
0.204178
0.252397
0.301925
0.352494
0.403364
0.453006
0.498585
0.535182
0.554879
0.547463
0.516892
0.0179655
0.0540972
0.0908197
0.128488
0.167392
0.207707
0.24943
0.292263
0.335452
0.377502
0.415714
0.445311
0.457243
0.430352
0.293373
0.0136771
0.0412605
0.0695193
0.0988621
0.129628
0.162044
0.196166
0.231791
0.268337
0.304666
0.338833
0.367712
0.386573
0.389695
0.382196
0.00922993
0.0279557
0.0474675
0.0682493
0.0907204
0.1152
0.141862
0.170682
0.201376
0.233338
0.265628
0.297075
0.32684
0.35642
0.395616
0.00459837
0.0141058
0.024535
0.0364653
0.0504206
0.0668427
0.0860629
0.108277
0.133537
0.161789
0.193015
0.227612
0.267241
0.316472
0.384701
-0.000248668
-0.000383313
0.000561516
0.00327698
0.00841018
0.0165454
0.0281884
0.0437612
0.063627
0.0881794
0.118066
0.154661
0.200981
0.263338
0.354786
-0.00534726
-0.0156213
-0.0246402
-0.0315883
-0.0356824
-0.0361845
-0.0324114
-0.0237315
-0.00953315
0.0108714
0.0384644
0.0749629
0.123592
0.190009
0.280449
-0.0107375
-0.03173
-0.0512784
-0.0684335
-0.0822667
-0.0918802
-0.0964148
-0.0950522
-0.086998
-0.0714228
-0.0473149
-0.0131513
0.0338577
0.100009
0.205326
-0.0164627
-0.0488406
-0.0795773
-0.107583
-0.131779
-0.1511
-0.16451
-0.171015
-0.16968
-0.159636
-0.14007
-0.110178
-0.0691604
-0.0171814
0.0354174
-0.0225678
-0.0670901
-0.109771
-0.149378
-0.184673
-0.21442
-0.237395
-0.252419
-0.258406
-0.254456
-0.239989
-0.214923
-0.179781
-0.13479
-0.0707752
-0.0290984
-0.0866174
-0.142098
-0.194164
-0.241418
-0.28244
-0.315799
-0.340092
-0.354026
-0.356574
-0.347262
-0.326656
-0.29723
-0.265597
-0.252814
-0.0360994
-0.10756
-0.176794
-0.24229
-0.302489
-0.355778
-0.400495
-0.434956
-0.457547
-0.466921
-0.462372
-0.444505
-0.416203
-0.383302
-0.349557
-0.043613
-0.130046
-0.214086
-0.294093
-0.368355
-0.435067
-0.492309
-0.538058
-0.570242
-0.586929
-0.586725
-0.569591
-0.53836
-0.501583
-0.480817
-0.0516771
-0.154193
-0.254178
-0.349882
-0.439461
-0.520927
-0.592102
-0.650574
-0.693694
-0.718661
-0.722829
-0.70446
-0.664361
-0.608737
-0.550416
-0.0603228
-0.180098
-0.297241
-0.409923
-0.516198
-0.613932
-0.700712
-0.773748
-0.829747
-0.864832
-0.874577
-0.854414
-0.801134
-0.717756
-0.628941
-0.0695728
-0.20783
-0.343399
-0.474412
-0.598865
-0.714539
-0.818864
-0.908748
-0.980318
-1.0286
-1.04709
-1.02736
-0.958804
-0.830544
-0.650542
-0.0794395
-0.237427
-0.392721
-0.543453
-0.687627
-0.823023
-0.947042
-1.05646
-1.14706
-1.21304
-1.24614
-1.2342
-1.15793
-0.979256
-0.581896
-0.089925
-0.268895
-0.445209
-0.617046
-0.782483
-0.939406
-1.08535
-1.21724
-1.33089
-1.42031
-1.47646
-1.48571
-1.42816
-1.27983
-1.04549
-0.101022
-0.302205
-0.500805
-0.695082
-0.883248
-1.06341
-1.23343
-1.39068
-1.53156
-1.65066
-1.73935
-1.78361
-1.76144
-1.64012
-1.36378
-0.112715
-0.337308
-0.559403
-0.777359
-0.989571
-1.19445
-1.39036
-1.57547
-1.74734
-1.90214
-2.03308
-2.12763
-2.16355
-2.10807
-1.94968
-0.124988
-0.374146
-0.620872
-0.863624
-1.10098
-1.33171
-1.5548
-1.76946
-1.97498
-2.17018
-2.35208
-2.51236
-2.62912
-2.64748
-2.42512
-0.13783
-0.412672
-0.685101
-0.953631
-1.217
-1.47428
-1.72509
-1.9698
-2.20976
-2.44746
-2.6861
-2.92729
-3.16303
-3.35405
-3.40601
-0.151238
-0.452875
-0.752034
-1.04722
-1.33723
-1.62134
-1.89962
-2.17343
-2.44611
-2.72408
-3.01834
-3.34601
-3.72799
-4.15716
-4.37848
-0.16523
-0.494797
-0.821723
-1.14441
-1.46157
-1.77244
-2.07725
-2.37783
-2.67878
-2.98939
-3.32738
-3.72699
-4.26019
-5.1046
-6.81077
-0.179843
-0.538551
-0.894354
-1.24544
-1.59026
-1.92775
-2.2578
-2.58197
-2.90474
-3.23568
-3.59361
-4.0152
-4.57625
-5.4536
-7.13548
-0.195136
-0.584321
-0.970258
-1.35082
-1.72403
-2.08823
-2.44244
-2.78709
-3.12501
-3.46322
-3.81562
-4.20655
-4.67265
-5.24387
-5.78673
-0.211182
-0.632347
-1.04989
-1.46132
-1.86407
-2.25562
-2.63373
-2.99688
-3.34507
-3.68092
-4.01088
-4.34568
-4.69606
-5.05383
-5.34392
-0.22806
-0.682888
-1.13377
-1.57783
-2.01188
-2.43236
-2.8354
-3.21705
-3.5737
-3.90268
-4.20279
-4.47397
-4.71432
-4.91079
-5.01648
-0.245834
-0.73617
-1.22238
-1.70129
-2.16911
-2.6212
-3.05192
-3.45458
-3.82155
-4.14449
-4.41477
-4.62367
-4.76306
-4.83079
-4.85956
-0.264534
-0.792317
-1.31606
-1.83246
-2.33727
-2.82488
-3.28792
-3.7169
-4.09996
-4.42288
-4.66938
-4.82165
-4.86154
-4.77784
-4.60179
-0.284126
-0.851266
-1.41484
-1.97168
-2.51736
-3.04561
-3.54757
-4.0111
-4.42012
-4.75432
-4.98942
-5.09766
-5.04585
-4.78901
-4.3315
-0.304489
-0.912692
-1.5183
-2.11864
-2.70957
-3.2846
-3.83391
-4.34316
-4.79225
-5.15458
-5.39756
-5.48481
-5.37255
-4.93952
-3.47782
-0.325392
-0.975921
-1.6254
-2.27215
-2.91282
-3.54144
-4.14806
-4.71698
-5.22463
-5.63773
-5.91383
-6.01051
-5.92199
-5.80439
-6.43939
-0.346471
-1.03988
-1.73441
-2.42987
-3.12443
-3.81356
-4.4884
-5.13335
-5.72267
-6.21603
-6.55468
-6.66481
-6.49164
-6.1466
-6.46999
-0.367228
-1.10305
-1.84277
-2.58821
-3.33981
-4.0956
-4.84948
-5.58836
-6.28734
-6.90174
-7.35424
-7.51585
-7.18064
-6.02463
-3.3957
-0.387032
-1.16352
-1.94716
-2.74227
-3.55228
-4.37897
-5.22098
-6.07106
-6.91075
-7.6999
-8.3558
-8.71189
-8.43963
-6.92552
-3.21201
-0.405153
-1.21902
-2.04359
-2.88598
-3.75317
-4.6517
-5.58687
-6.56099
-7.56927
-8.59057
-9.56556
-10.3443
-10.561
-9.35377
-4.91063
-0.420798
-1.2671
-2.12765
-3.01247
-3.93229
-4.89898
-5.92573
-7.02718
-8.21873
-9.51342
-10.9116
-12.367
-13.6712
-14.0292
-10.344
-0.433175
-1.30527
-2.19487
-3.11463
-4.07888
-5.10454
-6.2127
-7.43082
-8.79656
-10.3644
-12.2179
-14.4947
-17.4386
-21.5123
-27.585
-11.3188
-25.8171
-24.3976
-20.8367
-17.5297
-14.7575
-12.436
-10.4494
-8.70541
-7.13708
-5.69614
-4.34704
-3.06265
-1.82124
-0.604413
-111.206
-57.9888
-37.4282
-27.2724
-21.2178
-17.1013
-14.0331
-11.5887
-9.54074
-7.75688
-6.15401
-4.67664
-3.28531
-1.95009
-0.646604
-123.638
-67.4826
-43.2331
-30.8601
-23.56
-18.7171
-15.1972
-12.4525
-10.1927
-8.251
-6.52474
-4.94649
-3.469
-2.0569
-0.681659
-67.9249
-54.8191
-40.7905
-30.925
-24.1959
-19.414
-15.8228
-12.9797
-10.6237
-8.59549
-6.79268
-5.14635
-3.60728
-2.1381
-0.708438
-47.9516
-42.7965
-35.4567
-28.8119
-23.4795
-19.2841
-15.9289
-13.1685
-10.8272
-8.78342
-6.95196
-5.27173
-3.69701
-2.19187
-0.726335
-30.4565
-32.2909
-29.6403
-25.7875
-21.9734
-18.5708
-15.622
-13.0662
-10.8242
-8.82388
-7.00622
-5.32384
-3.73843
-2.21813
-0.735298
-22.4702
-24.9
-24.6588
-22.7362
-20.1816
-17.5424
-15.0421
-12.7461
-10.6533
-8.73748
-6.96653
-5.30862
-3.73464
-2.21836
-0.735764
-12.487
-19.3639
-20.845
-20.1237
-18.4485
-16.4176
-14.3202
-12.285
-10.3593
-8.55053
-6.84834
-5.23509
-3.69079
-2.1952
-0.728541
-15.0714
-17.575
-18.5604
-18.1737
-16.9624
-15.3389
-13.5551
-11.748
-9.98413
-8.28954
-6.66838
-5.11368
-3.6131
-2.15196
-0.714664
-15.7336
-16.8405
-17.2287
-16.7964
-15.7626
-14.3717
-12.806
-11.1809
-9.56086
-7.97756
-6.44228
-4.95469
-3.50803
-2.09216
-0.695254
-16.3636
-16.6051
-16.4668