/*--------------------------------*- C++ -*----------------------------------*\
| =========                 |                                                 |
| \\      /  F ield         | OpenFOAM: The Open Source CFD Toolbox           |
|  \\    /   O peration     | Version:  5.x                                   |
|   \\  /    A nd           | Web:      www.OpenFOAM.org                      |
|    \\/     M anipulation  |                                                 |
\*---------------------------------------------------------------------------*/
FoamFile
{
    version     2.0;
    format      ascii;
    class       volScalarField;
    location    "9.0999";
    object      gradTx;
}
// * * * * * * * * * * * * * * * * * * * * * * * * * * * * * * * * * * * * * //

dimensions      [0 -1 0 1 0 0 0];

internalField   nonuniform List<scalar> 
6300
(
-31.8778
-31.9487
-32.0898
-32.2997
-32.5761
-32.9159
-33.3148
-33.7674
-34.2668
-34.8051
-35.3727
-35.9594
-36.5539
-37.1451
-37.7223
-31.8069
-31.8785
-32.021
-32.2332
-32.5128
-32.8568
-33.2612
-33.7205
-34.228
-34.7756
-35.3537
-35.9515
-36.5573
-37.1592
-37.7457
-31.6644
-31.7373
-31.8826
-32.0992
-32.385
-32.7374
-33.1526
-33.6254
-34.1492
-34.7157
-35.315
-35.9356
-36.5646
-37.1885
-37.7944
-31.4489
-31.5238
-31.673
-31.8958
-32.1907
-32.5553
-32.9864
-33.4792
-34.0275
-34.6229
-35.2551
-35.9113
-36.5768
-37.236
-37.8728
-31.1587
-31.2358
-31.3899
-31.6204
-31.9265
-32.3067
-32.7583
-33.2776
-33.8587
-34.4935
-35.1711
-35.8775
-36.5955
-37.3057
-37.9876
-30.7913
-30.8709
-31.0303
-31.2694
-31.5884
-31.9865
-32.4627
-33.0141
-33.6361
-34.3212
-35.0584
-35.8321
-36.622
-37.4036
-38.1495
-30.3442
-30.4263
-30.5908
-30.8387
-31.1709
-31.5884
-32.0917
-32.6799
-33.3503
-34.0969
-34.9091
-35.7703
-36.6569
-37.5373
-38.3738
-29.8151
-29.8991
-30.068
-30.3236
-30.6682
-31.1046
-31.6357
-32.2635
-32.9883
-33.8069
-34.7107
-35.6833
-36.6979
-37.7149
-38.6818
-29.2019
-29.287
-29.4586
-29.7194
-30.0735
-30.526
-31.0829
-31.7501
-32.5325
-33.4316
-34.4435
-35.5544
-36.7365
-37.9426
-39.1017
-28.5037
-28.5884
-28.7599
-29.0219
-29.3803
-29.843
-30.4198
-31.1216
-31.9598
-32.9437
-34.0774
-35.3545
-36.7511
-38.2176
-39.6656
-27.7206
-27.8031
-27.9706
-28.2279
-28.5827
-29.046
-29.6315
-30.3567
-31.2414
-32.3061
-33.5682
-35.035
-36.6959
-38.5113
-40.3947
-26.855
-26.9328
-27.0913
-27.3362
-27.6768
-28.1265
-28.7036
-29.4324
-30.3431
-31.4714
-32.8541
-34.5216
-36.4862
-38.7367
-41.2465
-25.9115
-25.9819
-26.1256
-26.3488
-26.6617
-27.0795
-27.6241
-28.3261
-29.2274
-30.3823
-31.8554
-33.7105
-35.9888
-38.7002
-41.9474
-24.8975
-24.9575
-25.0803
-25.2717
-25.5417
-25.9057
-26.3871
-27.0207
-27.8583
-28.9752
-30.4741
-32.4737
-35.0515
-38.1146
-41.533
-23.8235
-23.8704
-23.9662
-24.1159
-24.3276
-24.6146
-24.9979
-25.5114
-26.2102
-27.1861
-28.5901
-30.6516
-33.6077
-37.1235
-37.5305
-38.232
-38.6724
-39.0886
-39.4787
-39.8417
-40.1776
-40.4868
-40.7698
-41.0269
-41.258
-41.4623
-41.6391
-41.7873
-41.9061
-41.9954
-42.0562
-42.0904
-42.1009
-42.0915
-42.0665
-42.0301
-41.9861
-41.9376
-41.8861
-41.8323
-41.7755
-41.7143
-41.6468
-41.5709
-41.4853
-41.3893
-41.2832
-41.1685
-41.0474
-40.9228
-40.7975
-40.674
-40.5543
-40.4391
-40.3282
-40.2204
-40.1137
-40.0059
-39.8945
-39.7779
-39.6552
-39.5264
-39.3925
-39.2555
-39.1179
-38.9822
-38.8507
-38.725
-38.6057
-38.4925
-38.3842
-38.2787
-38.1738
-38.0672
-37.9573
-37.8431
-37.7245
-37.6027
-37.4793
-37.3568
-37.2376
-37.1238
-37.017
-36.918
-36.8265
-36.7415
-36.6614
-36.5844
-36.5089
-36.4339
-36.3592
-36.2859
-36.2162
-36.1533
-36.1009
-36.0631
-36.0437
-36.0456
-36.0704
-36.1184
-36.1879
-36.2755
-36.3762
-36.4839
-36.5917
-38.2624
-38.7073
-39.1263
-39.5176
-39.8807
-40.2161
-40.5246
-40.8072
-41.0645
-41.2964
-41.5021
-41.6803
-41.8295
-41.9484
-42.0366
-42.0946
-42.1245
-42.1295
-42.114
-42.0828
-42.041
-41.9928
-41.9417
-41.8895
-41.8365
-41.7819
-41.7235
-41.6587
-41.585
-41.5003
-41.4037
-41.2956
-41.1777
-41.0526
-40.9238
-40.7948
-40.6687
-40.5477
-40.4328
-40.3237
-40.2188
-40.1155
-40.0108
-39.902
-39.7868
-39.664
-39.5336
-39.3969
-39.2564
-39.1151
-38.9762
-38.8424
-38.7157
-38.5969
-38.4855
-38.38
-38.2778
-38.1761
-38.0721
-37.9636
-37.8493
-37.7293
-37.6048
-37.4781
-37.3521
-37.2297
-37.1137
-37.0059
-36.9071
-36.8171
-36.7344
-36.657
-36.5823
-36.5083
-36.4333
-36.3571
-36.2807
-36.2065
-36.138
-36.0799
-36.0367
-36.0131
-36.0125
-36.0371
-36.0874
-36.1618
-36.2565
-36.3661
-36.4837
-36.6015
-38.3254
-38.7794
-39.2038
-39.5972
-39.9598
-40.2933
-40.5996
-40.881
-41.1386
-41.3725
-41.5815
-41.7633
-41.9154
-42.0351
-42.1211
-42.1736
-42.1944
-42.1877
-42.1589
-42.1145
-42.061
-42.0039
-41.9474
-41.8939
-41.8432
-41.7937
-41.7418
-41.6835
-41.6148
-41.5324
-41.4348
-41.3223
-41.1971
-41.0631
-40.925
-40.7879
-40.656
-40.5324
-40.4183
-40.3133
-40.2148
-40.1191
-40.0218
-39.9188
-39.8067
-39.6837
-39.5498
-39.4069
-39.2585
-39.1089
-38.9627
-38.8238
-38.695
-38.5774
-38.4702
-38.371
-38.2763
-38.1818
-38.0835
-37.978
-37.8637
-37.7405
-37.6102
-37.476
-37.3421
-37.2127
-37.0917
-36.9817
-36.8837
-36.7971
-36.7198
-36.6485
-36.5794
-36.5089
-36.4346
-36.3555
-36.2724
-36.1884
-36.108
-36.0372
-35.9823
-35.9492
-35.943
-35.9669
-36.0219
-36.1064
-36.2162
-36.3447
-36.4833
-36.6224
-38.4263
-38.8942
-39.3261
-39.7211
-40.081
-40.4094
-40.7107
-40.9891
-41.2469
-41.4845
-41.7
-41.8893
-42.0477
-42.1704
-42.2541
-42.2979
-42.304
-42.2776
-42.2264
-42.1595
-42.086
-42.0139
-41.949
-41.894
-41.8484
-41.8088
-41.7694
-41.7234
-41.6642
-41.5864
-41.4873
-41.3672
-41.2293
-41.0794
-40.9249
-40.7734
-40.6313
-40.5032
-40.391
-40.2934
-40.2067
-40.1249
-40.0411
-39.9487
-39.8423
-39.719
-39.5789
-39.4249
-39.2623
-39.0979
-38.9387
-38.7907
-38.6582
-38.5428
-38.4432
-38.3557
-38.2745
-38.1931
-38.1051
-38.0053
-37.8909
-37.7619
-37.6211
-37.4735
-37.3255
-37.1837
-37.0539
-36.9401
-36.8438
-36.7638
-36.6966
-36.6368
-36.5783
-36.5151
-36.4429
-36.3594
-36.2655
-36.1649
-36.0643
-35.9717
-35.8963
-35.8467
-35.8302
-35.8519
-35.9138
-36.0145
-36.1489
-36.3086
-36.4821
-36.6566
-38.5738
-39.0609
-39.5015
-39.8956
-40.2475
-40.5645
-40.855
-41.1267
-41.3843
-41.6285
-41.856
-42.0599
-42.2315
-42.3619
-42.4445
-42.4766
-42.4604
-42.4033
-42.3166
-42.2139
-42.1089
-42.0137
-41.9363
-41.8806
-41.845
-41.8235
-41.8064
-41.7824
-41.7403
-41.6712
-41.5702
-41.4377
-41.2787
-41.1025
-40.9207
-40.7452
-40.5864
-40.4512
-40.3424
-40.2579
-40.1915
-40.1335
-40.0729
-39.9986
-39.9022
-39.7786
-39.6281
-39.4552
-39.2687
-39.0794
-38.8984
-38.7354
-38.5969
-38.4854
-38.3988
-38.3311
-38.273
-38.214
-38.1436
-38.0535
-37.9391
-37.8004
-37.6418
-37.4716
-37.2999
-37.1374
-36.9932
-36.8734
-36.7804
-36.712
-36.6626
-36.6233
-36.5839
-36.5345
-36.4673
-36.3783
-36.268
-36.1418
-36.0089
-35.8816
-35.7731
-35.6964
-35.6624
-35.6789
-35.7498
-35.8741
-36.0454
-36.2524
-36.4796
-36.7086
-38.7818
-39.2944
-39.7438
-40.131
-40.4644
-40.7577
-41.0266
-41.2848
-41.541
-41.7967
-42.0461
-42.2772
-42.4745
-42.6222
-42.7076
-42.7247
-42.6758
-42.5716
-42.4298
-42.2715
-42.118
-41.9875
-41.8926
-41.8382
-41.8214
-41.8318
-41.8535
-41.8675
-41.8552
-41.8017
-41.6986
-41.5462
-41.3528
-41.1335
-40.9073
-40.6931
-40.5075
-40.3613
-40.2588
-40.1965
-40.1641
-40.1461
-40.1242
-40.0806
-40.001
-39.8772
-39.7093
-39.5052
-39.2791
-39.0488
-38.8322
-38.6448
-38.4968
-38.3921
-38.3273
-38.2925
-38.273
-38.2513
-38.2104
-38.1366
-38.0223
-37.8674
-37.6794
-37.4717
-37.2611
-37.0648
-36.8972
-36.7682
-36.6813
-36.6331
-36.6141
-36.61
-36.6039
-36.5794
-36.5232
-36.4279
-36.2936
-36.1281
-35.9455
-35.7643
-35.6042
-35.4846
-35.4218
-35.4278
-35.5091
-35.6658
-35.8903
-36.1673
-36.4746
-36.7852
-39.0717
-39.619
-40.0758
-40.444
-40.739
-40.9861
-41.2134
-41.4458
-41.6984
-41.974
-42.2625
-42.5432
-42.7892
-42.9722
-43.0692
-43.0679
-42.9706
-42.7942
-42.5668
-42.3222
-42.0938
-41.9102
-41.7904
-41.7417
-41.7586
-41.8239
-41.9116
-41.9904
-42.0295
-42.0036
-41.8982
-41.7136
-41.4641
-41.1747
-40.8764
-40.6
-40.3716
-40.2086
-40.1173
-40.0919
-40.1159
-40.1641
-40.2069
-40.2146
-40.1633
-40.0392
-39.8426
-39.5868
-39.2957
-38.9984
-38.7241
-38.4973
-38.3344
-38.2413
-38.2125
-38.232
-38.276
-38.3162
-38.3246
-38.2782
-38.164
-37.9821
-37.7452
-37.4759
-37.2019
-36.9507
-36.7458
-36.6025
-36.5265
-36.5121
-36.5442
-36.5994
-36.6505
-36.67
-36.6353
-36.5336
-36.364
-36.1389
-35.8803
-35.6164
-35.3772
-35.191
-35.082
-35.0681
-35.16
-35.3599
-35.6595
-36.0386
-36.4649
-36.8975
-39.4767
-40.074
-40.5352
-40.8622
-41.0828
-41.2427
-41.3932
-41.5778
-41.8229
-42.1328
-42.4901
-42.8594
-43.1945
-43.4461
-43.5723
-43.5493
-43.3794
-43.0903
-42.7287
-42.3493
-42.0053
-41.741
-41.5859
-41.5507
-41.626
-41.7839
-41.9823
-42.1707
-42.2975
-42.3197
-42.212
-41.9747
-41.6327
-41.2288
-40.814
-40.4378
-40.1417
-39.9527
-39.8807
-39.9164
-40.0329
-40.1901
-40.34
-40.4336
-40.4302
-40.3059
-40.061
-39.7192
-39.3212
-38.9149
-38.5475
-38.2578
-38.0716
-37.998
-38.0281
-38.1363
-38.2845
-38.4271
-38.5176
-38.5172
-38.4033
-38.176
-37.8577
-37.487
-37.1096
-36.7701
-36.5054
-36.3401
-36.2827
-36.3244
-36.4408
-36.5949
-36.7426
-36.8385
-36.8442
-36.7368
-36.5146
-36.1979
-35.8227
-35.433
-35.0738
-34.7864
-34.6051
-34.5559
-34.6555
-34.9105
-35.3144
-35.8418
-36.4461
-37.0633
-40.0476
-40.7251
-41.1877
-41.4337
-41.5138
-41.513
-41.5238
-41.6225
-41.854
-42.2236
-42.7003
-43.2251
-43.7202
-44.1006
-44.2902
-44.2426
-43.9596
-43.4909
-42.9163
-42.3254
-41.802
-41.4146
-41.2087
-41.2006
-41.3744
-41.6855
-42.0675
-42.4395
-42.7163
-42.8226
-42.7126
-42.3865
-41.8903
-41.2987
-40.6958
-40.1605
-39.7572
-39.5284
-39.4892
-39.6243
-39.8912
-40.2266
-40.554
-40.7924
-40.871
-40.7464
-40.419
-39.9328
-39.3584
-38.7755
-38.2589
-37.8691
-37.6466
-37.6055
-37.731
-37.9829
-38.3011
-38.6129
-38.8416
-38.9196
-38.8059
-38.5008
-38.0457
-37.5078
-36.9628
-36.4816
-36.122
-35.9223
-35.8961
-36.0292
-36.2829
-36.5997
-36.9092
-37.1368
-37.2161
-37.1051
-36.8013
-36.3412
-35.786
-35.2056
-34.6671
-34.229
-33.9382
-33.8294
-33.9269
-34.2469
-34.7914
-35.5342
-36.409
-37.3121
-40.8613
-41.6856
-42.152
-42.2438
-42.0613
-41.7667
-41.5274
-41.4761
-41.6864
-42.16
-42.8413
-43.6336
-44.4113
-45.03
-45.3496
-45.2749
-44.8072
-44.044
-43.1275
-42.2042
-41.4029
-40.8269
-40.5467
-40.5886
-40.9249
-41.4851
-42.167
-42.8455
-43.3805
-43.6371
-43.5244
-43.0432
-42.2852
-41.3848
-40.4803
-39.6933
-39.1214
-38.831
-38.8468
-39.1425
-39.6508
-40.2748
-40.8959
-41.3816
-41.6044
-41.4787
-41.0059
-40.2731
-39.4078
-38.5409
-37.7874
-37.2397
-36.9605
-36.973
-37.252
-37.734
-38.3269
-38.9184
-39.3824
-39.5982
-39.4842
-39.0415
-38.3528
-37.5389
-36.7242
-36.018
-35.5083
-35.2549
-35.2801
-35.5601
-36.0344
-36.615
-37.1938
-37.6488
-37.8618
-37.7512
-37.3131
-36.6214
-35.7856
-34.9179
-34.1159
-33.4596
-33.0091
-32.8059
-32.8781
-33.2598
-33.983
-35.0364
-36.3311
-37.6935
-42.0283
-43.1618
-43.6554
-43.4477
-42.77
-41.9406
-41.2603
-40.9529
-41.1396
-41.7975
-42.8225
-44.0631
-45.3312
-46.3904
-46.9768
-46.8731
-46.0804
-44.8177
-43.3486
-41.9075
-40.6791
-39.8134
-39.421
-39.5525
-40.1531
-41.1094
-42.2714
-43.4584
-44.4455
-44.9833
-44.867
-44.0983
-42.8851
-41.4769
-40.0957
-38.9161
-38.0802
-37.6927
-37.8015
-38.3544
-39.2437
-40.327
-41.4331
-42.3491
-42.8394
-42.7112
-41.967
-40.8042
-39.4595
-38.143
-37.0197
-36.2238
-35.8543
-35.9565
-36.4809
-37.3253
-38.3549
-39.4073
-40.2808
-40.7515
-40.636
-39.9365
-38.8401
-37.5711
-36.3292
-35.2714
-34.5256
-34.1862
-34.297
-34.8114
-35.6328
-36.6329
-37.6566
-38.5094
-38.9737
-38.8687
-38.19
-37.1091
-35.8314
-34.5353
-33.355
-32.3936
-31.7238
-31.3858
-31.3836
-31.781
-32.699
-34.1911
-36.1558
-38.2953
-43.6779
-45.5622
-46.169
-45.3258
-43.6947
-41.9
-40.4564
-39.7178
-39.9142
-40.9062
-42.4933
-44.453
-46.5522
-48.4317
-49.5977
-49.4636
-48.0305
-45.8888
-43.5292
-41.3045
-39.4331
-38.1184
-37.5406
-37.841
-38.8692
-40.4376
-42.3397
-44.359
-46.1576
-47.2714
-47.1488
-45.7937
-43.7658
-41.5302
-39.4206
-37.6441
-36.3934
-35.8395
-36.1167
-37.082
-38.5573
-40.3464
-42.244
-43.9297
-44.9652
-44.8305
-43.5308
-41.5973
-39.4708
-37.4667
-35.7804
-34.5938
-34.0688
-34.3322
-35.2488
-36.6499
-38.3498
-40.1541
-41.7592
-42.7489
-42.6288
-41.4031
-39.5757
-37.5645
-35.6691
-34.0756
-32.9575
-32.4693
-32.7327
-33.6206
-34.9737
-36.6169
-38.3657
-39.9293
-40.9053
-40.8122
-39.6462
-37.8802
-35.9036
-33.9859
-32.279
-30.9077
-29.961
-29.4818
-29.3139
-29.5525
-30.5884
-32.6654
-35.7285
-39.2822
-45.804
-49.8137
-50.7816
-48.3352
-44.8462
-41.3514
-38.6376
-37.1366
-37.5433
-39.1579
-41.6277
-44.6419
-48.0899
-51.5005
-54.0909
-53.9246
-51.0011
-47.2735
-43.5158
-40.1926
-37.3853
-35.3625
-34.3957
-35.0813
-36.8076
-39.2851
-42.2391
-45.5776
-48.8558
-51.3398
-51.2055
-48.458
-44.9456
-41.4021
-38.2659
-35.6148
-33.7032
-32.7897
-33.4407
-35.0754
-37.4189
-40.2097
-43.3598
-46.4466
-48.7763
-48.6273
-46.0071
-42.6685
-39.3059
-36.3327
-33.8213
-32.0114
-31.1478
-31.7672
-33.3193
-35.5441
-38.1944
-41.1876
-44.1239
-46.3445
-46.2133
-43.7364
-40.5759
-37.3911
-34.5743
-32.1952
-30.4825
-29.67
-30.2694
-31.7598
-33.8968
-36.4489
-39.3413
-42.1952
-44.3766
-44.3009
-41.9661
-38.9548
-35.8909
-33.1328
-30.7199
-28.8102
-27.525
-27.1296
-26.6589
-26.1757
-26.9788
-29.7196
-34.5949
-40.9859
-47.3372
-58.4714
-60.3776
-52.8726
-45.9844
-39.6661
-35.0693
-31.8071
-33.4326
-36.1779
-39.9781
-44.2064
-49.6813
-55.7504
-62.5538
-62.3559
-55.1298
-48.7015
-42.8769
-38.3379
-34.2077
-31.0859
-28.8714
-30.823
-33.664
-37.4468
-41.5846
-46.883
-52.6976
-59.1786
-59.0253
-52.2236
-46.1701
-40.6874
-36.4126
-32.5208
-29.5758
-27.4868
-29.3485
-32.048
-35.6366
-39.5554
-44.567
-50.0537
-56.1564
-55.9827
-49.5181
-43.7739
-38.5804
-34.5337
-30.8521
-28.0663
-26.0912
-27.8593
-30.4209
-33.8258
-37.545
-42.3033
-47.5189
-53.3266
-53.1759
-47.054
-41.6113
-36.6876
-32.8494
-29.355
-26.7112
-24.8376
-26.5229
-28.9678
-32.2224
-35.7908
-40.3724
-45.4293
-51.0983
-51.0425
-45.2602
-40.1051
-35.4378
-31.7828
-28.4359
-25.8136
-23.8077
-24.8859
-24.0217
-20.9469
-20.5786
-23.7003
-31.2786
-44.122
-40.8992
-80.3462
-83.7667
-56.7668
-46.3358
-35.4971
-29.5778
-19.4388
-27.7091
-31.6788
-37.7119
-41.9758
-50.4174
-58.9429
-81.0989
-80.908
-58.1099
-49.2602
-40.3865
-35.8945
-29.578
-25.503
-17.3478
-25.2842
-29.164
-35.0974
-39.2589
-47.4452
-55.5796
-76.571
-76.4187
-54.9118
-46.5729
-38.2331
-34.0079
-28.0633
-24.2158
-16.4948
-24.0498
-27.7401
-33.3789
-37.3274
-45.0901
-52.7736
-72.5747
-72.3971
-51.9914
-44.0866
-36.2033
-32.2091
-26.5929
-22.9537
-15.6444
-22.8088
-26.3083
-31.6547
-35.3993
-42.7606
-50.0612
-68.8889
-68.737
-49.3934
-41.8992
-34.421
-30.6293
-25.2901
-21.8308
-14.8804
-21.6827
-25.0099
-30.0959
-33.6737
-40.7193
-47.7819
-66.0637
-66.0304
-47.6513
-40.5529
-33.5268
-29.9893
-25.1086
-21.9294
-15.6494
-25.4392
-24.5679
-11.8206
-9.15297
-11.2634
-20.3806
-50.236
-36.7016
-36.8028
-36.8755
-36.9141
-36.917
-36.886
-36.8258
-36.7434
-36.6468
-36.5446
-36.4452
-36.356
-36.2833
-36.2321
-36.2057
-36.7214
-36.8314
-36.9095
-36.9499
-36.951
-36.9152
-36.8481
-36.7575
-36.6523
-36.5419
-36.435
-36.3394
-36.2619
-36.2073
-36.1792
-36.7636
-36.8919
-36.9812
-37.0249
-37.0218
-36.9757
-36.8939
-36.7862
-36.6632
-36.5356
-36.4133
-36.3049
-36.2174
-36.1562
-36.1246
-36.833
-36.9914
-37.0985
-37.1466
-37.1356
-37.0718
-36.9657
-36.8301
-36.6786
-36.5241
-36.3778
-36.2495
-36.1468
-36.0752
-36.0385
-36.9388
-37.1423
-37.2748
-37.3274
-37.3024
-37.2103
-37.0669
-36.89
-36.6972
-36.5042
-36.3244
-36.1686
-36.045
-35.9594
-35.9157
-37.0953
-37.3642
-37.531
-37.5859
-37.5362
-37.4
-37.2016
-36.9659
-36.7159
-36.471
-36.2469
-36.0554
-35.9051
-35.8018
-35.7493
-37.3259
-37.6883
-37.8989
-37.9492
-37.8563
-37.652
-37.3735
-37.056
-36.7294
-36.4172
-36.1369
-35.9011
-35.7181
-35.5934
-35.5303
-37.6686
-38.164
-38.427
-38.4558
-38.2877
-37.9783
-37.5845
-37.1553
-36.7285
-36.3314
-35.9826
-35.6939
-35.4727
-35.3234
-35.2483
-38.1874
-38.8723
-39.1895
-39.1591
-38.8604
-38.3891
-37.831
-37.252
-36.6978
-36.1974
-35.768
-35.4192
-35.1556
-34.9793
-34.891
-38.9943
-39.9482
-40.2995
-40.1308
-39.6058
-38.8866
-38.0983
-37.3241
-36.6133
-35.9923
-35.473
-35.0593
-34.7511
-34.5471
-34.4456
-40.2987
-41.6266
-41.9294
-41.4589
-40.5454
-39.4533
-38.3516
-37.3326
-36.4391
-35.6856
-35.0723
-34.5937
-34.2426
-34.0124
-33.8986
-42.5219
-44.33
-44.3325
-43.23
-41.6637
-40.0295
-38.522
-37.2157
-36.125
-35.2386
-34.537
-34.0007
-33.613
-33.3615
-33.2377
-46.6039
-48.8392
-47.8406
-45.465
-42.8499
-40.479
-38.4913
-36.8833
-35.6066
-34.6067
-33.8364
-33.2591
-32.8474
-32.5827
-32.4532
-54.9262
-56.5825
-52.7255
-47.9396
-43.7918
-40.5453
-38.0807
-36.2196
-34.8114
-33.7451
-32.943
-32.3517
-31.9348
-31.6687
-31.5391
-74.5225
-69.8389
-58.5394
-49.7762
-43.8323
-39.8297
-37.0668
-35.1032
-33.6742
-32.6193
-31.8389
-31.2698
-30.8715
-30.6184
-30.4953
-22.7961
-22.8288
-22.8956
-22.9995
-23.1456
-23.3428
-23.6053
-23.9581
-24.4457
-25.1534
-26.2574
-28.1468
-31.7215
-38.9229
-51.7323
-21.8392
-21.8582
-21.8965
-21.9551
-22.0357
-22.1411
-22.2768
-22.4527
-22.689
-23.0303
-23.5872
-24.6765
-27.3943
-36.4548
-77.6644
-20.8692
-20.8741
-20.8832
-20.8954
-20.9083
-20.9185
-20.9205
-20.9056
-20.8599
-20.7582
-20.5454
-20.0501
-18.5056
-11.6398
25.325
-19.8957
-19.8869
-19.8679
-19.8352
-19.7829
-19.7016
-19.5759
-19.3801
-19.0702
-18.5647
-17.7023
-16.1429
-13.1705
-7.70938
-3.92272
-18.9282
-18.9069
-18.862
-18.7884
-18.6776
-18.5155
-18.2799
-17.9341
-17.4168
-16.6201
-15.348
-13.2303
-9.53969
-2.59973
13.4806
-17.9755
-17.9432
-17.8759
-17.7675
-17.6078
-17.3805
-17.0604
-16.6074
-15.9573
-15.0058
-13.582
-11.4176
-8.16726
-3.83116
-1.98741
-17.0452
-17.0039
-16.9183
-16.7821
-16.5848
-16.31
-15.9333
-15.4176
-14.7074
-13.7193
-12.33
-10.3611
-7.54995
-3.33014
4.9342
-16.1435
-16.0952
-15.9957
-15.8391
-15.6155
-15.3103
-14.9027
-14.3629
-13.6505
-12.7115
-11.4802
-9.89008
-7.91125
-5.63738
-3.51275
-15.2754
-15.2221
-15.1129
-14.9426
-14.7028
-14.3818
-13.9637
-13.4281
-12.7509
-11.9069
-10.8796
-9.68909
-8.47756
-7.84084
-10.4843
-14.4444
-14.3878
-14.2725
-14.0942
-13.8465
-13.5207
-13.1062
-12.5917
-11.9672
-11.2296
-10.3925
-9.5027
-8.64473
-7.76643
-5.05434
-13.6526
-13.5942
-13.4758
-13.2941
-13.0444
-12.7211
-12.3182
-11.8317
-11.2622
-10.6213
-9.94183
-9.29421
-8.82603
-8.96549
-11.9784
-12.9014
-12.8423
-12.723
-12.5411
-12.2934
-11.9766
-11.5884
-11.1293
-10.6066
-10.0398
-9.46907
-8.96111
-8.58532
-8.16912
-5.5063
-12.1912
-12.1323
-12.0137
-11.8338
-11.5904
-11.2818
-10.9077
-10.471
-9.98153
-9.46114
-8.95269
-8.53618
-8.37266
-8.93292
-12.6739
-11.5219
-11.4638
-11.3471
-11.1705
-10.9326
-10.6325
-10.2704
-9.84935
-9.37795
-8.87413
-8.37246
-7.93554
-7.65736
-7.48795
-5.32573
-10.8929
-10.8361
-10.722
-10.5497
-10.3181
-10.0262
-9.67393
-9.2627
-8.79687
-8.28562
-7.74724
-7.22465
-6.86649
-7.42689
-13.5897
-10.3033
-10.2481
-10.1374
-9.97018
-9.74544
-9.46192
-9.11844
-8.71397
-8.24734
-7.71595
-7.11105
-6.39957
-5.43772
-3.47524
4.04741
-9.75206
-9.69883
-9.59196
-9.43062
-9.21361
-8.93926
-8.60532
-8.20841
-7.74278
-7.19732
-6.54889
-5.74836
-4.70383
-3.38483
-3.27216
-9.2378
-9.18679
-9.08437
-8.92975
-8.72161
-8.458
-8.13594
-7.75059
-7.29366
-6.7502
-6.09236
-5.26659
-4.16057
-2.45665
1.39699
-8.75899
-8.71047
-8.61307
-8.46605
-8.26814
-8.01735
-7.71052
-7.34249
-6.90465
-6.38253
-5.75247
-4.97947
-4.03255
-3.02131
-3.16783
-8.31389
-8.26811
-8.17626
-8.03771
-7.85141
-7.61564
-7.32762
-6.98289
-6.57418
-6.08985
-5.51185
-4.81316
-3.94921
-2.78192
-0.407423
-7.90061
-7.85776
-7.77188
-7.64256
-7.46906
-7.25022
-6.98413
-6.66774
-6.29624
-5.86224
-5.35509
-4.76162
-4.07657
-3.38084
-3.42458
-7.5171
-7.47732
-7.3977
-7.2781
-7.11823
-6.91764
-6.67559
-6.39089
-6.06172
-5.68545
-5.25829
-4.7737
-4.21137
-3.4662
-1.8938
-7.16123
-7.12457
-7.05132
-6.94162
-6.79569
-6.61387
-6.39669
-6.14494
-5.85994
-5.54402
-5.20139
-4.83981
-4.47316
-4.12597
-3.84888
-6.83084
-6.79725
-6.73027
-6.63032
-6.49809
-6.33469
-6.14182
-5.9221
-5.67966
-5.42116
-5.15769
-4.90946
-4.72149
-4.73699
-5.61127
-6.52379
-6.49314
-6.43215
-6.34145
-6.22216
-6.076
-5.90561
-5.71505
-5.51057
-5.30177
-5.10342
-4.93729
-4.82855
-4.7516
-4.18182
-6.23805
-6.21013
-6.15467
-6.07247
-5.96492
-5.83415
-5.68343
-5.51771
-5.34449
-5.17515
-5.02682
-4.92529
-4.91356
-5.10839
-6.15514
-5.97173
-5.94627
-5.89577
-5.82113
-5.72383
-5.60619
-5.4717
-5.32559
-5.17574
-5.03398
-4.91775
-4.85095
-4.85515
-4.87351
-4.22061
-5.7231
-5.69982
-5.65367
-5.58553
-5.49689
-5.38995
-5.26805
-5.1361
-5.00141
-4.8751
-4.77438
-4.72734
-4.78695
-5.10472
-6.46688
-5.49067
-5.46927
-5.42685
-5.36421
-5.28266
-5.18413
-5.07141
-4.94852
-4.82129
-4.69847
-4.59376
-4.5297
-4.5395
-4.61061
-4.04744
-5.27312
-5.25334
-5.2141
-5.15605
-5.08026
-4.98818
-4.88186
-4.76399
-4.63815
-4.50928
-4.38495
-4.28081
-4.24949
-4.55693
-6.84801
-5.06934
-5.05095
-5.01442
-4.96025
-4.88917
-4.80216
-4.70036
-4.58501
-4.45713
-4.31696
-4.16214
-3.98137
-3.72426
-3.12565
-0.563458
-4.87834
-4.86118
-4.82702
-4.77621
-4.70918
-4.62643
-4.5283
-4.41475
-4.28468
-4.13485
-3.95737
-3.73498
-3.43621
-3.05793
-3.1752
-4.69929
-4.68323
-4.65122
-4.60345
-4.54014
-4.46139
-4.36698
-4.25597
-4.12599
-3.97197
-3.78381
-3.54168
-3.20339
-2.64602
-1.25378
-4.53142
-4.51638
-4.48637
-4.44151
-4.38184
-4.30725
-4.21722
-4.1104
-3.98402
-3.83281
-3.64776
-3.41518
-3.12274
-2.81383
-2.97958
-4.37401
-4.35995
-4.33188
-4.28987
-4.23392
-4.16386
-4.07914
-3.97845
-3.8593
-3.7172
-3.54475
-3.33029
-3.05355
-2.65195
-1.73445
-4.22638
-4.21327
-4.18709
-4.14793
-4.09582
-4.03069
-3.95216
-3.85936
-3.75054
-3.62268
-3.47095
-3.28867
-3.0711
-2.84828
-2.93765
-4.08789
-4.07569
-4.05135
-4.015
-3.96679
-3.90683
-3.83512
-3.75141
-3.65504
-3.54476
-3.41838
-3.27159
-3.09233
-2.82775
-2.17931
-3.9579
-3.94655
-3.92396
-3.89033
-3.84594
-3.79117
-3.72645
-3.65226
-3.56921
-3.47806
-3.38001
-3.27708
-3.17284
-3.07373
-2.99372
-3.83581
-3.82525
-3.80427
-3.77315
-3.73233
-3.68245
-3.62437
-3.55931
-3.48903
-3.41618
-3.34507
-3.28351
-3.24981
-3.3064
-3.75229
-3.72108
-3.71121
-3.69164
-3.66272
-3.62504
-3.57944
-3.52715
-3.47
-3.41066
-3.35313
-3.30351
-3.27061
-3.26411
-3.26868
-3.03132
-3.61323
-3.60393
-3.58552
-3.55841
-3.52327
-3.48109
-3.43335
-3.38225
-3.33104
-3.28462
-3.25036
-3.2394
-3.27077
-3.39889
-3.93418
-3.51185
-3.50299
-3.48547
-3.45971
-3.4264
-3.38662
-3.3419
-3.29459
-3.24812
-3.2077
-3.18106
-3.17881
-3.21027
-3.2463
-2.94995
-3.41666
-3.40809
-3.39116
-3.36626
-3.33407
-3.29559
-3.25229
-3.20636
-3.16102
-3.12124
-3.09484
-3.09485
-3.14661
-3.32449
-4.01822
-3.32743
-3.31903
-3.3024
-3.2779
-3.24612
-3.20792
-3.16454
-3.11774
-3.07009
-3.02552
-2.9903
-2.97499
-2.99539
-3.04438
-2.77386
-3.24406
-3.2357
-3.21912
-3.19462
-3.16265
-3.12388
-3.07918
-3.02972
-2.97705
-2.92332
-2.87195
-2.83035
-2.82433
-2.98611
-4.13553
-3.16652
-3.1581
-3.14136
-3.11653
-3.08393
-3.04398
-2.99716
-2.94396
-2.88476
-2.81951
-2.74686
-2.66102
-2.53679
-2.24192
-0.966931
-3.09485
-3.08629
-3.06925
-3.04387
-3.01034
-2.96887
-2.91958
-2.86239
-2.7967
-2.72086
-2.63093
-2.51839
-2.36775
-2.17831
-2.24094
-3.02915
-3.0204
-3.00295
-2.97688
-2.94229
-2.89921
-2.84752
-2.78673
-2.71571
-2.63201
-2.53074
-2.40224
-2.22569
-1.9396
-1.23395
-2.96954
-2.96056
-2.94265
-2.91584
-2.88016
-2.83555
-2.78178
-2.71821
-2.64355
-2.55537
-2.44948
-2.31947
-2.15973
-1.9922
-2.06097
-2.91618
-2.90696
-2.88854
-2.86097
-2.82424
-2.77829
-2.72287
-2.6574
-2.58079
-2.49107
-2.38497
-2.25738
-2.09919
-1.88066
-1.41082
-2.86924
-2.85976
-2.84082
-2.81247
-2.77474
-2.72762
-2.67094
-2.60436
-2.52717
-2.43815
-2.33542
-2.21657
-2.08056
-1.94359
-1.95891
-2.82891
-2.81914
-2.79965
-2.77051
-2.7318
-2.68359
-2.62592
-2.55871
-2.48178
-2.39476
-2.29709
-2.18767
-2.06263
-1.90071
-1.56967
-2.79538
-2.7853
-2.76521
-2.73521
-2.69546
-2.64616
-2.58753
-2.51983
-2.44341
-2.3588
-2.26694
-2.16965
-2.07033
-1.97524
-1.8981
-2.76886
-2.75843
-2.73766
-2.7067
-2.66578
-2.61523
-2.55545
-2.48702
-2.41075
-2.32788
-2.24059
-2.15307
-2.0751
-2.03727
-2.17277
-2.74959
-2.73877
-2.71721
-2.68512
-2.64281
-2.59071
-2.52941
-2.45969
-2.38268
-2.30005
-2.21441
-2.12987
-2.05201
-1.97889
-1.82011
-2.73787
-2.72657
-2.70408
-2.67066
-2.62666
-2.57261
-2.50922
-2.43743
-2.35853
-2.27433
-2.18747
-2.10206
-2.02564
-1.97996
-2.07824
-2.73401
-2.72215
-2.69858
-2.66355
-2.6175
-2.56101
-2.49488
-2.42012
-2.33809
-2.25049
-2.15955
-2.06802
-1.97796
-1.88101
-1.68359
-2.7384
-2.72589
-2.70103
-2.66412
-2.6156
-2.55613
-2.48654
-2.4079
-2.32152
-2.22897
-2.13207
-2.03296
-1.93508
-1.85179
-1.87251
-2.75148
-2.73823
-2.71188
-2.67275
-2.62133
-2.55828
-2.4845
-2.40106
-2.30925
-2.21049
-2.10614
-1.99708
-1.88209
-1.75029
-1.53191
-2.77379
-2.75968
-2.73162
-2.68994
-2.63514
-2.56792
-2.48918
-2.40005
-2.30183
-2.1959
-2.08351
-1.96532
-1.84078
-1.7089
-1.58323
-2.8059
-2.79083
-2.76083
-2.71625
-2.65759
-2.58556
-2.5011
-2.40537
-2.29977
-2.18581
-2.06493
-1.93798
-1.80459
-1.66315
-1.5207
-2.8485
-2.83235
-2.80019
-2.75236
-2.68934
-2.61185
-2.52085
-2.41756
-2.30352
-2.18055
-2.05057
-1.91514
-1.774
-1.61806
-1.38551
-2.90233
-2.88499
-2.85046
-2.79902
-2.73115
-2.64754
-2.54914
-2.43722
-2.3135
-2.18018
-2.04
-1.89629
-1.75371
-1.62613
-1.60174
-2.96822
-2.94959
-2.91247
-2.8571
-2.78391
-2.69352
-2.58683
-2.4651
-2.33016
-2.18457
-2.03189
-1.87667
-1.723
-1.56252
-1.28784
-3.04705
-3.02705
-2.98716
-2.92758
-2.84863
-2.75084
-2.63497
-2.50217
-2.35423
-2.19391
-2.02555
-1.85599
-1.69703
-1.57818
-1.64112
-3.13977
-3.11834
-3.07554
-3.01151
-2.92645
-2.82072
-2.69487
-2.54976
-2.3869
-2.20885
-2.02005
-1.82795
-1.64323
-1.46757
-1.17993
-3.2474
-3.22448
-3.17868
-3.11004
-3.01864
-2.9046
-2.76815
-2.6097
-2.43013
-2.23127
-2.01687
-1.79478
-1.58315
-1.43468
-1.5614
-3.37094
-3.34653
-3.29769
-3.22439
-3.12656
-3.00406
-2.85671
-2.68431
-2.48677
-2.2645
-2.01902
-1.75438
-1.47922
-1.21068
-0.988217
-3.51145
-3.48555
-3.4337
-3.3558
-3.25162
-3.12078
-2.96268
-2.77638
-2.56061
-2.31384
-2.0345
-1.72128
-1.3707
-0.954657
-0.260437
-3.66996
-3.6426
-3.58782
-3.50546
-3.39519
-3.25645
-3.08824
-2.88892
-2.656
-2.3858
-2.07353
-1.71413
-1.30765
-0.891788
-0.772012
-3.84747
-3.81871
-3.7611
-3.6745
-3.55855
-3.4126
-3.2354
-3.02482
-2.77727
-2.487
-2.14529
-1.73968
-1.25113
-0.623281
0.521258
-4.04498
-4.01484
-3.95453
-3.86393
-3.74277
-3.59044
-3.40576
-3.1864
-2.92822
-2.62392
-2.26143
-1.82285
-1.29135
-0.713565
-0.640568
-4.26342
-4.23194
-4.169
-4.07459
-3.94863
-3.79078
-3.60019
-3.37496
-3.1112
-2.80125
-2.43043
-1.97055
-1.36373
-0.453278
1.49841
-4.50373
-4.4709
-4.40533
-4.30718
-4.17664
-4.01386
-3.81869
-3.59029
-3.32627
-3.02087
-2.66129
-2.22029
-1.64698
-0.91605
-0.737293
-4.76685
-4.7326
-4.66429
-4.56226
-4.42706
-4.25943
-4.06026
-3.83037
-3.57008
-3.27811
-2.9487
-2.56193
-2.03969
-0.99535
2.88134
-5.05375
-5.01798
-4.94667
-4.84038
-4.7
-4.52692
-4.32318
-4.09157
-3.83591
-3.56137
-3.27596
-2.99763
-2.79499
-3.04153
-6.10999
-5.36551
-5.32803
-5.25337
-5.14218
-4.99565
-4.81572
-4.60545
-4.36948
-4.11484
-3.85217
-3.5983
-3.38079
-3.23836
-3.12804
-1.92994
-5.7033
-5.66391
-5.58543
-5.46852
-5.3145
-5.1256
-4.90557
-4.66038
-4.39935
-4.13688
-3.89539
-3.71183
-3.65943
-3.96993
-5.92763
-6.06845
-6.02695
-5.94417
-5.82066
-5.65757
-5.45711
-5.22316
-4.96227
-4.68487
-4.40702
-4.15227
-3.95177
-3.82849
-3.66792
-2.27495
-6.46242
-6.41867
-6.33121
-6.20028
-6.0266
-5.81187
-5.55948
-5.27563
-4.97071
-4.66112
-4.37147
-4.13811
-4.02345
-4.22173
-5.89916
-6.88679
-6.84074
-6.74844
-6.6096
-6.42416
-6.19278
-5.91765
-5.60363
-5.2598
-4.90137
-4.55159
-4.24201
-4.00109
-3.74834
-2.44393
-7.34313
-7.29494
-7.198
-7.05129
-6.85362
-6.60407
-6.30283
-5.95233
-5.55902
-5.13564
-4.70378
-4.29824
-3.98694
-4.00527
-5.62076
-7.83295
-7.78301
-7.68212
-7.52837
-7.3191
-7.05128
-6.72222
-6.33075
-5.87915
-5.37579
-4.8377
-4.28904
-3.74388
-3.15305
-2.38147
-8.35745
-8.30645
-8.20296
-8.04402
-7.82524
-7.54102
-7.18496
-6.75095
-6.23521
-5.64006
-4.97897
-4.2774
-3.53253
-2.42633
1.39369
-8.91738
-8.86635
-8.76231
-8.60122
-8.37684
-8.08065
-7.70184
-7.2279
-6.64644
-5.95011
-5.14834
-4.29584
-3.57211
-3.58421
-6.95697
-9.51274
-9.46306
-9.36128
-9.20237
-8.97832
-8.67766
-8.28479
-7.77951
-7.13744
-6.3334
-5.35295
-4.22486
-3.10069
-2.40829
-2.87114
-10.1426
-10.096
-9.99994
-9.84875
-9.633
-9.33871
-8.94581
-8.42612
-7.74093
-6.8392
-5.6601
-4.15117
-2.32943
-0.430095
0.893302
-10.8049
-10.7632
-10.6769
-10.54
-10.3422
-10.0682
-9.69487
-9.18765
-8.4948
-7.53761
-6.19628
-4.29472
-1.61204
1.94806
5.5768
-11.4961
-11.4613
-11.3891
-11.2734
-11.1044
-10.8668
-10.5369
-10.0781
-9.43225
-8.50277
-7.12153
-4.98071
-1.50398
4.27856
12.7803
-12.2114
-12.1856
-12.1314
-12.0438
-11.9143
-11.7294
-11.4684
-11.0985
-10.5667
-9.78167
-8.57427
-6.59442
-2.99719
4.72074
25.8878
-146.565
-88.0552
-61.5439
-48.8754
-42.0898
-38.0373
-35.4046
-33.5897
-32.2888
-31.3357
-30.6331
-30.1215
-29.7637
-29.5363
-29.4258
-182.355
-82.3939
-54.6622
-43.9711
-38.6079
-35.422
-33.3256
-31.8567
-30.788
-29.9949
-29.4042
-28.9708
-28.6659
-28.4715
-28.3767
47.0752
-26.5737
-35.9469
-35.3668
-33.6139
-32.0501
-30.8107
-29.846
-29.0957
-28.5134
-28.0662
-27.7309
-27.4915
-27.3374
-27.2619
-6.98599
-15.3895
-24.1435
-27.5768
-28.4886
-28.4529
-28.1051
-27.6864
-27.2867
-26.9382
-26.6505
-26.4244
-26.2579
-26.1487
-26.0946
26.0299
-3.96171
-16.0352
-21.5379
-24.0214
-25.0725
-25.4488
-25.5135
-25.4422
-25.3209
-25.1919
-25.0764
-24.9847
-24.9217
-24.8898
-1.36807
-4.97709
-12.4898
-17.5958
-20.5488
-22.1608
-23.0087
-23.435
-23.6325
-23.7088
-23.7241
-23.7119
-23.6914
-23.6731
-23.6628
11.562
-3.28157
-10.6157
-15.1489
-18.0075
-19.7797
-20.8616
-21.5153
-21.9069
-22.1393
-22.2752
-22.3532
-22.3966
-22.4191
-22.4286
-3.02158
-6.80094
-10.6866
-13.8648
-16.2207
-17.8779
-19.0118
-19.7776
-20.2919
-20.6366
-20.8667
-21.0187
-21.1162
-21.174
-21.201
-14.9805
-10.2465
-11.2488
-13.1518
-14.9191
-16.3394