/*--------------------------------*- C++ -*----------------------------------*\
| =========                 |                                                 |
| \\      /  F ield         | OpenFOAM: The Open Source CFD Toolbox           |
|  \\    /   O peration     | Version:  5.x                                   |
|   \\  /    A nd           | Web:      www.OpenFOAM.org                      |
|    \\/     M anipulation  |                                                 |
\*---------------------------------------------------------------------------*/
FoamFile
{
    version     2.0;
    format      ascii;
    class       volScalarField;
    location    "16";
    object      gradTx;
}
// * * * * * * * * * * * * * * * * * * * * * * * * * * * * * * * * * * * * * //

dimensions      [0 -1 0 1 0 0 0];

internalField   nonuniform List<scalar> 
2048
(
0.00630491
0.0187341
0.030638
0.0417192
0.0517485
0.0605768
0.0681335
0.0744165
0.0794755
0.0833933
0.0862697
0.0882091
0.0893134
0.0896795
0.0893997
0.0885633
0.0872571
0.0855646
0.0835636
0.0813226
0.0788974
0.0763287
0.0736413
0.0708454
0.0679387
0.0649092
0.0617372
0.0583972
0.0548583
0.0510845
0.0470357
0.0426681
0.0379365
0.0327963
0.0272058
0.0211271
0.0145283
0.00738299
-0.000328294
-0.00861721
-0.0174853
-0.0269202
-0.0368905
-0.0473389
-0.0581738
-0.0692603
-0.0804115
-0.0913801
-0.101855
-0.111463
-0.119781
-0.126359
-0.130753
-0.132569
-0.131511
-0.127416
-0.120277
-0.110247
-0.0976153
-0.0827649
-0.0661295
-0.0481502
-0.0292469
-0.0098074
0.0187883
0.0558171
0.0912548
0.124203
0.153976
0.180133
0.202474
0.221007
0.235894
0.247394
0.255811
0.26146
0.264645
0.26565
0.26475
0.262205
0.258275
0.253207
0.247235
0.240564
0.233361
0.225746
0.217793
0.20953
0.200947
0.192007
0.18265
0.172802
0.16237
0.151247
0.139314
0.126439
0.112488
0.0973273
0.0808311
0.0628878
0.0434015
0.0222942
-0.000492719
-0.0249957
-0.0512222
-0.0791403
-0.108663
-0.139627
-0.171769
-0.204699
-0.237869
-0.270552
-0.301827
-0.330581
-0.355545
-0.375357
-0.388671
-0.394288
-0.391295
-0.379192
-0.357961
-0.328073
-0.290412
-0.246151
-0.196608
-0.143109
-0.0869051
-0.0291383
0.0311398
0.0924817
0.151103
0.205481
0.254467
0.297346
0.33382
0.363945
0.388035
0.406554
0.420032
0.428999
0.433956
0.435368
0.433674
0.429302
0.422673
0.414201
0.404276
0.393243
0.381379
0.368885
0.355875
0.34239
0.328408
0.31386
0.298648
0.282645
0.265702
0.247642
0.228268
0.207361
0.184695
0.160046
0.133206
0.103989
0.072238
0.0378238
0.000648055
-0.0393541
-0.0822042
-0.127863
-0.176206
-0.226987
-0.2798
-0.334031
-0.388808
-0.442954
-0.49496
-0.542984
-0.584894
-0.61838
-0.641133
-0.651073
-0.646608
-0.62686
-0.591799
-0.542252
-0.479768
-0.406388
-0.324372
-0.235961
-0.143224
-0.0480092
0.0435993
0.129424
0.21127
0.286934
0.354789
0.413863
0.463813
0.504807
0.537374
0.56224
0.58019
0.591984
0.598314
0.599811
0.597063
0.590651
0.581156
0.56916
0.555217
0.539819
0.523361
0.50612
0.488247
0.469784
0.450685
0.430844
0.41012
0.388335
0.365286
0.340731
0.314392
0.28596
0.255115
0.221537
0.184934
0.145046
0.101655
0.0545844
0.00369394
-0.0511148
-0.109888
-0.172599
-0.239108
-0.309121
-0.382127
-0.457331
-0.533581
-0.609295
-0.682401
-0.750326
-0.810039
-0.8582
-0.891415
-0.90659
-0.901326
-0.874288
-0.82543
-0.756011
-0.668379
-0.565591
-0.450972
-0.327744
-0.198793
-0.0666108
0.0563825
0.167266
0.272716
0.369763
0.456276
0.531056
0.593784
0.644837
0.685053
0.715491
0.737238
0.751296
0.758542
0.759746
0.755624
0.746893
0.73429
0.718573
0.700476
0.680654
0.659629
0.637753
0.615204
0.592009
0.568083
0.543272
0.517386
0.490203
0.461468
0.430877
0.398072
0.362649
0.324183
0.282253
0.236477
0.186522
0.132114
0.073028
0.00908492
-0.0598532
-0.133872
-0.212975
-0.297043
-0.385769
-0.478587
-0.574576
-0.672363
-0.77001
-0.864923
-0.953794
-1.03264
-1.09698
-1.14216
-1.16386
-1.15868
-1.1247
-1.06185
-0.971941
-0.858327
-0.725314
-0.577481
-0.419133
-0.253975
-0.0850562
0.0696943
0.206596
0.336335
0.455064
0.560109
0.650094
0.724824
0.785012
0.83193
0.867065
0.891864
0.907581
0.915257
0.915766
0.909918
0.898541
0.882528
0.862828
0.84038
0.816026
0.790429
0.764018
0.736982
0.709311
0.680857
0.651405
0.620711
0.588513
0.554517
0.518361
0.479607
0.437745
0.392233
0.342539
0.288183
0.228761
0.163946
0.0934742
0.0171293
-0.0652711
-0.153865
-0.248713
-0.349749
-0.4567
-0.568994
-0.685654
-0.805155
-0.925278
-1.04296
-1.15416
-1.2539
-1.33641
-1.39552
-1.42542
-1.42143
-1.38085
-1.30358
-1.19214
-1.05119
-0.886622
-0.704539
-0.510465
-0.308917
-0.103385
0.0837388
0.247993
0.402995
0.54387
0.667368
0.771994
0.857823
0.926075
0.978614
1.01748
1.04453
1.06128
1.06891
1.06833
1.06039
1.04601
1.02623
1.00223
0.975173
0.946135
0.91594
0.885091
0.853771
0.821896
0.789228
0.755466
0.720312
0.683475
0.644638
0.603394
0.559219
0.511486
0.459518
0.402653
0.340307
0.272004
0.197377
0.116133
0.0280245
-0.0671765
-0.169675
-0.279617
-0.397022
-0.521701
-0.653139
-0.79037
-0.93181
-1.07505
-1.21662
-1.35183
-1.47461
-1.57773
-1.65326
-1.69348
-1.69203
-1.64521
-1.55281
-1.41831
-1.24811
-1.05014
-0.832384
-0.601755
-0.363564
-0.121568
0.0987275
0.292054
0.473573
0.637198
0.779061
0.897655
0.993507
1.06857
1.1255
1.16703
1.1955
1.21268
1.21981
1.21777
1.20739
1.18963
1.1657
1.13701
1.10503
1.07111
1.03628
1.0011
0.965719
0.929942
0.893389
0.85565
0.81637
0.775252
0.731982
0.686125
0.63707
0.584051
0.526229
0.462789
0.393031
0.316415
0.232545
0.14112
0.0418736
-0.065469
-0.181194
-0.305558
-0.438711
-0.58059
-0.730801
-0.888472
-1.05206
-1.21907
-1.38578
-1.54685
-1.69516
-1.82183
-1.91681
-1.96996
-1.97275
-1.92005
-1.8115
-1.65186
-1.44984
-1.21607
-0.960863
-0.69271
-0.417661
-0.139505
0.114886
0.339409
0.548978
0.736068
0.896162
1.02788
1.13245
1.21285
1.27277
1.31581
1.34486
1.36191
1.36816
1.36437
1.35123
1.32971
1.30117
1.26734
1.23006
1.19103
1.1515
1.11212
1.07295
1.03361
0.993519
0.952133
0.909039
0.863967
0.816651
0.766652
0.713268
0.655567
0.592507
0.523088
0.446483
0.362092
0.269517
0.168475
0.0586976
-0.0601291
-0.188387
-0.326477
-0.474716
-0.633218
-0.801767
-0.979667
-1.16553
-1.35693
-1.55003
-1.739
-1.91564
-2.06928
-2.18732
-2.25662
-2.26574
-2.20756
-2.08148
-1.89393
-1.6568
-1.38423
-1.08945
-0.782736
-0.470765
-0.157037
0.132461
0.39074
0.630177
0.841533
1.01962
1.16338
1.2751
1.3591
1.42042
1.46374
1.49254
1.50898
1.51408
1.50833
1.49217
1.4665
1.43286
1.39337
1.35034
1.30591
1.26163
1.2182
1.17556
1.13304
1.0898
1.04509
0.998456
0.94971
0.898701
0.845026
0.787881
0.726123
0.658457
0.583657
0.500746
0.409081
0.308297
0.198164
0.0784457
-0.0512082
-0.19129
-0.342377
-0.504996
-0.679481
-0.865847
-1.06365
-1.27179
-1.48808
-1.70877
-1.92772
-2.13578
-2.32031
-2.46571
-2.55508
-2.57312
-2.50997
-2.36451
-2.14547
-1.86905
-1.55402
-1.21724
-0.870952
-0.522258
-0.173941
0.151725
0.446794
0.718209
0.954689
1.15037
1.30481
1.42176
1.50733
1.56828
1.61057
1.63834
1.6538
1.65764
1.64985
1.63047
1.60025
1.56096
1.51519
1.46588
1.41571
1.36662
1.31936
1.27363
1.22838
1.1824
1.13469
1.08474
1.03254
0.978149
0.921255
0.860936
0.795777
0.724161
0.644576
0.555872
0.457387
0.348838
0.230101
0.101004
-0.0388207
-0.189997
-0.353316
-0.529563
-0.719327
-0.922893
-1.14015
-1.37038
-1.61188
-1.8612
-2.11223
-2.355
-2.57484
-2.75266
-2.86685
-2.8971
-2.8296
-2.66236
-2.40724
-2.08628
-1.72442
-1.34295
-0.956203
-0.571358
-0.189945
0.172979
0.508396
0.814206
1.0767
1.28934
1.45274
1.57262
1.65741
1.71599
1.75588
1.78193
1.79622
1.79885
1.78909
1.76639
1.73122
1.68564
1.63288
1.57665
1.52035
1.46639
1.41558
1.36725
1.31981
1.27155
1.22113
1.16802
1.11249
1.05497
0.995308
0.932433
0.864568
0.789687
0.705914
0.611895
0.506983
0.391051
0.264144
0.126205
-0.0231362
-0.184653
-0.359406
-0.548484
-0.752762
-0.972815
-1.20891
-1.46086
-1.72761
-2.00638
-2.29146
-2.57237
-2.83244
-3.04857
-3.19339
-3.23996
-3.16897
-2.97691
-2.67982
-2.30785
-1.89401
-1.46494
-1.03708
-0.61715
-0.204733
0.196564
0.57646
0.919401
1.20878
1.43747
1.60765
1.72774
1.80903
1.86302
1.89911
1.92288
1.93602
1.93772
1.92626
1.90021
1.85968
1.80709
1.74651
1.68259
1.6197
1.56082
1.50683
1.45649
1.4075
1.35746
1.30462
1.24841
1.18955
1.12909
1.06712
1.00235
0.932521
0.855098
0.767739
0.668836
0.557817
0.434812
0.300109
0.153829
-0.00437243
-0.175448
-0.360798
-0.561876
-0.779857
-1.01559
-1.26975
-1.54281
-1.83456
-2.14327
-2.46413
-2.78669
-3.09237
-3.35359
-3.53603
-3.60419
-3.53095
-3.31018
-2.96365
-2.53268
-2.06088
-1.58123
-1.11197
-0.658616
-0.217962
0.222859
0.651997
1.03514
1.35225
1.59568
1.76994
1.88705
1.96174
2.00869
2.03957
2.06066
2.07294
2.07423
2.06155
2.03227
1.98594
1.92548
1.8561
1.78362
1.71356
1.64975
1.59305
1.54146
1.49164
1.4404
1.3854
1.32602
1.2637
1.2004
1.13658
1.07063
0.99965
0.920457
0.830124
0.726712
0.609819
0.479966
0.337775
0.183616
0.0172116
-0.16261
-0.357682
-0.569902
-0.800745
-1.05129
-1.32259
-1.61588
-1.93203
-2.27074
-2.62877
-2.99642
-3.3535
-3.66755
-3.89599
-3.99247
-3.91881
-3.66444
-3.25893
-2.75921
-2.22268
-1.68949
-1.17909
-0.694675
-0.229274
0.252291
0.736124
1.1629
1.50849
1.76485
1.93992
2.05036
2.11493
2.15214
2.17641
2.1947
2.20671
2.20839
2.19521
2.16298
2.11032
2.041
1.96171
1.8796
1.80169
1.73295
1.67417
1.62225
1.57247
1.5207
1.46379
1.401
1.33487
1.26872
1.20355
1.13723
1.06597
0.985838
0.893163
0.785543
0.662896
0.526335
0.376889
0.215266
0.0413215
-0.14639
-0.350268
-0.57276
-0.815626
-1.08005
-1.36744
-1.67984
-2.01941
-2.38763
-2.78372
-3.1997
-3.61433
-3.98991
-4.27435
-4.40778
-4.33644
-4.04229
-3.56567
-2.98536
-2.37655
-1.78713
-1.23655
-0.72424
-0.238318
0.285342
0.830063
1.30427
1.67901
1.94584
2.11775
2.21737
2.26791
2.29238
2.30869
2.32437
2.33708
2.3402
2.32753
2.29279
2.23321
2.15383
2.06337
1.97039
1.88381
1.81015
1.75013
1.699
1.65024
1.59869
1.54015
1.4735
1.40292
1.33381
1.26786
1.20209
1.13148
1.05133
0.956979
0.845354
0.716943
0.573724
0.417172
0.248446
0.0676323
-0.127056
-0.338775
-0.570676
-0.824756
-1.10213
-1.40441
-1.73459
-2.09619
-2.49282
-2.9272
-3.39441
-3.873
-4.31974
-4.67186
-4.85334
-4.7885
-4.44677
-3.88351
-3.20837
-2.51909
-1.87131
-1.28245
-0.746271
-0.24477
0.322561
0.935142
1.46097
1.8654
2.13944
2.30343
2.38769
2.41983
2.42825
2.43531
2.44901
2.46381
2.46965
2.45883
2.42231
2.35499
2.26412
2.16113
2.05582
1.95954
1.88103
1.82085
1.77188
1.72522
1.67478
1.61491
1.54367
1.46768
1.39538
1.32932
1.26517
1.19619
1.11702
1.02174
0.906179
0.771828
0.621922
0.458325
0.282788
0.0957929
-0.104886
-0.323422
-0.563887
-0.82845
-1.11786
-1.43373
-1.78014
-2.16204
-2.58525
-3.0573
-3.57813
-4.12724
-4.65559
-5.08888
-5.33268
-5.28066
-4.88146
-4.21165
-3.42467
-2.64643
-1.93906
-1.31496
-0.759838
-0.248354
0.364586
1.05278
1.63482
2.06943
2.34633
2.49676
2.56087
2.56979
2.55844
2.55508
2.56797
2.58678
2.59674
2.58947
2.55225
2.47612
2.37197
2.25507
2.13572
2.02845
1.94518
1.88625
1.84112
1.79766
1.7494
1.68865
1.61171
1.52887
1.45303
1.38772
1.32643
1.26008
1.18303
1.08768
0.968059
0.827389
0.670721
0.500038
0.317893
0.125427
-0.0801536
-0.304403
-0.552629
-0.827068
-1.12767
-1.45572
-1.81669
-2.21683
-2.66398
-3.17207
-3.74824
-4.37446
-4.99556
-5.52514
-5.84956
-5.81996
-5.35064
-4.5486
-3.62979
-2.75418
-1.98739
-1.3324
-0.764182
-0.248858
0.412184
1.18447
1.82772
2.29306
2.56704
2.69725
2.73646
2.71686
2.68149
2.66669
2.68066
2.70598
2.72139
2.71982
2.68354
2.59701
2.47742
2.34534
2.20995
2.09001
2.00213
1.9463
1.90703
1.86781
1.82302
1.7621
1.67783
1.58612
1.50625
1.44283
1.38594
1.32312
1.24946
1.15512
1.03104
0.883412
0.719919
0.542
0.35333
0.156137
-0.0531277
-0.28188
-0.537124
-0.821017
-1.13208
-1.4708
-1.84455
-2.26073
-2.72824
-3.2695
-3.90185
-4.6118
-5.3372
-5.97942
-6.40784
-6.41517
-5.85948
-4.89194
-3.81812
-2.83755
-2.01338
-1.3334
-0.75877
-0.246157
0.466311
1.33173
2.04161
2.53854
2.80186
2.90401
2.91409
2.8601
2.79577
2.76865
2.78655
2.82159
2.84339
2.8502
2.81739
2.71808
2.58032
2.43221
2.27838
2.14357
2.0513
2.00098
1.97005
1.9358
1.89609
1.83618
1.74229
1.63892
1.55443
1.49445
1.44383
1.3852
1.31641
1.22454
1.09516
0.939609
0.769351
0.583905
0.388625
0.1875
-0.0240617
-0.255962
-0.51756
-0.810736
-1.13173
-1.47943
-1.86418
-2.29422
-2.7775
-3.34761
-4.03591
-4.83621
-5.67766
-6.44919
-7.01134
-7.07746
-6.41415
-5.23783
-3.98281
-2.8914
-2.01439
-1.31692
-0.743341
-0.240216
0.528232
1.49608
2.27833
2.80862
3.05079
3.11566
3.09365
2.99865
2.89942
2.85934
2.88522
2.93416
2.96232
2.98087
2.95545
2.83966
2.68029
2.51614
2.34095
2.18837
2.09196
2.05034
2.03082
2.00164
1.96901
1.91217
1.80537
1.68654
1.59679
1.54241
1.5004
1.4461
1.38391
1.29659
1.16043
0.995574
0.818918
0.625464
0.42326
0.219068
0.00680792
-0.226687
-0.494076
-0.7967
-1.12735
-1.48208
-1.8761
-2.3182
-2.81148
-3.40443
-4.14718
-5.04458
-6.0138
-6.93007
-7.66344
-7.82108
-7.02214
-5.5805
-4.11554
-2.91049
-1.98822
-1.28244
-0.717931
-0.231103
0.599697
1.6789
2.53955
3.10671
3.31335
3.33006
3.27544
3.13172
2.99035
2.93694
2.97639
3.04467
3.07737
3.11191
3.09996
2.96195
2.77654
2.59793
2.39764
2.22343
2.12328
2.09449
2.09028
2.06509
2.04208
1.99172
1.86734
1.72807
1.63241
1.58656
1.55619
1.50543
1.45194
1.37224
1.22682
1.05072
0.868641
0.666417
0.456655
0.250371
0.0392628
-0.194007
-0.466747
-0.779402
-1.11983
-1.47918
-1.88085
-2.33405
-2.83019
-3.43806
-4.23219
-5.23391
-6.34255
-7.41522
-8.36663
-8.66444
-7.69241
-5.9114
-4.20654
-2.88963
-1.93325
-1.22993
-0.682892
-0.218984
0.683233
1.88135
2.82645
3.43736
3.58844
3.5441
3.46054
3.25867
3.06619
2.99942
3.05992
3.15485
3.18716
3.24309
3.25408
3.08488
2.86773
2.67888
2.44857
2.2476
2.14421
2.1336
2.14979
2.12548
2.11541
2.07715
1.92847
1.76226
1.66017
1.62683
1.61213
1.56251
1.52032
1.45289
1.29419
1.10422
0.918739
0.706534
0.48815
0.280913
0.0730992
-0.157767
-0.435567
-0.759347
-1.11024
-1.47106
-1.87887
-2.34378
-2.83396
-3.44666
-4.28723
-5.40143
-6.66148
-7.89447
-9.12171
-9.63148
-8.43566
-6.21821
-4.2445
-2.82411
-1.84869
-1.15996
-0.638874
-0.204114
0.782581
2.10421
3.13944
3.80671
3.87409
3.75331
3.65123
3.37899
3.12418
3.04444
3.13582
3.26746
3.28942
3.37373
3.42229
3.20798
2.95164
2.76108
2.49386
2.25942
2.1535
2.16792
2.21138
2.18159
2.18878
2.17159
1.98895
1.78754
1.67879
1.66319
1.66967
1.61625
1.58862
1.54057
1.36222
1.15486
0.969739
0.745613
0.51698
0.310186
0.108119
-0.117687
-0.400435
-0.737034
-1.09993
-1.45786
-1.87038
-2.35017
-2.82339
-3.42854
-4.30823
-5.54477
-6.96959
-8.35343
-9.92672
-10.7534
-9.26452
-6.48341
-4.21682
-2.71
-1.73467
-1.07366
-0.586799
-0.186826
0.903332
2.3476
3.47765
4.22334
4.16714
3.9514
3.85156
3.4922
3.16112
3.0694
3.20414
3.38674
3.38061
3.50244
3.61094
3.33013
3.02493
2.84779
2.53371
2.25714
2.14967
2.19767
2.27804
2.23133
2.26151
2.27938
2.04874
1.80192
1.68674
1.69565
1.73104
1.66492
1.65609
1.63819
1.43035
1.20093
1.02264
0.783465
0.542241
0.337676
0.144115
-0.0733412
-0.361148
-0.712915
-1.09058
-1.43947
-1.85515
-2.35698
-2.79934
-3.38218
-4.29058
-5.66193
-7.26855
-8.77228
-10.7755
-12.0711
-10.1938
-6.68262
-4.11002
-2.54468
-1.59241
-0.97273
-0.527813
-0.167511
1.05384
2.61072
3.83822
4.69927
4.4628
4.12962
4.06823
3.59773
3.1733
3.07138
3.26485
3.51905
3.45545
3.62679
3.82896
3.44928
3.08262
2.94394
2.56819
2.23861
2.13098
2.223
2.35408
2.27147
2.33223
2.40644
2.10745
1.80292
1.68236
1.72414
1.79957
1.70594
1.7215
1.7499
1.49758
1.24005
1.07912
0.819866
0.562855
0.362898
0.180843
-0.0241377
-0.317397
-0.687344
-1.08443
-1.41542
-1.83225
-2.36924
-2.76276
-3.30638
-4.22894
-5.75121
-7.56438
-9.12453
-11.6555
-13.638
-11.2403
-6.78237
-3.91051
-2.32732
-1.42422
-0.859314
-0.463226
-0.146595
1.24646
2.89146
4.21542
5.25142
4.75407
4.276
4.31159
3.69456
3.15643
3.04716
3.31754
3.67368
3.50624
3.74298
4.08888
3.56206
3.11763
3.05684
2.59706
2.20127
2.09548
2.24379
2.44572
2.29719
2.39865
2.56089
2.16404
1.7876
1.66384
1.74843
1.88008
1.73553
1.78291
1.88154
1.56233
1.26892
1.14182
0.854487
0.577528
0.385432
0.217986
0.0307126
-0.268784
-0.66049
-1.08438
-1.38483
-1.79973
-2.39365
-2.71452
-3.20039
-4.11697
-5.81087
-7.86964
-9.37553
-12.5455
-15.5236
-12.4233
-6.73753
-3.60578
-2.05934
-1.23348
-0.735932
-0.394438
-0.124519
1.49921
3.18587
4.59941
5.90339
5.03104
4.37446
4.59707
3.78078
3.10562
2.99331
3.361
3.86388
3.52213
3.84525
4.40798
3.66322
3.12007
3.19704
2.61949
2.14211
2.04099
2.25936
2.56172
2.30159
2.45721
2.75374
2.21644
1.7525
1.6293
1.76789
1.97944
1.74836
1.8375
2.0412
1.62216
1.28309
1.21476
0.886769
0.584704
0.404984
0.255101
0.0922282
-0.214847
-0.632206
-1.0943
-1.34631
-1.75416
-2.43907
-2.65505
-3.06421
-3.94704
-5.83841
-8.20624
-9.48102
-13.4121
-17.8182
-13.7635
-6.48816
-3.18621
-1.74482
-1.02454
-0.60533
-0.322869
-0.101719
1.83789
3.4876
4.97469
6.68773
5.27994
4.4036
4.94686
3.85279
3.01542
2.90633
3.39257
4.10822
3.48818
3.92533
4.80977
3.74502
3.07653
3.37948
2.63352
2.05771
1.96528
2.26808
2.71428
2.27508
2.50276
2.99971
2.26105
1.69371
1.57694
1.78115
2.10723
1.73699
1.88125
2.23991
1.67345
1.27663
1.30371
0.915741
0.582531
0.42147
0.291544
0.161702
-0.155123
-0.601847
-1.11931
-1.29795
-1.69009
-2.51719
-2.58391
-2.89898
-3.70998
-5.82952
-8.60893
-9.38549
-14.2057
-20.638
-15.2832
-5.95593
-2.64744
-1.39074
-0.802483
-0.470329
-0.249896
-0.0786052
2.29873
3.78712
5.31828
7.64876
5.48201
4.33548
5.39205
3.90428
2.87993
2.78291
3.40726
4.43219
3.38424
3.97164
5.32574
3.79642
2.96919
3.62484
2.63541
1.94432
1.8662
2.26677
2.92008
2.20468
2.52807
3.31835
2.292
1.60698
1.5052
1.78565
2.27659
1.69141
1.90861
2.49247
1.71103
1.2418
1.41686
0.93977
0.568828
0.435126
0.326376
0.240762
-0.0892406
-0.568029
-1.16611
-1.23725
-1.59943
-2.6433
-2.4991
-2.70745
-3.39482
-5.7764
-9.1294
-9.02076
-14.8555
-24.1314
-17.005
-5.04007
-1.99351
-1.00696
-0.572819
-0.33368
-0.17679
-0.0555469
2.93163
4.07088
5.59742
8.84578
5.61216
4.13414
5.97506
3.92487
2.69303
2.62029
3.39656
4.87016
3.18376
3.96852
5.99736
3.80213
2.77484
3.96115
2.61873
1.79798
1.74188
2.24995
3.20159
2.07318
2.52334
3.73524
2.30034
1.48792
1.413
1.77701
2.50518
1.59831
1.91213
2.81838
1.72765
1.16867
1.56541
0.956219
0.541075
0.446635
0.35824
0.331452
-0.0170562
-0.528308
-1.24343
-1.1612
-1.47058
-2.83736
-2.39622
-2.49469
-2.9887
-5.66554
-9.8411
-8.30453
-15.2642
-28.4859
-18.9506
-3.6129
-1.24082
-0.60581
-0.341145
-0.197924
-0.104674
-0.0328658
3.80391
4.32034
5.76701
10.3569
5.63736
3.75395
6.75254
3.89828
2.44877
2.4168
3.34691
5.46764
2.85235
3.89518
6.87838
3.74149
2.46379
4.42567
2.57326
1.61479
1.59115
2.20887
3.58849
1.85825
2.47568
4.28335
2.27293
1.33229
1.30008
1.74826
2.81633
1.44039
1.88202
3.24291
1.71347
1.04472
1.76436
0.961021
0.496429
0.45729
0.385209
0.436336
0.0611522
-0.478791
-1.36242
-1.06631
-1.28759
-3.12516
-2.26735
-2.26887
-2.47693
-5.47479
-10.8446
-7.13928
-15.3011
-33.9366
-21.1392
-1.51515
-0.422851
-0.201266
-0.112736
-0.0652797
-0.0344956
-0.0108284
)
;

boundaryField
{
    left
    {
        type            calculated;
        value           uniform 0;
    }
    right
    {
        type            calculated;
        value           uniform 0;
    }
    interface
    {
        type            calculated;
        value           nonuniform List<scalar> 
64
(
3.80391
4.32034
5.76701
10.3569
5.63736
3.75395
6.75254
3.89828
2.44877
2.4168
3.34691
5.46764
2.85235
3.89518
6.87838
3.74149
2.46379
4.42567
2.57326
1.61479
1.59115
2.20887
3.58849
1.85825
2.47568
4.28335
2.27293
1.33229
1.30008
1.74826
2.81633
1.44039
1.88202
3.24291
1.71347
1.04472
1.76436
0.961021
0.496429
0.45729
0.385209
0.436336
0.0611522
-0.478791
-1.36242
-1.06631
-1.28759
-3.12516
-2.26735
-2.26887
-2.47693
-5.47479
-10.8446
-7.13928
-15.3011
-33.9366
-21.1392
-1.51515
-0.422851
-0.201266
-0.112736
-0.0652797
-0.0344956
-0.0108284
)
;
    }
    bottom
    {
        type            calculated;
        value           nonuniform List<scalar> 
64
(
0.00630491
0.0187341
0.030638
0.0417192
0.0517485
0.0605768
0.0681335
0.0744165
0.0794755
0.0833933
0.0862697
0.0882091
0.0893134
0.0896795
0.0893997
0.0885633
0.0872571
0.0855646
0.0835636
0.0813226
0.0788974
0.0763287
0.0736413
0.0708454
0.0679387
0.0649092
0.0617372
0.0583972
0.0548583
0.0510845
0.0470357
0.0426681
0.0379365
0.0327963
0.0272058
0.0211271
0.0145283
0.00738299
-0.000328294
-0.00861721
-0.0174853
-0.0269202
-0.0368905
-0.0473389
-0.0581738
-0.0692603
-0.0804115
-0.0913801
-0.101855
-0.111463
-0.119781
-0.126359
-0.130753
-0.132569
-0.131511
-0.127416
-0.120277
-0.110247
-0.0976153
-0.0827649
-0.0661295
-0.0481502
-0.0292469
-0.0098074
)
;
    }
    defaultFaces
    {
        type            empty;
    }
}


// ************************************************************************* //
