/*--------------------------------*- C++ -*----------------------------------*\
| =========                 |                                                 |
| \\      /  F ield         | OpenFOAM: The Open Source CFD Toolbox           |
|  \\    /   O peration     | Version:  5.x                                   |
|   \\  /    A nd           | Web:      www.OpenFOAM.org                      |
|    \\/     M anipulation  |                                                 |
\*---------------------------------------------------------------------------*/
FoamFile
{
    version     2.0;
    format      ascii;
    class       volScalarField;
    location    "16";
    object      gradTy;
}
// * * * * * * * * * * * * * * * * * * * * * * * * * * * * * * * * * * * * * //

dimensions      [0 -1 0 1 0 0 0];

internalField   nonuniform List<scalar> 
2048
(
-26.4237
-26.3961
-26.3417
-26.2621
-26.1593
-26.0359
-25.8946
-25.7383
-25.5698
-25.3916
-25.2061
-25.0155
-24.8216
-24.6263
-24.4309
-24.2369
-24.0453
-23.857
-23.6728
-23.4933
-23.3189
-23.15
-22.9868
-22.8296
-22.6785
-22.5339
-22.396
-22.2652
-22.1419
-22.0264
-21.9194
-21.8215
-21.7335
-21.6561
-21.5904
-21.5373
-21.498
-21.4736
-21.4654
-21.4745
-21.5023
-21.5501
-21.6189
-21.7101
-21.8245
-21.9629
-22.1257
-22.3128
-22.5236
-22.7567
-23.0097
-23.2793
-23.5613
-23.8504
-24.1406
-24.4253
-24.6976
-24.9511
-25.1796
-25.3777
-25.5412
-25.6666
-25.7515
-25.7943
-26.446
-26.4178
-26.3621
-26.2808
-26.1759
-26.0503
-25.9068
-25.7482
-25.5776
-25.3975
-25.2102
-25.0181
-24.8228
-24.6263
-24.4299
-24.235
-24.0426
-23.8537
-23.669
-23.4892
-23.3145
-23.1453
-22.982
-22.8245
-22.6733
-22.5285
-22.3903
-22.2592
-22.1355
-22.0195
-21.912
-21.8135
-21.7248
-21.6467
-21.5802
-21.5262
-21.4859
-21.4606
-21.4513
-21.4594
-21.4862
-21.533
-21.6009
-21.6913
-21.8051
-21.9432
-22.106
-22.2937
-22.5056
-22.7406
-22.9962
-23.2693
-23.5556
-23.8496
-24.1451
-24.4352
-24.7129
-24.9713
-25.2041
-25.4058
-25.572
-25.6994
-25.7855
-25.829
-26.4887
-26.4592
-26.4012
-26.3165
-26.2076
-26.0777
-25.9297
-25.7669
-25.5923
-25.4085
-25.218
-25.0228
-24.825
-24.6262
-24.4278
-24.2311
-24.0374
-23.8473
-23.6618
-23.4813
-23.3061
-23.1365
-22.9728
-22.8151
-22.6635
-22.5182
-22.3796
-22.2478
-22.1234
-22.0066
-21.8981
-21.7985
-21.7085
-21.629
-21.5608
-21.5052
-21.4631
-21.4359
-21.4247
-21.4309
-21.4557
-21.5005
-21.5667
-21.6555
-21.7681
-21.9055
-22.0684
-22.257
-22.4711
-22.7095
-22.9701
-23.2498
-23.5442
-23.8476
-24.1534
-24.4541
-24.7421
-25.01
-25.251
-25.4595
-25.6309
-25.7619
-25.8504
-25.895
-26.55
-26.5186
-26.4569
-26.3673
-26.2526
-26.1163
-25.9619
-25.793
-25.6127
-25.4237
-25.2285
-25.0293
-24.8278
-24.6258
-24.4246
-24.2255
-24.0298
-23.8382
-23.6514
-23.47
-23.2942
-23.1241
-22.96
-22.8018
-22.6497
-22.5039
-22.3645
-22.232
-22.1065
-21.9886
-21.8787
-21.7775
-21.6857
-21.6041
-21.5337
-21.4757
-21.4311
-21.4012
-21.3872
-21.3906
-21.4126
-21.4548
-21.5184
-21.6049
-21.7157
-21.8519
-22.0146
-22.2044
-22.4212
-22.6643
-22.932
-23.2211
-23.5271
-23.8441
-24.1649
-24.481
-24.784
-25.0656
-25.3184
-25.5364
-25.7151
-25.8512
-25.9428
-25.9889
-26.6284
-26.5944
-26.528
-26.4317
-26.3093
-26.1646
-26.002
-25.8252
-25.6376
-25.4421
-25.2412
-25.0369
-24.8309
-24.6248
-24.4201
-24.2181
-24.0199
-23.8263
-23.6381
-23.4557
-23.2791
-23.1085
-22.9439
-22.7852
-22.6325
-22.486
-22.3458
-22.2122
-22.0856
-21.9663
-21.8547
-21.7515
-21.6573
-21.5732
-21.5
-21.4389
-21.3911
-21.3579
-21.3405
-21.3403
-21.3588
-21.3974
-21.4576
-21.5411
-21.6494
-21.7839
-21.9461
-22.1369
-22.3569
-22.6057
-22.882
-23.1829
-23.5039
-23.8385
-24.1787
-24.515
-24.8376
-25.137
-25.4049
-25.6349
-25.8224
-25.9647
-26.0601
-26.1079
-26.723
-26.6858
-26.6131
-26.5085
-26.3763
-26.2213
-26.0485
-25.8622
-25.666
-25.463
-25.2554
-25.0451
-24.8339
-24.6232
-24.4144
-24.2088
-24.0077
-23.8119
-23.6221
-23.4385
-23.2612
-23.0901
-22.925
-22.7658
-22.6125
-22.4652
-22.3241
-22.1894
-22.0614
-21.9404
-21.8268
-21.7213
-21.6245
-21.5373
-21.4607
-21.3961
-21.3445
-21.3073
-21.2858
-21.2814
-21.2956
-21.33
-21.3861
-21.4658
-21.5708
-21.703
-21.8641
-22.0556
-22.2787
-22.5338
-22.8199
-23.1348
-23.4738
-23.83
-24.1942
-24.5555
-24.9023
-25.2234
-25.5095
-25.7536
-25.9513
-26.1003
-26.1997
-26.2493
-26.8331
-26.7918
-26.7115
-26.5965
-26.4523
-26.285
-26.1002
-25.9028
-25.6969
-25.4853
-25.2703
-25.0536
-24.8365
-24.6205
-24.4071
-24.1976
-23.9933
-23.795
-23.6035
-23.4188
-23.2409
-23.0694
-22.9039
-22.7442
-22.5903
-22.4421
-22.2999
-22.164
-22.0345
-21.9117
-21.796
-21.6878
-21.5879
-21.4973
-21.4169
-21.3482
-21.2922
-21.2505
-21.2244
-21.2153
-21.2246
-21.254
-21.3053
-21.3803
-21.4813
-21.6102
-21.7695
-21.9611
-22.1871
-22.4485
-22.7455
-23.0761
-23.4359
-23.8176
-24.2106
-24.6019
-24.9777
-25.3246
-25.6317
-25.8916
-26.1003
-26.2562
-26.3595
-26.4108
-26.9584
-26.912
-26.8223
-26.6948
-26.5363
-26.3543
-26.1556
-25.9458
-25.7291
-25.5083
-25.2855
-25.0618
-24.8384
-24.6168
-24.3983
-24.1844
-23.9765
-23.7756
-23.5824
-23.3967
-23.2183
-23.0466
-22.8809
-22.7208
-22.5662
-22.4171
-22.2738
-22.1366
-22.0055
-21.8808
-21.7628
-21.6518
-21.5486
-21.454
-21.3694
-21.2961
-21.2354
-21.1888
-21.1575
-21.1431
-21.1469
-21.1707
-21.2164
-21.2861
-21.3821
-21.5069
-21.6634
-21.8543
-22.0824
-22.3499
-22.658
-23.0058
-23.3892
-23.8003
-24.227
-24.6539
-25.0637
-25.4404
-25.7713
-26.0484
-26.2683
-26.4307
-26.5374
-26.5901
-27.0986
-27.0461
-26.945
-26.8024
-26.627
-26.4281
-26.2136
-25.99
-25.7617
-25.5313
-25.3003
-25.0694
-24.8396
-24.6119
-24.3878
-24.1691
-23.9573
-23.7537
-23.5588
-23.3724
-23.1938
-23.0221
-22.8564
-22.696
-22.5407
-22.3906
-22.2462
-22.1076
-21.975
-21.8484
-21.7279
-21.6139
-21.507
-21.4083
-21.319
-21.2407
-21.1749
-21.1229
-21.0861
-21.0659
-21.0638
-21.0815
-21.1209
-21.1843
-21.2744
-21.3941
-21.5466
-21.7356
-21.9648
-22.2377
-22.557
-22.9229
-23.3323
-23.7768
-24.2427
-24.711
-25.1606
-25.5715
-25.9286
-26.2236
-26.4542
-26.6223
-26.7314
-26.7849
-27.254
-27.194
-27.0792
-26.9185
-26.7233
-26.5049
-26.2727
-26.0342
-25.7938
-25.5536
-25.3144
-25.0764
-24.8398
-24.6057
-24.3756
-24.1517
-23.9358
-23.7293
-23.5328
-23.346
-23.1676
-22.9963
-22.8308
-22.6701
-22.5142
-22.3631
-22.2174
-22.0774
-21.9433
-21.8149
-21.692
-21.5748
-21.464
-21.3607
-21.2664
-21.1828
-21.1114
-21.0537
-21.0111
-20.9848
-20.9763
-20.9873
-21.0198
-21.0763
-21.1596
-21.273
-21.4203
-21.6059
-21.8346
-22.1117
-22.4415
-22.8262
-23.2638
-23.7459
-24.2567
-24.7733
-25.2689
-25.7185
-26.1041
-26.4171
-26.6573
-26.8293
-26.9393
-26.9928
-27.4246
-27.3557
-27.2243
-27.0424
-26.8241
-26.5834
-26.3317
-26.0772
-25.8243
-25.5745
-25.3275
-25.0825
-24.8391
-24.5983
-24.3617
-24.132
-23.9116
-23.7023
-23.5044
-23.3176
-23.1399
-22.9695
-22.8045
-22.6437
-22.487
-22.3347
-22.1877
-22.0465
-21.911
-21.7808
-21.6555
-21.535
-21.4201
-21.3119
-21.2121
-21.1228
-21.0456
-20.982
-20.9333
-20.9007
-20.8854
-20.8892
-20.9142
-20.963
-21.0386
-21.1446
-21.2853
-21.4659
-21.6924
-21.9717
-22.3107
-22.7142
-23.1818
-23.7057
-24.2679
-24.8405
-25.3894
-25.8827
-26.2986
-26.6291
-26.8768
-27.0502
-27.1592
-27.2115
-27.6111
-27.5313
-27.3803
-27.1731
-26.928
-26.6621
-26.3891
-26.1178
-25.8525
-25.5937
-25.3394
-25.0877
-24.8376
-24.5897
-24.3461
-24.1101
-23.8848
-23.6725
-23.4736
-23.2873
-23.1111
-22.9421
-22.7779
-22.617
-22.4595
-22.3058
-22.1574
-22.0149
-21.8782
-21.7466
-21.6189
-21.4951
-21.3758
-21.2623
-21.1567
-21.0613
-20.9781
-20.9084
-20.8535
-20.8143
-20.7921
-20.7883
-20.8052
-20.8455
-20.9126
-21.0101
-21.1428
-21.3164
-21.5385
-21.8178
-22.164
-22.5854
-23.0845
-23.6545
-24.2753
-24.9128
-25.5235
-26.0657
-26.5135
-26.8597
-27.1117
-27.2833
-27.3885
-27.4383
-27.8141
-27.7212
-27.5467
-27.3099
-27.0338
-26.7397
-26.4435
-26.1548
-25.8775
-25.6105
-25.35
-25.0923
-24.8355
-24.5802
-24.3289
-24.0858
-23.8552
-23.6399
-23.4403
-23.2551
-23.0812
-22.9144
-22.7513
-22.5905
-22.4319
-22.2766
-22.1265
-21.9829
-21.8454
-21.7125
-21.5828
-21.4556
-21.3316
-21.2124
-21.1006
-20.9988
-20.9093
-20.8334
-20.7722
-20.7265
-20.6971
-20.6854
-20.6937
-20.725
-20.7827
-20.8706
-20.9938
-21.1586
-21.3736
-21.6498
-22.0006
-22.4383
-22.9697
-23.5898
-24.2771
-24.9903
-25.6727
-26.2699
-26.7502
-27.1094
-27.3613
-27.5266
-27.625
-27.6706
-28.0344
-27.9258
-27.7235
-27.4518
-27.14
-26.8146
-26.4935
-26.187
-25.8985
-25.6248
-25.3594
-25.0963
-24.833
-24.57
-24.31
-24.059
-23.8227
-23.6042
-23.4043
-23.2213
-23.0506
-22.8868
-22.7254
-22.5646
-22.4046
-22.2472
-22.0952
-21.9506
-21.8127
-21.6791
-21.5475
-21.4169
-21.288
-21.1626
-21.044
-20.9356
-20.8396
-20.7575
-20.6902
-20.638
-20.6012
-20.5813
-20.5806
-20.6022
-20.6499
-20.7273
-20.8395
-20.9934
-21.1986
-21.4682
-21.8197
-22.2712
-22.8349
-23.5091
-24.2716
-25.0731
-25.8394
-26.498
-27.0108
-27.3784
-27.6243
-27.7783
-27.8662
-27.9057
-28.273
-28.1458
-27.9104
-27.5978
-27.2452
-26.8851
-26.5375
-26.2131
-25.9148
-25.6363
-25.3677
-25.1002
-24.8306
-24.5594
-24.2897
-24.0296
-23.7869
-23.5653
-23.3656
-23.1857
-23.0196
-22.8597
-22.7003
-22.5395
-22.3779
-22.2177
-22.0633
-21.9179
-21.7803
-21.6467
-21.5134
-21.3794
-21.2453
-21.1132
-20.9873
-20.8719
-20.7694
-20.6812
-20.6079
-20.5492
-20.5052
-20.4768
-20.4666
-20.4781
-20.5152
-20.5812
-20.6812
-20.8223
-21.0146
-21.2734
-21.621
-22.0824
-22.6774
-23.4092
-24.2563
-25.1614
-26.0266
-26.7537
-27.2974
-27.667
-27.8997
-28.0362
-28.1094
-28.1408
-28.5312
-28.3816
-28.1074
-27.7469
-27.3476
-26.9496
-26.5741
-26.232
-25.9257
-25.645
-25.3754
-25.1044
-24.8287
-24.5489
-24.2681
-23.9973
-23.7478
-23.5229
-23.3238
-23.1484
-22.9884
-22.8338
-22.6767
-22.5157
-22.352
-22.1881
-22.0307
-21.8848
-21.7484
-21.6156
-21.481
-21.3436
-21.2041
-21.0646
-20.9306
-20.8079
-20.6989
-20.6046
-20.5256
-20.461
-20.4097
-20.3725
-20.3524
-20.3535
-20.3794
-20.4336
-20.5201
-20.6464
-20.8229
-21.0661
-21.4041
-21.8705
-22.4947
-23.2865
-24.228
-25.2552
-26.2381
-27.0414
-27.6124
-27.9754
-28.1857
-28.2977
-28.3518
-28.373
-28.8104
-28.6339
-28.3145
-27.8979
-27.4453
-27.0066
-26.6019
-26.2424
-25.9306
-25.651
-25.3829
-25.1095
-24.8278
-24.539
-24.2452
-23.962
-23.705
-23.4769
-23.2788
-23.1095
-22.9575
-22.8095
-22.655
-22.4936
-22.3273
-22.1584
-21.997
-21.8511
-21.7171
-21.5862
-21.4507
-21.3097
-21.1647
-21.0168
-20.8739
-20.7439
-20.6283
-20.5281
-20.4439
-20.3736
-20.3153
-20.2692
-20.2387
-20.2288
-20.2436
-20.2853
-20.3573
-20.4674
-20.6251
-20.8474
-21.1689
-21.6337
-22.2839
-23.137
-24.1826
-25.3545
-26.479
-27.3665
-27.9586
-28.3032
-28.4805
-28.5604
-28.5909
-28.5998
-29.1122
-28.9035
-28.5316
-28.0495
-27.536
-27.0543
-26.6197
-26.243
-25.929
-25.6544
-25.3913
-25.1159
-24.8282
-24.5306
-24.2213
-23.9229
-23.6584
-23.427
-23.2302
-23.0688
-22.9271
-22.7875
-22.6356
-22.4733
-22.3041
-22.1286
-21.9618
-21.8166
-21.6865
-21.559
-21.4227
-21.2782
-21.1275
-20.9702
-20.8172
-20.6797
-20.5577
-20.4518
-20.363
-20.2877
-20.2226
-20.1672
-20.1258
-20.1047
-20.1083
-20.1375
-20.1942
-20.2869
-20.4232
-20.6187
-20.9158
-21.3707
-22.0423
-22.9561
-24.1144
-25.4588
-26.7559
-27.7355
-28.3385
-28.6498
-28.7817
-28.8214
-28.8237
-28.8185
-29.4385
-29.1907
-28.7591
-28.2002
-27.617
-27.0915
-26.6262
-26.2323
-25.9203
-25.6555
-25.4014
-25.1243
-24.8305
-24.5245
-24.1964
-23.8795
-23.6079
-23.3729
-23.1772
-23.0263
-22.8977
-22.7686
-22.6189
-22.4552
-22.2831
-22.0985
-21.9242
-21.7809
-21.6568
-21.5346
-21.3974
-21.2492
-21.0932
-20.9248
-20.7602
-20.6156
-20.4872
-20.3757
-20.2833
-20.2037
-20.1323
-20.0671
-20.0143
-19.9816
-19.9743
-19.9912
-20.0316
-20.1063
-20.2193
-20.3816
-20.6452
-21.0802
-21.7675
-22.7391
-24.0158
-25.5672
-27.0779
-28.1563
-28.7543
-29.0136
-29.0865
-29.0779
-29.0479
-29.0267
-29.7913
-29.4957
-28.9978
-28.3483
-27.6851
-27.1171
-26.6206
-26.2085
-25.9042
-25.6549
-25.4149
-25.135
-24.8347
-24.5224
-24.1707
-23.8306
-23.5535
-23.3148
-23.1193
-22.982
-22.8696
-22.754
-22.6053
-22.4393
-22.265
-22.068
-21.8832
-21.7437
-21.6281
-21.5137
-21.375
-21.2227
-21.0623
-20.8807
-20.7024
-20.5516
-20.4171
-20.2998
-20.2049
-20.1219
-20.0448
-19.9694
-19.9042
-19.8597
-19.8422
-19.8474
-19.8705
-19.9272
-20.0162
-20.1381
-20.3581
-20.7607
-21.4579
-22.4813
-23.8764
-25.6775
-27.4568
-28.6377
-29.2079
-29.3923
-29.3914
-29.3268
-29.2608
-29.2223
-30.1732
-29.8179
-29.2488
-28.492
-27.7359
-27.1308
-26.6026
-26.1696
-25.8805
-25.6529
-25.4337
-25.1484
-24.8405
-24.5263
-24.1444
-23.7744
-23.4957
-23.2527
-23.0551
-22.9359
-22.8433
-22.745
-22.5949
-22.4253
-22.2511
-22.037
-21.8372
-21.7045
-21.6005
-21.4974
-21.3557
-21.1986
-21.0361
-20.8381
-20.643
-20.4879
-20.3475
-20.2238
-20.1281
-20.0429
-19.9609
-19.8744
-19.7959
-19.739
-19.7124
-19.7072
-19.7114
-19.7511
-19.8168
-19.8903
-20.056
-20.4108
-21.1126
-22.1788
-23.6822
-25.7865
-27.9091
-29.19
-29.6999
-29.7826
-29.6928
-29.565
-29.4603
-29.4037
-30.5874
-30.1556
-29.5146
-28.6295
-27.7639
-27.1333
-26.5722
-26.1127
-25.8494
-25.6497
-25.4607
-25.1643
-24.8469
-24.5393
-24.1176
-23.7081
-23.4355
-23.1871
-22.9829
-22.8881
-22.8189
-22.7434
-22.5876
-22.4126
-22.2434
-22.0053
-21.7841
-21.663
-21.574
-21.4872
-21.3394
-21.1764
-21.0158
-20.797
-20.5807
-20.4249
-20.2786
-20.1473
-20.0532
-19.9669
-19.8812
-19.7824
-19.6893
-19.6195
-19.5853
-19.5718
-19.5543
-19.5791
-19.6251
-19.6406
-19.741
-20.0283
-20.7321
-21.8291
-23.4141
-25.8883
-28.4571
-29.8243
-30.2293
-30.1797
-29.9863
-29.7898
-29.6445
-29.5693
-31.038
-30.505
-29.7996
-28.7585
-27.7611
-27.1269
-26.5304
-26.0335
-25.8116
-25.6454
-25.5001
-25.1822
-24.8519
-24.566
-24.0904
-23.6275
-23.3748
-23.1187
-22.9002
-22.8392
-22.7963
-22.7521
-22.5831
-22.3997
-22.2445
-21.973
-21.7208
-21.6193
-21.5484
-21.485
-21.3258
-21.1549
-21.0036
-20.7574
-20.5136
-20.3635
-20.2109
-20.0694
-19.9806
-19.8941
-19.8067
-19.6938
-19.5845
-19.5006
-19.4611
-19.4427
-19.3988
-19.4118
-19.4454
-19.3911
-19.416
-19.6101
-20.3186
-21.4331
-23.0461
-25.974
-29.1321
-30.5521
-30.7931
-30.5777
-30.2675
-29.9982
-29.8119
-29.7182
-31.5302
-30.8593
-30.1107
-28.8769
-27.7168
-27.1162
-26.4788
-25.9263
-25.769
-25.639
-25.5575
-25.2008
-24.8517
-24.6132
-24.063
-23.5264
-23.3172
-23.049
-22.8031
-22.7903
-22.775
-22.7746
-22.5805
-22.3842
-22.259
-21.9399
-21.643
-21.5741
-21.5231
-21.494
-21.3141
-21.1321
-21.003
-20.7192
-20.4387
-20.305
-20.1448
-19.9889
-19.9109
-19.8246
-19.7384
-19.6086
-19.4813
-19.3819
-19.34
-19.3222
-19.2435
-19.2496
-19.2837
-19.1434
-19.0856
-19.1509
-19.8762
-20.9967
-22.5434
-26.0297
-29.9771
-31.3839
-31.3851
-30.9695
-30.5318
-30.1881
-29.9613
-29.8498
-32.0715
-31.2066
-30.459
-28.9824
-27.6159
-27.1097
-26.4204
-25.7822
-25.7252
-25.6278
-25.6412
-25.2179
-24.84
-24.691
-24.0354
-23.3954
-23.2681
-22.9799
-22.6858
-22.7439
-22.7532
-22.8166
-22.5783
-22.362
-22.2931
-21.9059
-21.5448
-21.529
-21.4968
-21.5185
-21.3032
-21.1049
-21.0185
-20.6824
-20.3517
-20.2519
-20.0812
-19.9038
-19.8451
-19.7582
-19.6776
-19.5268
-19.3797
-19.2624
-19.2216
-19.2133
-19.0862
-19.0915
-19.1472
-18.8977
-18.7566
-18.6424
-19.4112
-20.534
-21.8591
-26.0349
-31.0517
-32.3275
-31.9955
-31.3467
-30.7747
-30.3574
-30.092
-29.9639
-32.6723
-31.5279
-30.8621
-29.0727
-27.4369
-27.1208
-26.3596
-25.5887
-25.6871
-25.6065
-25.763
-25.2299
-24.807
-24.8138
-24.0075
-23.221
-23.2366
-22.9144
-22.54
-22.7041
-22.7272
-22.8856
-22.5742
-22.3267
-22.3562
-21.8709
-21.4178
-21.4875
-21.4666
-21.5648
-21.2913
-21.0682
-21.0573
-20.6467
-20.2464
-20.2079
-20.021
-19.811
-19.7849
-19.694
-19.6263
-19.4483
-19.2798
-19.1407
-19.1053
-19.1205
-18.9231
-18.9355
-19.0459
-18.6525
-18.439
-18.0713
-18.9322
-20.0713
-20.9312
-25.9594
-32.4383
-33.3852
-32.6102
-31.7002
-30.9921
-30.5046
-30.2038
-30.0607
-33.3475
-31.7937
-31.346
-29.1456
-27.15
-27.1702
-26.3021
-25.3275
-25.6662
-25.5656
-25.9401
-25.2318
-24.7379
-25.0026
-23.9791
-22.984
-23.2359
-22.8563
-22.3534
-22.6784
-22.6908
-22.9929
-22.5647
-22.2688
-22.4616
-21.8347
-21.2506
-21.4559
-21.4275
-21.6417
-21.2757
-21.0146
-21.1295
-20.6117
-20.1141
-20.1787
-19.9655
-19.7061
-19.733
-19.6307
-19.5869
-19.3724
-19.1816
-19.0153
-18.9897
-19.0504
-18.7487
-18.7778
-18.9932
-18.4023
-18.1486
-17.4173
-18.4494
-19.6523
-19.678
-25.7604
-34.2497
-34.5488
-33.2104
-32.0206
-31.1807
-30.629
-30.2967
-30.1406
-34.1181
-31.9599
-31.9491
-29.1989
-26.714
-27.2884
-26.2555
-24.9725
-25.6812
-25.4885
-26.1961
-25.2166
-24.6112
-25.2864
-23.9497
-22.6575
-23.2858
-22.8108
-22.1088
-22.6788
-22.633
-23.1541
-22.5452
-22.1743
-22.6281
-21.7967
-21.0277
-21.4445
-21.3711
-21.762
-21.2526
-20.9334
-21.2493
-20.5766
-19.9426
-20.1731
-19.9162
-19.583
-19.6937
-19.5655
-19.5629
-19.298
-19.0858
-18.8841
-18.8723
-19.0124
-18.5555
-18.6121
-19.0075
-18.1361
-17.9088
-16.6503
-17.9737
-19.3447
-17.9936
-25.3774
-36.6389
-35.7945
-33.773
-32.299
-31.3379
-30.7303
-30.3714
-30.2044
-35.0134
-31.9619
-32.7267
-29.2303
-26.0728
-27.5189
-26.2293
-24.4869
-25.7613
-25.3492
-26.5647
-25.1747
-24.3963
-25.7051
-23.9184
-22.2046
-23.4143
-22.7839
-21.7817
-22.7244
-22.5365
-23.3912
-22.5092
-22.0236
-22.8815
-21.7558
-20.7277
-21.4696
-21.2836
-21.9433
-21.2168
-20.8095
-21.4363
-20.5404
-19.7153
-20.2035
-19.8747
-19.4327
-19.6736
-19.4941
-19.5592
-19.2231
-18.9934
-18.7448
-18.749
-19.0198
-18.3331
-18.429
-19.114
-17.8347
-17.7547
-15.7276
-17.5151
-19.249
-15.7415
-24.7272
-39.8119
-37.074
-34.2712
-32.5276
-31.4621
-30.8087
-30.4287
-30.2531
-36.0746
-31.7088
-33.7558
-29.2375
-25.1509
-27.9224
-26.2346
-23.8204
-25.9506
-25.1073
-27.0919
-25.0937
-24.051
-26.3132
-23.8836
-21.5755
-23.6605
-22.7833
-21.3388
-22.8438
-22.3749
-23.7346
-22.4483
-21.7895
-23.2569
-21.7103
-20.3225
-21.5561
-21.1439
-22.2099
-21.1615
-20.6218
-21.7174
-20.5011
-19.4099
-20.2874
-19.8428
-19.2433
-19.6825
-19.4095
-19.5825
-19.1444
-18.9063
-18.5947
-18.6133
-19.0911
-18.068
-18.2146
-19.3476
-17.4664
-17.7375
-14.5893
-17.0801
-19.5075
-12.7492
-23.6967
-44.042
-38.3043
-34.6768
-32.7005
-31.5531
-30.8653
-30.4697
-30.2878
-37.3573
-31.0742
-35.1425
-29.2179
-23.8487
-28.5815
-26.2843
-22.9044
-26.3136
-24.7031
-27.8403
-24.9578
-23.5184
-27.1824
-23.843
-20.7047
-24.0777
-22.8178
-20.7347
-23.0789
-22.1088
-24.2255
-22.3519
-21.4354
-23.8006
-21.6573
-19.7745
-21.7399
-20.9205
-22.595
-21.0779
-20.3423
-22.128
-20.456
-18.9974
-20.4487
-19.8219
-18.9986
-19.7346
-19.3013
-19.6425
-19.0571
-18.8276
-18.431
-18.4555
-19.2514
-17.7428
-17.9492
-19.7558
-16.9828
-17.9303
-13.155
-16.6683
-20.3165
-8.80044
-22.1351
-49.6878
-39.3541
-34.9634
-32.8148
-31.6118
-30.9014
-30.4956
-30.3097
-38.9366
-29.8875
-37.0288
-29.1677
-22.0364
-29.6054
-26.3923
-21.6473
-26.9413
-24.0506
-28.8932
-24.7467
-22.7229
-28.4065
-23.7927
-19.506
-24.7356
-22.8962
-19.9076
-23.4882
-21.6805
-24.9175
-22.2055
-20.913
-24.5739
-21.5917
-19.0328
-22.0696
-20.5653
-23.1403
-20.9529
-19.9332
-22.7143
-20.4006
-18.439
-20.7189
-19.8124
-18.677
-19.8497
-19.1545
-19.7516
-18.9533
-18.7613
-18.2502
-18.2612
-19.5336
-17.3354
-17.6057
-20.4026
-16.3119
-18.4346
-11.3179
-16.267
-21.9391
-3.62831
-19.8443
-57.2131
-40.0277
-35.1112
-32.8707
-31.6399
-30.9186
-30.508
-30.32
)
;

boundaryField
{
    left
    {
        type            calculated;
        value           nonuniform List<scalar> 
32
(
-26.4237
-26.446
-26.4887
-26.55
-26.6284
-26.723
-26.8331
-26.9584
-27.0986
-27.254
-27.4246
-27.6111
-27.8141
-28.0344
-28.273
-28.5312
-28.8104
-29.1122
-29.4385
-29.7913
-30.1732
-30.5874
-31.038
-31.5302
-32.0715
-32.6723
-33.3475
-34.1181
-35.0134
-36.0746
-37.3573
-38.9366
)
;
    }
    right
    {
        type            calculated;
        value           nonuniform List<scalar> 
32
(
-25.7943
-25.829
-25.895
-25.9889
-26.1079
-26.2493
-26.4108
-26.5901
-26.7849
-26.9928
-27.2115
-27.4383
-27.6706
-27.9057
-28.1408
-28.373
-28.5998
-28.8185
-29.0267
-29.2223
-29.4037
-29.5693
-29.7182
-29.8498
-29.9639
-30.0607
-30.1406
-30.2044
-30.2531
-30.2878
-30.3097
-30.32
)
;
    }
    interface
    {
        type            calculated;
        value           nonuniform List<scalar> 
64
(
-39.8111
-29.1317
-38.1172
-29.1345
-20.9845
-30.2242
-26.4627
-20.9204
-27.3346
-23.6496
-29.5076
-24.6195
-22.2488
-29.1204
-23.7646
-18.8125
-25.1346
-22.9475
-19.4294
-23.7448
-21.4173
-25.3213
-22.1178
-20.6028
-25.0265
-21.5549
-18.6061
-22.2777
-20.3475
-23.4586
-20.8782
-19.6908
-23.0578
-20.3696
-18.1178
-20.8855
-19.8105
-18.4938
-19.9259
-19.0692
-19.8203
-18.8962
-18.7317
-18.155
-18.1526
-19.7099
-17.108
-17.4104
-20.7948
-15.919
-18.7793
-10.2835
-16.0665
-22.9912
-0.699623
-18.4886
-61.5108
-40.2414
-35.1485
-32.8842
-31.6467
-30.9227
-30.5109
-30.3225
)
;
    }
    bottom
    {
        type            calculated;
        value           nonuniform List<scalar> 
64
(
-26.4179
-26.3905
-26.3364
-26.2572
-26.1549
-26.0321
-25.8914
-25.7357
-25.5677
-25.39
-25.205
-25.0148
-24.8213
-24.6263
-24.4312
-24.2374
-24.046
-23.8579
-23.6738
-23.4944
-23.3201
-23.1512
-22.988
-22.8309
-22.6799
-22.5353
-22.3975
-22.2668
-22.1435
-22.0282
-21.9213
-21.8236
-21.7357
-21.6586
-21.5931
-21.5402
-21.5012
-21.477
-21.4691
-21.4785
-21.5065
-21.5545
-21.6236
-21.715
-21.8295
-21.968
-22.1308
-22.3178
-22.5283
-22.7609
-23.0131
-23.2819
-23.5628
-23.8506
-24.1394
-24.4227
-24.6937
-24.9458
-25.1732
-25.3704
-25.5332
-25.6581
-25.7427
-25.7853
)
;
    }
    defaultFaces
    {
        type            empty;
    }
}


// ************************************************************************* //
