/*--------------------------------*- C++ -*----------------------------------*\
| =========                 |                                                 |
| \\      /  F ield         | OpenFOAM: The Open Source CFD Toolbox           |
|  \\    /   O peration     | Version:  5.x                                   |
|   \\  /    A nd           | Web:      www.OpenFOAM.org                      |
|    \\/     M anipulation  |                                                 |
\*---------------------------------------------------------------------------*/
FoamFile
{
    version     2.0;
    format      ascii;
    class       volScalarField;
    location    "16";
    object      T;
}
// * * * * * * * * * * * * * * * * * * * * * * * * * * * * * * * * * * * * * //

dimensions      [0 0 0 1 0 0 0];

internalField   nonuniform List<scalar> 
2048
(
9.81021
9.8104
9.81079
9.81136
9.8121
9.81298
9.81399
9.81511
9.81631
9.81759
9.81892
9.82029
9.82168
9.82308
9.82448
9.82587
9.82725
9.8286
9.82992
9.83121
9.83246
9.83368
9.83485
9.83598
9.83706
9.8381
9.83909
9.84003
9.84091
9.84174
9.84251
9.84321
9.84384
9.8444
9.84487
9.84525
9.84553
9.8457
9.84576
9.84569
9.84549
9.84515
9.84465
9.84399
9.84317
9.84218
9.84101
9.83966
9.83815
9.83648
9.83467
9.83274
9.83072
9.82865
9.82658
9.82454
9.82259
9.82078
9.81915
9.81773
9.81656
9.81567
9.81506
9.81475
9.43876
9.43935
9.4405
9.4422
9.44438
9.44701
9.45001
9.45334
9.45692
9.46071
9.46465
9.4687
9.47282
9.47697
9.48112
9.48525
9.48932
9.49332
9.49723
9.50104
9.50475
9.50833
9.5118
9.51514
9.51835
9.52142
9.52435
9.52713
9.52975
9.5322
9.53448
9.53656
9.53843
9.54007
9.54147
9.5426
9.54343
9.54395
9.54413
9.54394
9.54335
9.54234
9.54088
9.53894
9.53651
9.53357
9.53012
9.52614
9.52166
9.51671
9.51133
9.5056
9.4996
9.49345
9.48728
9.48122
9.47543
9.47004
9.46518
9.46096
9.45748
9.45482
9.45301
9.4521
9.08311
9.08408
9.086
9.0888
9.09242
9.09676
9.10171
9.10719
9.11309
9.11932
9.12579
9.13244
9.1392
9.146
9.1528
9.15955
9.16622
9.17276
9.17916
9.1854
9.19145
9.19731
9.20298
9.20844
9.21368
9.2187
9.22349
9.22803
9.23232
9.23633
9.24006
9.24347
9.24654
9.24924
9.25154
9.2534
9.25479
9.25566
9.25597
9.25568
9.25474
9.25311
9.25075
9.2476
9.24365
9.23886
9.23321
9.22671
9.21937
9.21124
9.2024
9.19297
9.18308
9.17293
9.16273
9.15272
9.14314
9.13423
9.1262
9.11924
9.1135
9.1091
9.10612
9.10462
8.74234
8.74371
8.74639
8.75031
8.75535
8.76139
8.76829
8.77589
8.78406
8.79268
8.80163
8.81081
8.82013
8.82951
8.83888
8.84817
8.85733
8.86633
8.87512
8.88368
8.89199
8.90003
8.90781
8.91529
8.92249
8.92938
8.93595
8.94219
8.94809
8.95361
8.95873
8.96343
8.96767
8.9714
8.97459
8.97718
8.97913
8.98036
8.98083
8.98048
8.97923
8.97704
8.97384
8.96957
8.96418
8.95763
8.94989
8.94095
8.93085
8.91963
8.9074
8.89432
8.88058
8.86646
8.85225
8.83829
8.82493
8.8125
8.8013
8.79161
8.78363
8.77752
8.77339
8.77131
8.41562
8.41738
8.42084
8.4259
8.4324
8.44016
8.44899
8.45872
8.46915
8.48012
8.4915
8.50316
8.51498
8.52687
8.53872
8.55048
8.56207
8.57343
8.58452
8.59532
8.60579
8.61593
8.62572
8.63515
8.64422
8.65291
8.6612
8.66908
8.67652
8.6835
8.68998
8.69594
8.70131
8.70607
8.71014
8.71346
8.71596
8.71759
8.71825
8.71787
8.71638
8.71369
8.70972
8.7044
8.69767
8.68945
8.67971
8.66844
8.65565
8.64141
8.62584
8.60914
8.59156
8.57344
8.55519
8.53724
8.52004
8.50405
8.48967
8.47723
8.467
8.45918
8.45391
8.45125
8.10216
8.10434
8.10862
8.11485
8.12284
8.13235
8.14315
8.155
8.16768
8.181
8.19478
8.20887
8.22314
8.23747
8.25176
8.26591
8.27984
8.29349
8.3068
8.31975
8.3323
8.34445
8.35618
8.36748
8.37835
8.38876
8.3987
8.40816
8.41709
8.42548
8.43329
8.44047
8.44697
8.45273
8.45768
8.46173
8.46482
8.46686
8.46775
8.46739
8.46571
8.46258
8.45793
8.45166
8.44366
8.43387
8.42223
8.40871
8.39332
8.37612
8.35725
8.33694
8.31549
8.29333
8.27094
8.24891
8.22779
8.20817
8.19054
8.17532
8.16283
8.1533
8.14688
8.14365
7.80126
7.80388
7.80901
7.81647
7.82601
7.83733
7.85013
7.86413
7.87907
7.89472
7.91087
7.92736
7.94403
7.96076
7.97742
7.9939
8.01011
8.02597
8.04143
8.05644
8.07099
8.08507
8.09865
8.11175
8.12434
8.13641
8.14794
8.15892
8.1693
8.17906
8.18816
8.19654
8.20414
8.2109
8.21673
8.22153
8.22523
8.2277
8.22886
8.22858
8.22676
8.22328
8.21802
8.21087
8.20171
8.19046
8.17702
8.16134
8.14342
8.12332
8.10118
8.07724
8.05187
8.02557
7.99895
7.9727
7.94754
7.92417
7.90322
7.88517
7.8704
7.85916
7.85159
7.8478
7.51226
7.51534
7.52138
7.53014
7.5413
7.55449
7.56935
7.58553
7.60274
7.62071
7.63921
7.65806
7.67711
7.69618
7.71516
7.73391
7.75234
7.77034
7.78787
7.80487
7.82134
7.83726
7.85263
7.86744
7.88169
7.89536
7.90842
7.92087
7.93265
7.94374
7.95409
7.96365
7.97234
7.98009
7.98681
7.99238
7.99669
7.99964
8.0011
8.00095
7.99906
7.99529
7.98951
7.98158
7.97137
7.95874
7.9436
7.92587
7.90551
7.88256
7.85717
7.82959
7.80023
7.76969
7.73867
7.70804
7.67867
7.65143
7.62705
7.60612
7.58905
7.57609
7.5674
7.56304
7.23453
7.23812
7.24513
7.25527
7.26813
7.28328
7.30026
7.31867
7.33816
7.35844
7.37928
7.40047
7.42184
7.44322
7.46447
7.48545
7.50603
7.52611
7.54563
7.56455
7.58285
7.60053
7.6176
7.63406
7.6499
7.66511
7.67966
7.69352
7.70666
7.71904
7.73061
7.74133
7.7511
7.75984
7.76745
7.7738
7.77876
7.78222
7.78403
7.78405
7.78215
7.77817
7.77195
7.76333
7.75216
7.73828
7.72154
7.70185
7.67914
7.65341
7.6248
7.59355
7.56013
7.5252
7.48961
7.45439
7.42063
7.38935
7.36144
7.33757
7.31818
7.30353
7.29372
7.28881
6.96749
6.97163
6.9797
6.99132
7.006
7.02319
7.04235
7.06303
7.08483
7.10742
7.13057
7.15406
7.17772
7.20138
7.22486
7.24801
7.27069
7.29278
7.31423
7.33498
7.35504
7.37441
7.39311
7.41114
7.42852
7.4452
7.46117
7.4764
7.49085
7.50449
7.51726
7.52911
7.53995
7.54969
7.55819
7.56533
7.57097
7.57497
7.57717
7.57742
7.57557
7.57144
7.56487
7.55566
7.54363
7.5286
7.51039
7.48886
7.46389
7.43546
7.40365
7.36872
7.33114
7.29166
7.25129
7.21125
7.17286
7.13736
7.10581
7.07895
7.05725
7.04092
7.03003
7.0246
6.7106
6.71534
6.72456
6.73779
6.7544
6.77374
6.79517
6.81817
6.84228
6.86717
6.89261
6.91837
6.94429
6.97017
6.99585
7.02113
7.04585
7.06991
7.0932
7.11571
7.13744
7.15842
7.17867
7.19822
7.21706
7.23517
7.25252
7.26907
7.28479
7.29964
7.31358
7.32654
7.33844
7.34917
7.35859
7.36654
7.37288
7.37744
7.38007
7.3806
7.37886
7.37466
7.36782
7.35811
7.34534
7.32927
7.30971
7.28645
7.25934
7.22829
7.19333
7.15469
7.11287
7.06867
7.02328
6.97814
6.93485
6.89494
6.85963
6.82974
6.80574
6.78778
6.77586
6.76992
6.46334
6.46875
6.47923
6.49419
6.51288
6.53449
6.55828
6.58363
6.61007
6.63725
6.66494
6.69294
6.72107
6.74915
6.77698
6.80435
6.83108
6.85703
6.88211
6.9063
6.92962
6.95212
6.97386
6.99485
7.0151
7.03459
7.05326
7.07109
7.08803
7.10406
7.11913
7.13319
7.14615
7.15787
7.16821
7.17699
7.18405
7.18921
7.19231
7.19316
7.19158
7.18739
7.18035
7.17025
7.15683
7.13985
7.11905
7.09419
7.06506
7.0315
6.99345
6.95111
6.90494
6.85584
6.80515
6.75459
6.70612
6.66156
6.62237
6.58944
6.56318
6.54366
6.53078
6.52438
6.22523
6.23137
6.24324
6.2601
6.28102
6.30502
6.33126
6.35902
6.38779
6.41723
6.44714
6.47732
6.50764
6.53788
6.56783
6.59726
6.62595
6.65373
6.68052
6.70631
6.73114
6.75509
6.77823
6.8006
6.82221
6.84302
6.86298
6.88204
6.90016
6.91732
6.9335
6.94864
6.96264
6.97537
6.98664
6.99627
7.00407
7.00985
7.01345
7.01466
7.01331
7.00918
7.00203
6.99162
6.97766
6.95988
6.93798
6.91167
6.88065
6.84469
6.80365
6.75761
6.70701
6.65281
6.59651
6.54018
6.48617
6.43674
6.39356
6.35759
6.32915
6.30818
6.29441
6.28759
5.99579
6.00275
6.01616
6.0351
6.05842
6.08497
6.11373
6.14394
6.17504
6.20671
6.23877
6.2711
6.30355
6.33592
6.36798
6.39943
6.43004
6.4596
6.48804
6.51534
6.54159
6.5669
6.59137
6.61507
6.63799
6.66008
6.68128
6.70152
6.72077
6.73903
6.75629
6.77249
6.78753
6.80125
6.81347
6.82396
6.83253
6.83896
6.84308
6.8447
6.84362
6.83962
6.83244
6.82181
6.80742
6.78895
6.76609
6.73846
6.70571
6.6675
6.62356
6.57386
6.51876
6.45925
6.39701
6.33448
6.27455
6.21997
6.17271
6.13375
6.10325
6.08095
6.0664
6.05924
5.77458
5.78247
5.79759
5.81881
5.84473
5.87396
5.90535
5.93803
5.97144
6.00529
6.03946
6.07387
6.10842
6.14288
6.17702
6.21048
6.24296
6.27426
6.30427
6.333
6.36057
6.38715
6.41289
6.43785
6.46203
6.48537
6.50777
6.52915
6.54949
6.5688
6.5871
6.60434
6.62041
6.63514
6.64832
6.65969
6.66903
6.67614
6.68081
6.68287
6.6821
6.67829
6.67116
6.66039
6.64567
6.62664
6.60294
6.57415
6.53983
6.49953
6.45284
6.39954
6.33989
6.27486
6.20632
6.13711
6.0708
6.01079
5.95938
5.9175
5.88511
5.86165
5.84647
5.83902
5.56119
5.57011
5.58713
5.61086
5.6396
5.67167
5.70578
5.74096
5.77665
5.8126
5.84879
5.88524
5.92183
5.95837
5.99456
6.03002
6.06435
6.09733
6.12883
6.1589
6.1877
6.21547
6.24239
6.26856
6.29396
6.31852
6.34209
6.36457
6.38593
6.40625
6.42555
6.44381
6.46091
6.47667
6.49082
6.50308
6.51322
6.52101
6.52626
6.52878
6.52837
6.52481
6.51779
6.50697
6.49201
6.47253
6.44812
6.41833
6.38262
6.34043
6.29114
6.23435
6.17011
6.09936
6.02412
5.94769
5.87448
5.80873
5.75312
5.70847
5.6744
5.64999
5.63432
5.62667
5.3552
5.36528
5.38442
5.41093
5.44271
5.47779
5.5147
5.5524
5.59032
5.62829
5.66642
5.70482
5.74341
5.782
5.82025
5.85769
5.89385
5.92845
5.96138
5.99269
6.02262
6.05147
6.07952
6.10684
6.13343
6.15918
6.1839
6.20742
6.22976
6.25103
6.2713
6.29056
6.30868
6.32547
6.34061
6.35379
6.36473
6.37322
6.37906
6.38206
6.38205
6.37878
6.37194
6.36116
6.34605
6.32623
6.30125
6.2706
6.23369
6.18981
6.13814
6.07799
6.00917
5.93251
5.85014
5.76586
5.68512
5.61331
5.55351
5.50629
5.47081
5.4457
5.42971
5.42195
5.15622
5.16761
5.18912
5.2187
5.25379
5.29203
5.33181
5.37205
5.41212
5.452
5.49197
5.53225
5.5728
5.6134
5.65372
5.69316
5.7311
5.76728
5.80157
5.83402
5.86496
5.89481
5.92391
5.95235
5.98009
6.00702
6.03286
6.05738
6.08063
6.10279
6.124
6.14424
6.16338
6.18121
6.19737
6.21146
6.22322
6.23242
6.23885
6.24235
6.24277
6.23985
6.23326
6.22258
6.20741
6.18734
6.16192
6.13057
6.09264
6.04732
5.99352
5.93019
5.85681
5.77408
5.68415
5.59128
5.50228
5.42407
5.36014
5.31064
5.27407
5.24853
5.23243
5.22465
4.96389
4.97677
5.0009
5.03388
5.07256
5.1141
5.15685
5.19962
5.24175
5.28341
5.32508
5.36719
5.40965
5.45223
5.49464
5.53609
5.5758
5.61351
5.64909
5.68257
5.7144
5.74514
5.77522
5.80473
5.83359
5.8617
5.88866
5.91413
5.93822
5.9612
5.98331
6.00451
6.02466
6.04356
6.06076
6.07578
6.08836
6.09828
6.1053
6.10932
6.11018
6.10766
6.10137
6.09087
6.07572
6.0555
6.02975
5.99785
5.95911
5.9126
5.85693
5.79066
5.71281
5.62388
5.52596
5.42363
5.32548
5.24052
5.17261
5.12121
5.08394
5.05829
5.04227
5.03458
4.77783
4.79241
4.81945
4.85621
4.89878
4.94377
4.98953
5.03483
5.07891
5.1222
5.16543
5.20928
5.2536
5.29813
5.34267
5.38618
5.42761
5.46681
5.50362
5.53801
5.57061
5.60212
5.63314
5.66368
5.69363
5.72293
5.75101
5.77738
5.80223
5.82595
5.84893
5.87107
5.89222
5.91221
5.93048
5.94644
5.95985
5.97048
5.97809
5.98262
5.98395
5.98187
5.97595
5.9657
5.95062
5.93033
5.90439
5.87207
5.83269
5.78528
5.72808
5.65916
5.57695
5.48173
5.37541
5.26262
5.15424
5.06218
4.99056
4.93772
4.9002
4.87477
4.85905
4.85154
4.59772
4.61422
4.64447
4.68542
4.73224
4.78076
4.8296
4.87743
4.92331
4.96804
5.01266
5.0582
5.10436
5.15078
5.19751
5.24313
5.28625
5.32689
5.36488
5.40005
5.43326
5.46542
5.49734
5.52889
5.55989
5.59042
5.61964
5.64683
5.67235
5.69673
5.72055
5.74362
5.76574
5.78687
5.80626
5.82313
5.83737
5.84872
5.85691
5.86195
5.86376
5.86216
5.85668
5.84672
5.83178
5.81149
5.78546
5.75287
5.71302
5.66501
5.60663
5.53541
5.44899
5.34748
5.23242
5.10799
4.98802
4.88855
4.81362
4.75994
4.72267
4.69781
4.6826
4.67537
4.42319
4.44193
4.47566
4.52129
4.57274
4.62484
4.67681
4.72719
4.77467
4.82064
4.86645
4.91365
4.9616
5.00982
5.05885
5.10669
5.15141
5.19346
5.23259
5.26839
5.30207
5.33474
5.36753
5.40006
5.43206
5.46388
5.4943
5.52223
5.5483
5.57324
5.59788
5.62187
5.64493
5.66725
5.68781
5.70559
5.72065
5.73273
5.74147
5.747
5.7493
5.74823
5.74323
5.73364
5.71888
5.69865
5.67265
5.63987
5.59971
5.55143
5.49227
5.41917
5.32871
5.22097
5.09699
4.95951
4.82622
4.71912
4.64149
4.58767
4.55119
4.52725
4.51276
4.50591
4.25393
4.27528
4.31272
4.36361
4.42014
4.47575
4.53089
4.58389
4.63273
4.67971
4.72646
4.77533
4.82505
4.87493
4.92639
4.97662
5.0228
5.06623
5.10651
5.14275
5.17675
5.20976
5.24342
5.27694
5.30985
5.34305
5.37476
5.40331
5.42983
5.45519
5.48067
5.50557
5.52949
5.55308
5.5749
5.59352
5.6094
5.62223
5.63148
5.63749
5.64026
5.63977
5.63533
5.62616
5.6116
5.59147
5.56563
5.53275
5.49239
5.44419
5.38468
5.31021
5.21588
5.10204
4.96918
4.81699
4.6682
4.55338
4.47388
4.42074
4.38563
4.36296
4.34938
4.343
4.0896
4.11406
4.15536
4.21217
4.27432
4.33323
4.39161
4.44733
4.4972
4.54496
4.59234
4.64296
4.69445
4.74575
4.79988
4.8527
4.90013
4.94494
4.98641
5.02287
5.05702
5.09017
5.12477
5.15927
5.19294
5.22767
5.2608
5.28983
5.31666
5.34229
5.36864
5.39447
5.41915
5.44411
5.46729
5.48668
5.50338
5.51698
5.52668
5.53314
5.53637
5.53652
5.5327
5.524
5.50966
5.48963
5.4641
5.43118
5.39066
5.34295
5.28352
5.20832
5.11025
4.99052
4.8492
4.68031
4.51316
4.39079
4.31055
4.25902
4.22586
4.20481
4.19231
4.18647
3.92988
3.95811
4.00324
4.06678
4.13522
4.19701
4.2587
4.31737
4.36783
4.41615
4.46375
4.51628
4.56959
4.62193
4.67904
4.73477
4.7831
4.8293
4.8721
4.90847
4.94263
4.97565
5.01131
5.04684
5.08104
5.11751
5.15227
5.18154
5.20858
5.23425
5.26157
5.28834
5.3136
5.34009
5.36479
5.38479
5.40232
5.41675
5.4268
5.4337
5.43735
5.4382
5.43506
5.42691
5.41278
5.39283
5.3678
5.33486
5.29414
5.24738
5.18845
5.1133
5.01152
4.88616
4.73738
4.54942
4.36016
4.23087
4.15133
4.10243
4.07181
4.05267
4.04141
4.03617
3.77441
3.80734
3.85599
3.92728
4.00284
4.06675
4.13189
4.19388
4.24432
4.29304
4.3403
4.39507
4.45027
4.50305
4.56361
4.62271
4.6714
4.71904
4.7634
4.7993
4.83336
4.86589
4.90282
4.93945
4.97381
5.01234
5.04901
5.07819
5.10535
5.13077
5.15923
5.187
5.21254
5.2408
5.26722
5.2876
5.30598
5.32132
5.3316
5.33891
5.34294
5.34456
5.34218
5.33464
5.3207
5.30076
5.27647
5.2435
5.20243
5.15716
5.09911
5.02501
4.91938
4.78862
4.63424
4.42439
4.20805
4.07313
3.99611
3.95092
3.92338
3.90642
3.89652
3.89194
3.62282
3.66178
3.71318
3.79351
3.87729
3.94207
4.01091
4.07681
4.12637
4.17545
4.22159
4.27912
4.33639
4.38869
4.45336
4.51647
4.56468
4.61389
4.6602
4.69505
4.72899
4.76054
4.79911
4.83696
4.8709
4.91192
4.95093
4.97955
5.00679
5.03154
5.06143
5.0903
5.11566
5.14601
5.17446
5.19483
5.21411
5.23052
5.24082
5.24856
5.25286
5.25538
5.25382
5.24698
5.23318
5.21309
5.18991
5.15685
5.1151
5.07202
5.01509
4.94337
4.8335
4.69744
4.54052
4.30539
4.0554
3.91717
3.84486
3.80448
3.7805
3.76594
3.7575
3.75361
3.47472
3.52157
3.57428
3.6653
3.75876
3.82252
3.89546
3.96618
4.01361
4.06323
4.10715
4.16826
4.2279
4.27833
4.34806
4.41608
4.46254
4.51358
4.56245
4.59544
4.62939
4.65922
4.69999
4.73927
4.77192
4.81606
4.85797
4.88533
4.91274
4.93624
4.96798
4.9981
5.02262
5.05552
5.08641
5.10621
5.1265
5.14418
5.15421
5.16245
5.16687
5.17042
5.16975
5.16371
5.15
5.12951
5.10792
5.07469
5.0317
4.99172
4.93595
4.86838
4.7535
4.61193
4.45721
4.1928
3.90039
3.76269
3.69764
3.66312
3.64311
3.63111
3.6242
3.62102
3.32963
3.38707
3.43862
3.54252
3.64761
3.70752
3.78522
3.86211
3.90562
3.95634
3.99645
4.06236
4.12483
4.17137
4.24749
4.32167
4.36453
4.41781
4.47013
4.50011
4.53444
4.56153
4.60532
4.64635
4.67641
4.72456
4.77015
4.79522
4.82308
4.8445
4.87874
4.91035
4.93302
4.96914
5.00302
5.02143
5.04292
5.06217
5.07153
5.08038
5.0847
5.08949
5.08976
5.08464
5.07095
5.04966
5.03039
4.99685
4.95173
4.9161
4.86113
4.80016
4.67896
4.53113
4.38566
4.08721
3.74073
3.60961
3.5546
3.52687
3.51114
3.5018
3.49644
3.49399
3.187
3.25884
3.30535
3.42504
3.54438
3.59635
3.67986
3.76485
3.80187
3.85485
3.88883
3.96133
4.02734
4.06708
4.15145
4.23351
4.27009
4.3263
4.38337
4.40866
4.44413
4.46697
4.51497
4.55823
4.58386
4.63723
4.68756
4.70885
4.73778
4.75589
4.79358
4.82704
4.84644
4.88668
4.92433
4.94015
4.96313
4.98443
4.9925
5.0022
5.0061
5.0124
5.01362
5.00961
4.99587
4.97317
4.95721
4.92319
4.8746
4.84509
4.79
4.739
4.60948
4.45371
4.32758
3.98947
3.57348
3.45807
3.41598
3.39577
3.38451
3.37787
3.37408
3.37235
3.04617
3.13779
3.17339
3.31271
3.44982
3.48809
3.57901
3.67481
3.70166
3.75896
3.78355
3.86511
3.93574
3.9646
4.05976
4.15202
4.17857
4.23873
4.30236
4.32057
4.35855
4.375
4.42886
4.47505
4.49364
4.5539
4.61037
4.62579
4.65687
4.66995
4.7124
4.74823
4.76235
4.80799
4.85042
4.86198
4.88694
4.9109
4.91682
4.9278
4.93078
4.939
4.94114
4.93847
4.92463
4.89961
4.88834
4.85365
4.79967
4.77877
4.72172
4.68537
4.54467
4.37784
4.28515
3.90083
3.39496
3.30863
3.28206
3.26985
3.26313
3.25919
3.25694
3.25592
2.90632
3.0252
3.04133
3.20541
3.36499
3.38158
3.4823
3.5926
3.60412
3.66912
3.67964
3.77371
3.85051
3.86285
3.97223
4.0778
4.08915
4.15479
4.22746
4.23521
4.27792
4.28493
4.34695
4.39707
4.40502
4.47444
4.53887
4.54546
4.5805
4.58609
4.63514
4.6741
4.68015
4.73292
4.78149
4.78646
4.81414
4.8416
4.84417
4.85711
4.85846
4.86915
4.8721
4.87106
4.85713
4.82848
4.82381
4.78825
4.72615
4.71739
4.65525
4.63999
4.48416
4.3011
4.26106
3.82294
3.20054
3.16234
3.15319
3.14912
3.1469
3.1456
3.14486
3.14452
)
;

boundaryField
{
    left
    {
        type            zeroGradient;
    }
    right
    {
        type            zeroGradient;
    }
    interface
    {
        type            fixedValue;
        value           nonuniform List<scalar> 
64
(
2.83482
2.97288
2.97288
3.1531
3.32731
3.32731
3.43479
3.55505
3.55505
3.62667
3.62667
3.7295
3.81055
3.81055
3.92957
4.04406
4.04406
4.11364
4.19265
4.19265
4.23954
4.23954
4.30723
4.36003
4.36003
4.43577
4.50562
4.50562
4.54411
4.54411
4.5977
4.63876
4.63876
4.69636
4.749
4.749
4.77859
4.80839
4.80839
4.82287
4.82287
4.83524
4.83849
4.83849
4.82455
4.79309
4.79309
4.75699
4.68883
4.68883
4.62155
4.62155
4.45532
4.25981
4.25981
3.78974
3.09007
3.09007
3.09007
3.09007
3.09007
3.09007
3.09007
3.09007
)
;
    }
    bottom
    {
        type            fixedValue;
        value           uniform 10;
    }
    defaultFaces
    {
        type            empty;
    }
}


// ************************************************************************* //
