/*--------------------------------*- C++ -*----------------------------------*\
| =========                 |                                                 |
| \\      /  F ield         | OpenFOAM: The Open Source CFD Toolbox           |
|  \\    /   O peration     | Version:  5.x                                   |
|   \\  /    A nd           | Web:      www.OpenFOAM.org                      |
|    \\/     M anipulation  |                                                 |
\*---------------------------------------------------------------------------*/
FoamFile
{
    version     2.0;
    format      ascii;
    class       volScalarField;
    location    "4.7";
    object      gradTy;
}
// * * * * * * * * * * * * * * * * * * * * * * * * * * * * * * * * * * * * * //

dimensions      [0 -1 0 1 0 0 0];

internalField   nonuniform List<scalar> 
2048
(
-26.4237
-26.3961
-26.3417
-26.2621
-26.1593
-26.0359
-25.8946
-25.7383
-25.5698
-25.3916
-25.2061
-25.0155
-24.8217
-24.6263
-24.431
-24.2369
-24.0453
-23.857
-23.6729
-23.4933
-23.319
-23.15
-22.9868
-22.8296
-22.6786
-22.534
-22.3961
-22.2653
-22.142
-22.0265
-21.9195
-21.8216
-21.7336
-21.6563
-21.5906
-21.5375
-21.4982
-21.4738
-21.4656
-21.4748
-21.5026
-21.5503
-21.6192
-21.7104
-21.8248
-21.9632
-22.126
-22.3131
-22.5239
-22.757
-23.01
-23.2796
-23.5616
-23.8507
-24.1409
-24.4255
-24.6979
-24.9514
-25.1798
-25.378
-25.5415
-25.6669
-25.7518
-25.7946
-26.446
-26.4178
-26.3621
-26.2808
-26.176
-26.0503
-25.9068
-25.7483
-25.5776
-25.3975
-25.2103
-25.0181
-24.8229
-24.6263
-24.4299
-24.235
-24.0426
-23.8537
-23.6691
-23.4892
-23.3145
-23.1454
-22.982
-22.8246
-22.6734
-22.5286
-22.3904
-22.2593
-22.1355
-22.0196
-21.9121
-21.8137
-21.725
-21.6469
-21.5803
-21.5264
-21.4861
-21.4608
-21.4515
-21.4597
-21.4865
-21.5332
-21.6012
-21.6915
-21.8054
-21.9434
-22.1063
-22.294
-22.5059
-22.7408
-22.9965
-23.2696
-23.5558
-23.8498
-24.1453
-24.4355
-24.7132
-24.9716
-25.2044
-25.4061
-25.5723
-25.6997
-25.7858
-25.8292
-26.4887
-26.4592
-26.4012
-26.3165
-26.2076
-26.0777
-25.9297
-25.7669
-25.5923
-25.4085
-25.218
-25.0229
-24.8251
-24.6262
-24.4278
-24.2312
-24.0374
-23.8474
-23.6618
-23.4813
-23.3061
-23.1366
-22.9729
-22.8151
-22.6635
-22.5183
-22.3797
-22.2479
-22.1235
-22.0067
-21.8983
-21.7986
-21.7086
-21.6291
-21.561
-21.5054
-21.4633
-21.4361
-21.4249
-21.4311
-21.4559
-21.5008
-21.567
-21.6558
-21.7684
-21.9058
-22.0687
-22.2573
-22.4714
-22.7097
-22.9704
-23.2501
-23.5445
-23.8479
-24.1537
-24.4544
-24.7424
-25.0103
-25.2513
-25.4597
-25.6311
-25.7622
-25.8507
-25.8952
-26.5499
-26.5185
-26.4569
-26.3673
-26.2526
-26.1163
-25.9619
-25.793
-25.6127
-25.4237
-25.2285
-25.0293
-24.8279
-24.6258
-24.4246
-24.2256
-24.0298
-23.8382
-23.6514
-23.47
-23.2942
-23.1241
-22.96
-22.8018
-22.6497
-22.5039
-22.3646
-22.232
-22.1066
-21.9887
-21.8788
-21.7776
-21.6858
-21.6042
-21.5339
-21.4758
-21.4312
-21.4014
-21.3874
-21.3908
-21.4129
-21.455
-21.5186
-21.6051
-21.7159
-21.8522
-22.0149
-22.2047
-22.4215
-22.6646
-22.9322
-23.2213
-23.5274
-23.8444
-24.1651
-24.4813
-24.7843
-25.0659
-25.3187
-25.5367
-25.7153
-25.8514
-25.9431
-25.9891
-26.6283
-26.5944
-26.5279
-26.4317
-26.3092
-26.1646
-26.002
-25.8252
-25.6376
-25.4421
-25.2412
-25.0369
-24.8309
-24.6248
-24.4202
-24.2181
-24.0199
-23.8264
-23.6381
-23.4557
-23.2791
-23.1085
-22.9439
-22.7852
-22.6325
-22.486
-22.3459
-22.2123
-22.0856
-21.9663
-21.8547
-21.7515
-21.6574
-21.5733
-21.5001
-21.439
-21.3913
-21.358
-21.3406
-21.3405
-21.359
-21.3976
-21.4579
-21.5413
-21.6496
-21.7842
-21.9464
-22.1372
-22.3571
-22.6059
-22.8822
-23.1831
-23.5041
-23.8388
-24.1789
-24.5153
-24.8379
-25.1372
-25.4051
-25.6351
-25.8227
-25.9649
-26.0603
-26.1081
-26.7229
-26.6857
-26.6131
-26.5084
-26.3762
-26.2213
-26.0485
-25.8622
-25.666
-25.463
-25.2554
-25.0451
-24.8339
-24.6232
-24.4144
-24.2088
-24.0077
-23.8119
-23.6221
-23.4385
-23.2612
-23.0901
-22.925
-22.7659
-22.6126
-22.4653
-22.3241
-22.1894
-22.0614
-21.9404
-21.8269
-21.7214
-21.6245
-21.5374
-21.4608
-21.3962
-21.3446
-21.3074
-21.2859
-21.2816
-21.2958
-21.3302
-21.3863
-21.466
-21.571
-21.7032
-21.8643
-22.0558
-22.2789
-22.534
-22.8201
-23.135
-23.474
-23.8302
-24.1944
-24.5557
-24.9025
-25.2236
-25.5097
-25.7538
-25.9515
-26.1005
-26.1999
-26.2495
-26.833
-26.7917
-26.7114
-26.5964
-26.4523
-26.2849
-26.1001
-25.9028
-25.6968
-25.4853
-25.2703
-25.0535
-24.8365
-24.6205
-24.4071
-24.1976
-23.9933
-23.795
-23.6035
-23.4188
-23.2409
-23.0694
-22.9039
-22.7442
-22.5903
-22.4421
-22.2999
-22.164
-22.0345
-21.9117
-21.796
-21.6879
-21.588
-21.4973
-21.417
-21.3482
-21.2923
-21.2507
-21.2245
-21.2154
-21.2247
-21.2541
-21.3054
-21.3805
-21.4814
-21.6104
-21.7697
-21.9613
-22.1873
-22.4487
-22.7457
-23.0763
-23.4361
-23.8178
-24.2107
-24.6021
-24.9779
-25.3247
-25.6319
-25.8918
-26.1005
-26.2564
-26.3596
-26.411
-26.9583
-26.9119
-26.8222
-26.6947
-26.5362
-26.3543
-26.1556
-25.9457
-25.729
-25.5083
-25.2854
-25.0617
-24.8384
-24.6168
-24.3983
-24.1844
-23.9765
-23.7756
-23.5823
-23.3967
-23.2183
-23.0466
-22.8808
-22.7208
-22.5661
-22.4171
-22.2738
-22.1365
-22.0055
-21.8808
-21.7628
-21.6518
-21.5486
-21.4541
-21.3695
-21.2962
-21.2355
-21.1889
-21.1576
-21.1432
-21.147
-21.1709
-21.2166
-21.2862
-21.3822
-21.5071
-21.6635
-21.8544
-22.0825
-22.3501
-22.6582
-23.006
-23.3893
-23.8004
-24.2272
-24.654
-25.0639
-25.4406
-25.7715
-26.0486
-26.2684
-26.4309
-26.5375
-26.5903
-27.0985
-27.046
-26.9449
-26.8023
-26.6269
-26.428
-26.2135
-25.9899
-25.7616
-25.5313
-25.3002
-25.0694
-24.8395
-24.6118
-24.3878
-24.1691
-23.9573
-23.7537
-23.5588
-23.3724
-23.1938
-23.0221
-22.8563
-22.6959
-22.5406
-22.3906
-22.2461
-22.1075
-21.9749
-21.8484
-21.7279
-21.6139
-21.507
-21.4083
-21.3191
-21.2408
-21.1749
-21.1229
-21.0862
-21.066
-21.0639
-21.0815
-21.121
-21.1844
-21.2746
-21.3942
-21.5468
-21.7357
-21.9649
-22.2378
-22.5571
-22.9231
-23.3324
-23.777
-24.2428
-24.7112
-25.1608
-25.5716
-25.9287
-26.2237
-26.4544
-26.6224
-26.7315
-26.785
-27.2538
-27.1938
-27.079
-26.9184
-26.7232
-26.5047
-26.2726
-26.0341
-25.7937
-25.5535
-25.3144
-25.0763
-24.8397
-24.6056
-24.3756
-24.1516
-23.9357
-23.7292
-23.5328
-23.3459
-23.1676
-22.9963
-22.8307
-22.6701
-22.5141
-22.363
-22.2173
-22.0774
-21.9433
-21.8148
-21.6919
-21.5747
-21.464
-21.3607
-21.2664
-21.1828
-21.1114
-21.0537
-21.0111
-20.9848
-20.9763
-20.9873
-21.0198
-21.0763
-21.1596
-21.2731
-21.4204
-21.606
-21.8347
-22.1118
-22.4416
-22.8263
-23.2639
-23.746
-24.2568
-24.7734
-25.269
-25.7186
-26.1042
-26.4172
-26.6575
-26.8294
-26.9394
-26.9929
-27.4245
-27.3555
-27.2242
-27.0422
-26.8239
-26.5832
-26.3316
-26.0771
-25.8242
-25.5744
-25.3274
-25.0824
-24.839
-24.5982
-24.3617
-24.1319
-23.9116
-23.7022
-23.5044
-23.3175
-23.1399
-22.9694
-22.8044
-22.6436
-22.4869
-22.3346
-22.1876
-22.0464
-21.9109
-21.7807
-21.6554
-21.5349
-21.42
-21.3118
-21.2121
-21.1227
-21.0455
-20.982
-20.9333
-20.9007
-20.8854
-20.8892
-20.9142
-20.963
-21.0386
-21.1447
-21.2854
-21.4659
-21.6924
-21.9718
-22.3108
-22.7142
-23.1819
-23.7058
-24.268
-24.8406
-25.3895
-25.8827
-26.2987
-26.6292
-26.8769
-27.0503
-27.1592
-27.2115
-27.6109
-27.5311
-27.3801
-27.1729
-26.9278
-26.662
-26.3889
-26.1176
-25.8524
-25.5935
-25.3393
-25.0876
-24.8375
-24.5896
-24.346
-24.11
-23.8848
-23.6724
-23.4735
-23.2872
-23.1109
-22.942
-22.7777
-22.6169
-22.4593
-22.3057
-22.1572
-22.0147
-21.8781
-21.7464
-21.6188
-21.495
-21.3757
-21.2622
-21.1566
-21.0612
-20.978
-20.9083
-20.8534
-20.8143
-20.792
-20.7883
-20.8052
-20.8455
-20.9126
-21.0101
-21.1428
-21.3164
-21.5385
-21.8178
-22.164
-22.5854
-23.0845
-23.6545
-24.2753
-24.9129
-25.5235
-26.0658
-26.5135
-26.8598
-27.1118
-27.2833
-27.3886
-27.4383
-27.8138
-27.721
-27.5465
-27.3096
-27.0335
-26.7395
-26.4433
-26.1546
-25.8773
-25.6103
-25.3499
-25.0921
-24.8354
-24.5801
-24.3288
-24.0857
-23.8551
-23.6397
-23.4402
-23.255
-23.0811
-22.9142
-22.7512
-22.5904
-22.4318
-22.2765
-22.1263
-21.9827
-21.8452
-21.7124
-21.5826
-21.4554
-21.3314
-21.2122
-21.1004
-20.9987
-20.9091
-20.8333
-20.7721
-20.7264
-20.697
-20.6853
-20.6936
-20.7249
-20.7826
-20.8706
-20.9937
-21.1585
-21.3735
-21.6498
-22.0005
-22.4382
-22.9697
-23.5898
-24.2771
-24.9903
-25.6727
-26.2699
-26.7502
-27.1094
-27.3613
-27.5267
-27.6251
-27.6706
-28.0341
-27.9256
-27.7232
-27.4515
-27.1398
-26.8143
-26.4932
-26.1868
-25.8983
-25.6246
-25.3592
-25.0961
-24.8329
-24.5699
-24.3099
-24.0589
-23.8226
-23.6041
-23.4042
-23.2211
-23.0505
-22.8866
-22.7252
-22.5644
-22.4045
-22.247
-22.095
-21.9503
-21.8125
-21.6789
-21.5473
-21.4167
-21.2878
-21.1624
-21.0438
-20.9354
-20.8394
-20.7574
-20.6901
-20.6378
-20.6011
-20.5812
-20.5804
-20.6021
-20.6498
-20.7272
-20.8394
-20.9933
-21.1985
-21.4681
-21.8196
-22.2711
-22.8348
-23.509
-24.2715
-25.0731
-25.8394
-26.498
-27.0107
-27.3784
-27.6243
-27.7783
-27.8662
-27.9057
-28.2727
-28.1454
-27.9101
-27.5975
-27.2449
-26.8848
-26.5372
-26.2129
-25.9146
-25.6361
-25.3675
-25.1
-24.8305
-24.5592
-24.2896
-24.0295
-23.7868
-23.5652
-23.3654
-23.1855
-23.0194
-22.8596
-22.7002
-22.5393
-22.3777
-22.2175
-22.0631
-21.9176
-21.78
-21.6464
-21.5132
-21.3792
-21.2451
-21.113
-20.9871
-20.8717
-20.7692
-20.681
-20.6077
-20.549
-20.505
-20.4766
-20.4664
-20.478
-20.515
-20.5811
-20.681
-20.8221
-21.0144
-21.2733
-21.6209
-22.0823
-22.6773
-23.4091
-24.2562
-25.1613
-26.0265
-26.7536
-27.2973
-27.667
-27.8996
-28.0361
-28.1093
-28.1407
-28.5309
-28.3812
-28.1071
-27.7466
-27.3473
-26.9493
-26.5738
-26.2317
-25.9254
-25.6448
-25.3751
-25.1042
-24.8285
-24.5487
-24.2679
-23.9972
-23.7476
-23.5228
-23.3237
-23.1482
-22.9882
-22.8336
-22.6765
-22.5155
-22.3518
-22.1879
-22.0304
-21.8845
-21.7481
-21.6153
-21.4807
-21.3433
-21.2038
-21.0643
-20.9303
-20.8077
-20.6986
-20.6043
-20.5254
-20.4607
-20.4095
-20.3723
-20.3522
-20.3532
-20.3792
-20.4333
-20.5199
-20.6462
-20.8227
-21.0659
-21.4039
-21.8703
-22.4946
-23.2864
-24.2279
-25.2551
-26.238
-27.0413
-27.6124
-27.9753
-28.1856
-28.2977
-28.3517
-28.373
-28.81
-28.6335
-28.3141
-27.8975
-27.4449
-27.0062
-26.6016
-26.2421
-25.9303
-25.6507
-25.3827
-25.1092
-24.8276
-24.5388
-24.2451
-23.9618
-23.7048
-23.4767
-23.2786
-23.1092
-22.9573
-22.8093
-22.6548
-22.4934
-22.327
-22.1582
-21.9967
-21.8508
-21.7167
-21.5859
-21.4503
-21.3094
-21.1644
-21.0165
-20.8736
-20.7435
-20.6279
-20.5278
-20.4436
-20.3733
-20.315
-20.2689
-20.2384
-20.2285
-20.2433
-20.285
-20.3571
-20.4672
-20.6248
-20.8472
-21.1687
-21.6335
-22.2837
-23.1368
-24.1824
-25.3543
-26.4788
-27.3664
-27.9585
-28.3031
-28.4804
-28.5603
-28.5907
-28.5997
-29.1118
-28.903
-28.5312
-28.0491
-27.5355
-27.0539
-26.6193
-26.2426
-25.9286
-25.654
-25.391
-25.1157
-24.828
-24.5304
-24.2211
-23.9227
-23.6582
-23.4267
-23.2299
-23.0685
-22.9269
-22.7872
-22.6354
-22.4731
-22.3038
-22.1283
-21.9614
-21.8163
-21.6861
-21.5586
-21.4223
-21.2779
-21.1272
-20.9698
-20.8168
-20.6793
-20.5573
-20.4514
-20.3627
-20.2873
-20.2223
-20.1668
-20.1255
-20.1044
-20.108
-20.1372
-20.1939
-20.2865
-20.4228
-20.6184
-20.9155
-21.3704
-22.042
-22.9558
-24.1142
-25.4586
-26.7558
-27.7354
-28.3383
-28.6496
-28.7816
-28.8213
-28.8236
-28.8183
-29.438
-29.1902
-28.7587
-28.1997
-27.6166
-27.091
-26.6257
-26.2319
-25.9199
-25.6552
-25.4011
-25.124
-24.8303
-24.5243
-24.1962
-23.8793
-23.6077
-23.3727
-23.177
-23.026
-22.8974
-22.7684
-22.6187
-22.455
-22.2828
-22.0981
-21.9238
-21.7805
-21.6564
-21.5342
-21.397
-21.2488
-21.0928
-20.9244
-20.7598
-20.6151
-20.4868
-20.3753
-20.2828
-20.2032
-20.1318
-20.0667
-20.0139
-19.9812
-19.9739
-19.9908
-20.0313
-20.1059
-20.2189
-20.3812
-20.6448
-21.0798
-21.7672
-22.7388
-24.0155
-25.5669
-27.0777
-28.1561
-28.7541
-29.0134
-29.0863
-29.0777
-29.0477
-29.0265
-29.7907
-29.4951
-28.9972
-28.3478
-27.6846
-27.1166
-26.6202
-26.2081
-25.9037
-25.6545
-25.4145
-25.1347
-24.8344
-24.5222
-24.1705
-23.8304
-23.5533
-23.3145
-23.119
-22.9817
-22.8693
-22.7537
-22.605
-22.439
-22.2647
-22.0676
-21.8827
-21.7431
-21.6276
-21.5132
-21.3746
-21.2223
-21.0619
-20.8803
-20.7019
-20.5511
-20.4166
-20.2993
-20.2044
-20.1215
-20.0443
-19.9689
-19.9038
-19.8592
-19.8417
-19.847
-19.8701
-19.9268
-20.0157
-20.1376
-20.3577
-20.7603
-21.4575
-22.481
-23.8761
-25.6773
-27.4566
-28.6375
-29.2077
-29.3921
-29.3912
-29.3266
-29.2606
-29.2221
-30.1726
-29.8173
-29.2482
-28.4915
-27.7354
-27.1303
-26.6021
-26.1691
-25.88
-25.6524
-25.4332
-25.1481
-24.8402
-24.5261
-24.1442
-23.7741
-23.4954
-23.2524
-23.0547
-22.9355
-22.8429
-22.7446
-22.5946
-22.425
-22.2508
-22.0365
-21.8367
-21.7038
-21.5998
-21.4968
-21.3552
-21.1982
-21.0356
-20.8376
-20.6424
-20.4873
-20.3469
-20.2232
-20.1275
-20.0424
-19.9603
-19.8738
-19.7953
-19.7385
-19.7118
-19.7067
-19.7109
-19.7506
-19.8163
-19.8898
-20.0555
-20.4103
-21.1122
-22.1784
-23.6819
-25.7862
-27.9088
-29.1897
-29.6996
-29.7823
-29.6925
-29.5648
-29.4601
-29.4034
-30.5868
-30.1549
-29.514
-28.6289
-27.7633
-27.1327
-26.5716
-26.1121
-25.8488
-25.6492
-25.4602
-25.1639
-24.8466
-24.539
-24.1173
-23.7078
-23.4352
-23.1867
-22.9825
-22.8877
-22.8184
-22.743
-22.5873
-22.4123
-22.2431
-22.0048
-21.7834
-21.6622
-21.5732
-21.4865
-21.3388
-21.1759
-21.0152
-20.7964
-20.5801
-20.4242
-20.278
-20.1466
-20.0526
-19.9663
-19.8806
-19.7818
-19.6887
-19.6188
-19.5847
-19.5712
-19.5537
-19.5784
-19.6245
-19.64
-19.7404
-20.0277
-20.7316
-21.8287
-23.4137
-25.8879
-28.4568
-29.824
-30.229
-30.1794
-29.986
-29.7895
-29.6443
-29.569
-31.0372
-30.5043
-29.7989
-28.7578
-27.7604
-27.1262
-26.5297
-26.0328
-25.8109
-25.6448
-25.4995
-25.1818
-24.8516
-24.5657
-24.0902
-23.6272
-23.3745
-23.1183
-22.8997
-22.8387
-22.7958
-22.7516
-22.5828
-22.3995
-22.2442
-21.9724
-21.7199
-21.6184
-21.5474
-21.4842
-21.3251
-21.1543
-21.003
-20.7567
-20.5128
-20.3627
-20.2101
-20.0687
-19.9799
-19.8934
-19.806
-19.693
-19.5837
-19.4999
-19.4604
-19.442
-19.3981
-19.4111
-19.4447
-19.3904
-19.4153
-19.6094
-20.318
-21.4326
-23.0456
-25.9736
-29.1318
-30.5517
-30.7928
-30.5774
-30.2672
-29.9979
-29.8116
-29.7179
-31.5294
-30.8584
-30.1098
-28.8761
-27.7161
-27.1155
-26.478
-25.9255
-25.7682
-25.6382
-25.5568
-25.2003
-24.8514
-24.6129
-24.0627
-23.526
-23.3168
-23.0484
-22.8025
-22.7897
-22.7744
-22.7741
-22.5802
-22.384
-22.2587
-21.9392
-21.6419
-21.5729
-21.522
-21.493
-21.3133
-21.1315
-21.0023
-20.7184
-20.4378
-20.3041
-20.144
-19.9881
-19.9101
-19.8238
-19.7376
-19.6077
-19.4804
-19.3811
-19.3392
-19.3214
-19.2428
-19.2488
-19.2828
-19.1425
-19.0848
-19.1501
-19.8755
-20.9961
-22.5428
-26.0292
-29.9767
-31.3835
-31.3848
-30.9691
-30.5314
-30.1878
-29.961
-29.8495
-32.0706
-31.2056
-30.458
-28.9815
-27.615
-27.1089
-26.4195
-25.7813
-25.7243
-25.6268
-25.6403
-25.2173
-24.8397
-24.6907
-24.0351
-23.395
-23.2676
-22.9793
-22.685
-22.743
-22.7523
-22.8158
-22.578
-22.3619
-22.2929
-21.9051
-21.5433
-21.5275
-21.4953
-21.5172
-21.3023
-21.1041
-21.0177
-20.6814
-20.3506
-20.2508
-20.0802
-19.9028
-19.8442
-19.7572
-19.6767
-19.5258
-19.3787
-19.2613
-19.2206
-19.2124
-19.0853
-19.0905
-19.1462
-18.8967
-18.7555
-18.6414
-19.4104
-20.5333
-21.8584
-26.0343
-31.0513
-32.3271
-31.9951
-31.3463
-30.7743
-30.357
-30.0916
-29.9635
-32.6714
-31.5267
-30.8608
-29.0716
-27.4359
-27.1198
-26.3585
-25.5876
-25.6859
-25.6054
-25.762
-25.2293
-24.8066
-24.8135
-24.0072
-23.2205
-23.236
-22.9136
-22.5389
-22.703
-22.7262
-22.8846
-22.5738
-22.3267
-22.3561
-21.8699
-21.4159
-21.4856
-21.4647
-21.563
-21.2902
-21.0674
-21.0565
-20.6456
-20.245
-20.2064
-20.0197
-19.8099
-19.7838
-19.6929
-19.6252
-19.447
-19.2785
-19.1394
-19.1042
-19.1195
-18.922
-18.9343
-19.0446
-18.6512
-18.4377
-18.07
-18.9312
-20.0704
-20.9303
-25.9588
-32.4379
-33.3847
-32.6097
-31.6997
-30.9917
-30.5042
-30.2033
-30.0602
-33.3464
-31.7922
-31.3444
-29.1442
-27.1488
-27.169
-26.3008
-25.3261
-25.6647
-25.5641
-25.9387
-25.2311
-24.7375
-25.0023
-23.9788
-22.9834
-23.2352
-22.8554
-22.352
-22.6769
-22.6894
-22.9916
-22.5643
-22.2689
-22.4616
-21.8335
-21.2481
-21.4533
-21.425
-21.6393
-21.2744
-21.0137
-21.1285
-20.6103
-20.1123
-20.1769
-19.9639
-19.7048
-19.7317
-19.6294
-19.5855
-19.3709
-19.18
-19.0137
-18.9883
-19.0491
-18.7474
-18.7764
-18.9916
-18.4006
-18.147
-17.4157
-18.4481
-19.6511
-19.6769
-25.7596
-34.2491
-34.5483
-33.2099
-32.02
-31.1802
-30.6285
-30.2962
-30.14
-34.1169
-31.9579
-31.9471
-29.197
-26.7125
-27.2869
-26.2539
-24.9706
-25.6793
-25.4867
-26.1943
-25.2156
-24.6108
-25.286
-23.9494
-22.6567
-23.285
-22.8095
-22.1069
-22.6769
-22.6311
-23.1523
-22.5447
-22.1746
-22.6283
-21.7952
-21.0242
-21.4409
-21.3678
-21.7587
-21.2508
-20.9323
-21.2481
-20.575
-19.9403
-20.1708
-19.9141
-19.5813
-19.692
-19.5639
-19.5612
-19.2961
-19.0837
-18.8821
-18.8705
-19.0108
-18.5539
-18.6103
-19.0054
-18.134
-17.9067
-16.6483
-17.972
-19.3433
-17.9922
-25.3764
-36.6383
-35.7939
-33.7723
-32.2983
-31.3372
-30.7296
-30.3708
-30.2037
-35.0121
-31.9593
-32.724
-29.2278
-26.0709
-27.517
-26.2273
-24.4845
-25.7588
-25.3468
-26.5622
-25.1735
-24.3959
-25.7047
-23.9181
-22.2036
-23.4133
-22.7823
-21.7792
-22.7219
-22.534
-23.3887
-22.5086
-22.0241
-22.8821
-21.7541
-20.7231
-21.4649
-21.2791
-21.9388
-21.2145
-20.8081
-21.4349
-20.5383
-19.7123
-20.2005
-19.8719
-19.4306
-19.6714
-19.492
-19.557
-19.2206
-18.9907
-18.7421
-18.7467
-19.0178
-18.3311
-18.4267
-19.1113
-17.8319
-17.752
-15.7249
-17.5129
-19.2472
-15.7397
-24.7259
-39.8111
-37.0732
-34.2704
-32.5267
-31.4613
-30.8079
-30.4279
-30.2523
-36.073
-31.7053
-33.7523
-29.2343
-25.1485
-27.9199
-26.232
-23.8172
-25.9473
-25.1041
-27.0885
-25.0921
-24.0507
-26.3127
-23.8833
-21.5742
-23.6593
-22.7813
-21.3354
-22.8404
-22.3715
-23.7311
-22.4476
-21.7903
-23.2579
-21.7082
-20.3162
-21.5497
-21.1379
-22.2038
-21.1585
-20.6201
-21.7156
-20.4985
-19.406
-20.2834
-19.8391
-19.2406
-19.6797
-19.4068
-19.5798
-19.1412
-18.9029
-18.5912
-18.6103
-19.0885
-18.0654
-18.2116
-19.344
-17.4628
-17.734
-14.5857
-17.0773
-19.5051
-12.7468
-23.695
-44.041
-38.3033
-34.6758
-32.6995
-31.5521
-30.8643
-30.4686
-30.2868
-37.3556
-31.0695
-35.1378
-29.2136
-23.8455
-28.5782
-26.2808
-22.9001
-26.3092
-24.699
-27.8357
-24.9557
-23.518
-27.1818
-23.8427
-20.7029
-24.076
-22.8152
-20.7301
-23.0744
-22.1043
-24.2206
-22.3509
-21.4365
-23.8022
-21.6548
-19.766
-21.7315
-20.9125
-22.5867
-21.0739
-20.3401
-22.1259
-20.4527
-18.9922
-20.4434
-19.8169
-18.9952
-19.731
-19.2979
-19.6389
-19.0528
-18.8231
-18.4263
-18.4516
-19.248
-17.7394
-17.9454
-19.7511
-16.9781
-17.9257
-13.1502
-16.6645
-20.3135
-8.79721
-22.133
-49.6866
-39.3528
-34.9621
-32.8135
-31.6105
-30.9001
-30.4944
-30.3085
-38.9354
-29.8826
-37.0241
-29.1635
-22.0334
-29.6022
-26.3889
-21.643
-26.9369
-24.0465
-28.8884
-24.7447
-22.7228
-28.4058
-23.7926
-19.5041
-24.7341
-22.8937
-19.9028
-23.4837
-21.676
-24.9123
-22.2048
-20.9144
-24.5759
-21.5891
-19.0235
-22.0611
-20.5574
-23.1315
-20.9493
-19.9313
-22.7122
-20.3973
-18.4336
-20.7135
-19.8074
-18.6737
-19.8461
-19.1511
-19.7482
-18.9491
-18.7568
-18.2455
-18.2574
-19.5304
-17.3321
-17.6019
-20.3978
-16.3072
-18.43
-11.313
-16.2633
-21.9362
-3.62498
-19.8423
-57.212
-40.0265
-35.1099
-32.8693
-31.6386
-30.9173
-30.5067
-30.319
)
;

boundaryField
{
    left
    {
        type            calculated;
        value           nonuniform List<scalar> 
32
(
-26.4237
-26.446
-26.4887
-26.5499
-26.6283
-26.7229
-26.833
-26.9583
-27.0985
-27.2538
-27.4245
-27.6109
-27.8138
-28.0341
-28.2727
-28.5309
-28.81
-29.1118
-29.438
-29.7907
-30.1726
-30.5868
-31.0372
-31.5294
-32.0706
-32.6714
-33.3464
-34.1169
-35.0121
-36.073
-37.3556
-38.9354
)
;
    }
    right
    {
        type            calculated;
        value           nonuniform List<scalar> 
32
(
-25.7946
-25.8292
-25.8952
-25.9891
-26.1081
-26.2495
-26.411
-26.5903
-26.785
-26.9929
-27.2115
-27.4383
-27.6706
-27.9057
-28.1407
-28.373
-28.5997
-28.8183
-29.0265
-29.2221
-29.4034
-29.569
-29.7179
-29.8495
-29.9635
-30.0602
-30.14
-30.2037
-30.2523
-30.2868
-30.3085
-30.319
)
;
    }
    interface
    {
        type            calculated;
        value           nonuniform List<scalar> 
64
(
-39.8104
-29.1273
-38.1131
-29.1309
-20.9821
-30.2215
-26.4598
-20.9167
-27.3308
-23.6462
-29.5032
-24.618
-22.2489
-29.1198
-23.7646
-18.8107
-25.1334
-22.9453
-19.425
-23.7409
-21.4133
-25.3165
-22.1176
-20.6043
-25.0287
-21.5526
-18.5973
-22.2703
-20.3407
-23.4506
-20.8754
-19.6894
-23.0561
-20.3667
-18.113
-20.8809
-19.8061
-18.4913
-19.9228
-19.0663
-19.8174
-18.8925
-18.7279
-18.1509
-18.1494
-19.7072
-17.1053
-17.4071
-20.7906
-15.9149
-18.7754
-10.2793
-16.0634
-22.9889
-0.696654
-18.4869
-61.51
-40.2403
-35.1474
-32.883
-31.6455
-30.9215
-30.5097
-30.3216
)
;
    }
    bottom
    {
        type            calculated;
        value           nonuniform List<scalar> 
64
(
-26.4179
-26.3905
-26.3364
-26.2572
-26.1549
-26.0321
-25.8914
-25.7357
-25.5678
-25.3901
-25.205
-25.0148
-24.8213
-24.6263
-24.4313
-24.2375
-24.046
-23.8579
-23.6738
-23.4944
-23.3201
-23.1512
-22.9881
-22.8309
-22.68
-22.5354
-22.3976
-22.2669
-22.1436
-22.0283
-21.9214
-21.8237
-21.7359
-21.6587
-21.5932
-21.5404
-21.5014
-21.4773
-21.4693
-21.4787
-21.5068
-21.5548
-21.6239
-21.7153
-21.8298
-21.9683
-22.1311
-22.3181
-22.5286
-22.7611
-23.0134
-23.2822
-23.5631
-23.8509
-24.1397
-24.4229
-24.6939
-24.9461
-25.1735
-25.3707
-25.5335
-25.6584
-25.7429
-25.7856
)
;
    }
    defaultFaces
    {
        type            empty;
    }
}


// ************************************************************************* //
