/*--------------------------------*- C++ -*----------------------------------*\
| =========                 |                                                 |
| \\      /  F ield         | OpenFOAM: The Open Source CFD Toolbox           |
|  \\    /   O peration     | Version:  5.x                                   |
|   \\  /    A nd           | Web:      www.OpenFOAM.org                      |
|    \\/     M anipulation  |                                                 |
\*---------------------------------------------------------------------------*/
FoamFile
{
    version     2.0;
    format      ascii;
    class       volScalarField;
    location    "9.5";
    object      gradTy;
}
// * * * * * * * * * * * * * * * * * * * * * * * * * * * * * * * * * * * * * //

dimensions      [0 -1 0 1 0 0 0];

internalField   nonuniform List<scalar> 
3200
(
18.2484
8.63559
11.7295
8.31219
9.74954
8.03962
8.79378
7.79257
8.24146
7.60063
7.87603
7.51715
7.72761
7.31729
7.52953
7.13927
7.33844
6.9799
7.16165
6.83777
7.00108
6.71217
6.85723
6.60214
6.73013
6.50601
6.62025
6.42066
6.53562
6.36653
6.23143
6.31855
6.20013
6.25775
6.16565
6.21027
6.13634
6.17222
6.11214
6.14132
6.09232
6.11609
6.07618
6.09546
6.06322
6.07864
6.05311
6.06499
6.04591
6.05407
6.04302
6.04914
6.03761
6.04298
6.03408
6.03768
6.0328
6.03382
6.03452
6.03183
6.04061
6.03226
6.05363
6.0358
6.0786
6.04273
6.12648
6.0483
6.22313
6.00069
6.29312
7.10894
6.42159
7.94784
6.78063
9.89663
9.12592
9.00806
8.98373
8.97849
17.0088
9.7515
11.3319
8.77618
9.5468
8.26981
8.67357
7.92511
8.1643
7.68484
7.83189
7.56401
7.67617
7.36877
7.48089
7.18855
7.29385
7.02529
7.12143
6.87884
6.96523
6.74885
6.8256
6.63455
6.7023
6.53449
6.59512
6.44585
6.50817
6.37033
6.25631
6.30419
6.21574
6.24646
6.17752
6.20119
6.14583
6.16484
6.11984
6.1353
6.0986
6.11119
6.0813
6.09151
6.06736
6.07552
6.0564
6.06268
6.04839
6.05273
6.04447
6.04773
6.03908
6.04191
6.03524
6.03713
6.03348
6.034
6.03451
6.03307
6.03963
6.03516
6.05113
6.04158
6.07355
6.05425
6.11668
6.07388
6.20334
6.07611
6.35161
6.99363
6.62345
7.76514
7.15807
9.50326
9.09976
9.00428
8.98292
8.97823
16.0596
10.5138
11.0997
9.10706
9.4259
8.43272
8.59939
8.01809
8.11584
7.74394
7.80429
7.59561
7.64146
7.40343
7.44838
7.22187
7.26417
7.05605
7.0947
6.9067
6.94145
6.77375
6.80464
6.65657
6.68386
6.55378
6.57835
6.46254
6.4887
6.37314
6.27468
6.29524
6.22655
6.23912
6.18567
6.19524
6.15232
6.15999
6.12511
6.13134
6.10289
6.10797
6.0848
6.08891
6.07019
6.07348
6.05866
6.06119
6.05012
6.05188
6.04545
6.04678
6.04009
6.04121
6.03605
6.0368
6.03397
6.03417
6.03458
6.03397
6.03907
6.03723
6.04964
6.0457
6.07055
6.06249
6.11107
6.09257
6.1938
6.13541
6.39544
6.91881
6.76484
7.65242
7.41745
9.21987
9.06133
8.99756
8.98148
8.97783
15.3321
11.0309
10.9707
9.34547
9.35748
8.54923
8.55513
8.08392
8.08617
7.78575
7.78745
7.61704
7.6181
7.42676
7.42673
7.24443
7.2445
7.07694
7.07704
6.92566
6.92577
6.79072
6.79083
6.67157
6.67171
6.56688
6.56719
6.47355
6.47489
6.37526
6.2883
6.28987
6.23412
6.23443
6.19129
6.19139
6.15679
6.15684
6.12873
6.12877
6.10585
6.10588
6.08721
6.08723
6.07215
6.07216
6.06023
6.06024
6.05133
6.05136
6.04612
6.04614
6.04077
6.04077
6.03662
6.03661
6.03434
6.03433
6.03468
6.03465
6.03879
6.03873
6.0488
6.04867
6.06886
6.06846
6.10815
6.10646
6.19065
6.18198
6.42874
6.87109
6.86457
7.58459
7.59533
9.01492
9.0191
8.98894
8.97955
8.97729
14.7767
11.3784
10.9042
9.5184
9.32188
8.63318
8.52995
8.1308
8.0686
7.81547
7.77749
7.6316
7.60244
7.44244
7.41237
7.2597
7.23154
7.09112
7.06544
6.93855
6.91549
6.80227
6.7818
6.6818
6.66375
6.57578
6.55979
6.48075
6.46512
6.37687
6.29837
6.28679
6.23944
6.23147
6.19518
6.18892
6.15987
6.15482
6.13123
6.12712
6.10788
6.10453
6.08887
6.08615
6.0735
6.07133
6.06132
6.05964
6.05218
6.05104
6.04658
6.04573
6.04125
6.04048
6.03702
6.03651
6.03463
6.03447
6.03479
6.03516
6.03868
6.03983
6.04838
6.05082
6.06799
6.07283
6.10688
6.11692
6.19121
6.21833
6.45422
6.84132
6.93524
7.54514
7.71685
8.8666
8.97824
8.9795
8.97734
8.97665
14.3572
11.6088
10.8742
9.64376
9.30596
8.69372
8.5166
8.16421
8.05867
7.83658
7.77186
7.64149
7.59201
7.45293
7.40291
7.26999
7.22306
7.10071
7.05789
6.94729
6.90882
6.81012
6.77595
6.68874
6.6586
6.5818
6.55491
6.48542
6.45825
6.3781
6.30576
6.28514
6.24319
6.22965
6.19787
6.18737
6.16199
6.15354
6.13294
6.12607
6.10928
6.10368
6.09001
6.08547
6.07443
6.0708
6.06208
6.05928
6.05278
6.05086
6.0469
6.04546
6.04158
6.04031
6.03731
6.03646
6.03484
6.0346
6.03491
6.03554
6.03867
6.04063
6.04819
6.05238
6.06762
6.07603
6.10658
6.12481
6.19367
6.24632
6.47364
6.82327
6.98527
7.52322
7.79925
8.75979
8.9418
8.97019
8.97506
8.97599
14.0476
11.7587
10.864
9.73341
9.30102
8.73684
8.51027
8.18774
8.0534
7.8514
7.76884
7.64815
7.58516
7.45985
7.39677
7.27683
7.2176
7.10712
7.05305
6.95315
6.90456
6.81538
6.77222
6.69341
6.65531
6.58582
6.55174
6.4884
6.4535
6.37901
6.31108
6.28434
6.24581
6.22855
6.19971
6.18641
6.16343
6.15274
6.13411
6.12542
6.11023
6.10315
6.09079
6.08505
6.07507
6.07048
6.06259
6.05906
6.0532
6.05076
6.04711
6.04528
6.0418
6.04021
6.03751
6.03645
6.035
6.0347
6.03501
6.03582
6.0387
6.04121
6.04815
6.0535
6.06753
6.07835
6.10676
6.13067
6.19676
6.26733
6.48818
6.81273
7.02027
7.51177
7.85428
8.68413
8.91151
8.96182
8.97294
8.97536
13.8296
11.8529
10.8633
9.79513
9.30134
8.76646
8.50778
8.20374
8.05084
7.86144
7.76735
7.6525
7.5808
7.46428
7.3929
7.28125
7.21419
7.11127
7.05004
6.95695
6.90192
6.81881
6.76991
6.69644
6.65327
6.58842
6.54973
6.49024
6.45034
6.37966
6.31476
6.28401
6.24757
6.22792
6.20093
6.18584
6.16438
6.15227
6.13487
6.12503
6.11085
6.10283
6.0913
6.0848
6.07549
6.07029
6.06294
6.05894
6.05348
6.05071
6.04725
6.04517
6.04194
6.04015
6.03765
6.03645
6.03511
6.03478
6.03509
6.03602
6.03875
6.04161
6.04816
6.05428
6.06756
6.07996
6.10713
6.13485
6.19968
6.28233
6.49856
6.80688
7.0439
7.50628
7.88981
8.63257
8.88829
8.95501
8.97118
8.97483
13.6907
11.9076
10.8657
9.83387
9.30332
8.78503
8.5071
8.2137
8.04973
7.86766
7.76669
7.65512
7.57824
7.4669
7.39064
7.28389
7.21222
7.11375
7.0483
6.95922
6.9004
6.82086
6.76859
6.69826
6.6521
6.58998
6.54856
6.49129
6.44841
6.38008
6.31707
6.28391
6.24865
6.22758
6.20167
6.18553
6.16496
6.152
6.13534
6.12481
6.11123
6.10266
6.09161
6.08466
6.07574
6.07018
6.06315
6.05887
6.05365
6.05068
6.04734
6.04511
6.04203
6.04012
6.03773
6.03645
6.03518
6.03484
6.03515
6.03615
6.03879
6.04186
6.04819
6.05476
6.06762
6.08098
6.10747
6.13754
6.20189
6.29199
6.50527
6.80387
7.05852
7.50394
7.91097
8.60049
8.87264
8.95024
8.96991
8.97445
13.623
11.9326
10.8677
9.85257
9.30479
8.79398
8.50703
8.21848
8.04935
7.87065
7.76646
7.65635
7.57706
7.46812
7.38961
7.28511
7.21132
7.11491
7.04751
6.96029
6.89971
6.82182
6.76799
6.69912
6.65157
6.5907
6.54802
6.49177
6.44749
6.38028
6.31818
6.28389
6.24917
6.22743
6.20203
6.18539
6.16523
6.15188
6.13556
6.12471
6.11141
6.10258
6.09176
6.08459
6.07586
6.07014
6.06325
6.05884
6.05373
6.05068
6.04738
6.04508
6.04207
6.0401
6.03778
6.03645
6.03522
6.03486
6.03518
6.03621
6.03881
6.04198
6.04821
6.055
6.06767
6.08148
6.10767
6.13886
6.20307
6.29671
6.50855
6.80262
7.06551
7.50315
7.92083
8.58511
8.86478
8.94777
8.96925
8.97425
-13.7633
-11.9578
-10.7287
-9.38955
-8.57915
-7.68731
-7.12536
-6.47348
-6.05844
-5.57634
-5.28289
-4.95724
-4.71961
-4.39106
-4.15535
-3.8436
-3.62573
-3.34448
-3.15019
-2.90199
-2.7314
-2.51449
-2.36565
-2.17662
-2.04656
-1.88055
-1.76396
-1.6099
-1.48743
-1.29969
-1.12389
-1.02523
-0.922833
-0.85746
-0.779305
-0.727147
-0.662618
-0.619059
-0.564662
-0.527823
-0.48169
-0.450438
-0.41131
-0.384864
-0.351866
-0.329736
-0.302417
-0.284512
-0.263097
-0.249881
-0.234977
-0.224
-0.20871
-0.197693
-0.183062
-0.172811
-0.159545
-0.150371
-0.13864
-0.130592
-0.120388
-0.113468
-0.104834
-0.0992137
-0.0926477
-0.0892894
-0.0872424
-0.0906805
-0.104927
-0.138832
-0.228896
-0.37497
-0.52952
-0.81596
-1.1186
-1.62769
-1.84305
-1.90704
-1.92361
-1.92747
-13.8355
-11.9347
-10.7332
-9.36841
-8.58241
-7.67412
-7.12896
-6.46401
-6.06113
-5.5688
-5.28418
-4.95372
-4.72325
-4.38735
-4.15839
-3.83985
-3.62827
-3.34101
-3.15235
-2.89889
-2.73326
-2.51177
-2.36726
-2.17426
-2.048
-1.87858
-1.76546
-1.60864
-1.49004
-1.29921
-1.12081
-1.02538
-0.921355
-0.857974
-0.778268
-0.727645
-0.661781
-0.619495
-0.563962
-0.528196
-0.481097
-0.450755
-0.410804
-0.385128
-0.351433
-0.329945
-0.302042
-0.284654
-0.262771
-0.24995
-0.234821
-0.224174
-0.20854
-0.197838
-0.182888
-0.172933
-0.159383
-0.150474
-0.138494
-0.130679
-0.120258
-0.113537
-0.104714
-0.0992523
-0.0925201
-0.0892376
-0.0870237
-0.0902488
-0.104141
-0.136586
-0.226656
-0.374631
-0.524245
-0.815312
-1.11034
-1.63944
-1.8491
-1.90894
-1.92412
-1.92762
-13.9838
-11.8837
-10.7441
-9.32412
-8.59057
-7.6464
-7.13736
-6.44407
-6.0674
-5.55296
-5.28732
-4.94621
-4.73111
-4.37937
-4.16503
-3.83182
-3.63385
-3.33359
-3.1571
-2.89228
-2.73735
-2.50597
-2.37082
-2.16924
-2.05118
-1.87436
-1.76871
-1.60586
-1.49555
-1.29824
-1.11441
-1.02588
-0.918254
-0.859143
-0.776069
-0.728754
-0.660003
-0.620463
-0.562473
-0.529025
-0.479835
-0.451458
-0.409729
-0.385714
-0.350513
-0.330412
-0.301248
-0.284977
-0.262083
-0.250112
-0.234488
-0.224549
-0.208174
-0.198155
-0.182515
-0.173199
-0.159035
-0.150701
-0.138182
-0.130871
-0.11998
-0.113692
-0.10446
-0.0993425
-0.0922553
-0.0891437
-0.086588
-0.089391
-0.102614
-0.132036
-0.2221
-0.374227
-0.513311
-0.814506
-1.09272
-1.66396
-1.86115
-1.91262
-1.92509
-1.92791
-14.216
-11.7943
-10.7663
-9.25237
-8.60715
-7.60129
-7.15313
-6.41146
-6.07919
-5.52717
-5.29347
-4.93367
-4.74444
-4.36589
-4.17642
-3.81839
-3.64351
-3.32123
-3.1654
-2.88128
-2.74451
-2.49634
-2.37704
-2.16088
-2.0567
-1.8673
-1.77425
-1.60097
-1.50454
-1.29674
-1.1042
-1.02715
-0.913215
-0.861274
-0.772443
-0.730723
-0.65706
-0.622171
-0.560005
-0.530486
-0.477743
-0.452697
-0.407948
-0.38675
-0.348991
-0.331244
-0.29994
-0.285567
-0.26096
-0.250422
-0.233928
-0.225182
-0.207556
-0.198698
-0.18189
-0.173661
-0.158456
-0.151096
-0.137663
-0.131207
-0.119519
-0.113965
-0.104043
-0.0995123
-0.0918322
-0.0890284
-0.0859387
-0.0881171
-0.100439
-0.125061
-0.215062
-0.374344
-0.495894
-0.814619
-1.06337
-1.70345
-1.87902
-1.91787
-1.92646
-1.92832
-14.5452
-11.6491
-10.8079
-9.14589
-8.63817
-7.53388
-7.18065
-6.36248
-6.09977
-5.48865
-5.30468
-4.91431
-4.76536
-4.34486
-4.19457
-3.79764
-3.65908
-3.30222
-3.17883
-2.86439
-2.75613
-2.48155
-2.38713
-2.14805
-2.06564
-1.85638
-1.78301
-1.59302
-1.51799
-1.29463
-1.08938
-1.02989
-0.905699
-0.864883
-0.766936
-0.733973
-0.652568
-0.624973
-0.556234
-0.532878
-0.474546
-0.454726
-0.405227
-0.388449
-0.34667
-0.332619
-0.297956
-0.286567
-0.259276
-0.250972
-0.23306
-0.226172
-0.206588
-0.19956
-0.180924
-0.174403
-0.157564
-0.151736
-0.136866
-0.131754
-0.118814
-0.114413
-0.103411
-0.0998088
-0.0912148
-0.0889253
-0.0850794
-0.086438
-0.0977731
-0.115471
-0.205254
-0.375972
-0.470589
-0.81753
-1.01838
-1.76152
-1.90237
-1.92432
-1.92808
-1.9288
-14.9901
-11.4217
-10.8823
-8.99324
-8.69306
-7.43643
-7.22678
-6.29129
-6.13429
-5.43305
-5.32414
-4.88529
-4.79713
-4.31303
-4.22258
-3.76657
-3.68339
-3.27388
-3.19991
-2.83926
-2.7744
-2.45955
-2.40302
-2.12895
-2.07966
-1.84004
-1.79644
-1.58047
-1.53738
-1.29179
-1.06872
-1.03523
-0.894851
-0.87078
-0.758831
-0.739162
-0.645926
-0.629422
-0.550649
-0.536671
-0.469809
-0.457945
-0.401198
-0.391151
-0.343242
-0.334821
-0.295043
-0.288205
-0.256834
-0.251907
-0.231752
-0.227671
-0.205118
-0.200888
-0.179474
-0.175559
-0.156233
-0.152738
-0.135679
-0.132615
-0.117768
-0.115127
-0.102484
-0.100306
-0.090346
-0.0888852
-0.0840126
-0.0843606
-0.0948531
-0.102997
-0.192208
-0.380643
-0.435192
-0.826286
-0.951689
-1.84368
-1.93047
-1.9315
-1.92984
-1.92931
-15.5779
-11.0732
-11.0107
-8.77704
-8.78621
-7.2971
-7.30194
-6.18897
-6.19059
-5.35376
-5.35681
-4.84225
-4.84476
-4.26545
-4.26522
-3.72058
-3.72075
-3.23211
-3.23246
-2.8023
-2.80268
-2.42724
-2.42761
-2.10087
-2.1013
-1.81586
-1.81677
-1.56101
-1.56487
-1.28806
-1.04049
-1.04484
-0.879354
-0.880195
-0.747038
-0.747297
-0.636218
-0.636365
-0.542474
-0.542582
-0.462875
-0.46296
-0.395304
-0.395369
-0.338235
-0.338278
-0.290814
-0.290826
-0.253335
-0.253453
-0.229802
-0.22991
-0.202918
-0.202904
-0.177325
-0.177332
-0.154269
-0.154284
-0.133934
-0.133948
-0.116235
-0.116241
-0.10114
-0.101115
-0.089138
-0.0889823
-0.0827376
-0.081878
-0.0920277
-0.0872823
-0.175194
-0.390671
-0.386332
-0.845669
-0.854337
-1.95805
-1.962
-1.93878
-1.93154
-1.92979
-16.3458
-10.547
-11.226
-8.47112
-8.9393
-7.09803
-7.42182
-6.04206
-6.28043
-5.24089
-5.41019
-4.77854
-4.91566
-4.19472
-4.32964
-3.6528
-3.77767
-3.1708
-3.28223
-2.74813
-2.846
-2.37989
-2.46529
-2.05971
-2.13437
-1.78022
-1.84736
-1.53117
-1.60359
-1.28317
-1.00219
-1.06125
-0.857206
-0.894972
-0.729912
-0.759888
-0.622062
-0.647071
-0.530542
-0.551687
-0.452752
-0.470687
-0.386702
-0.401877
-0.330944
-0.343638
-0.284687
-0.294948
-0.248333
-0.255951
-0.226904
-0.233234
-0.199639
-0.205944
-0.174155
-0.180029
-0.151384
-0.156645
-0.131375
-0.135991
-0.113994
-0.11796
-0.0991928
-0.102403
-0.0874579
-0.0893236
-0.081248
-0.0789558
-0.0897986
-0.0678614
-0.153077
-0.409491
-0.318926
-0.883079
-0.713183
-2.1164
-1.99461
-1.94543
-1.93302
-1.93021
-17.3457
-9.7617
-11.5787
-8.0363
-9.18477
-6.81235
-7.60984
-5.83044
-6.42139
-5.07966
-5.49561
-4.68408
-5.02088
-4.08976
-4.42653
-3.55296
-3.86387
-3.08075
-3.35783
-2.66868
-2.91188
-2.31048
-2.52262
-1.99933
-2.1846
-1.72774
-1.8933
-1.48578
-1.65803
-1.2767
-0.950284
-1.08819
-0.825389
-0.917865
-0.704986
-0.779194
-0.601396
-0.663442
-0.513105
-0.565598
-0.437955
-0.482493
-0.374136
-0.41183
-0.320309
-0.351864
-0.275794
-0.301347
-0.241164
-0.259917
-0.222592
-0.238157
-0.194766
-0.210509
-0.169478
-0.184108
-0.147143
-0.160229
-0.127621
-0.139099
-0.110715
-0.12059
-0.0963676
-0.104418
-0.0851062
-0.0900634
-0.0795276
-0.0755087
-0.0888814
-0.0441549
-0.124113
-0.44219
-0.225332
-0.949851
-0.509104
-2.33576
-2.02432
-1.95061
-1.93413
-1.93051
-18.6492
-8.60065
-12.146
-7.41414
-9.57138
-6.40019
-7.90125
-5.52432
-6.63997
-4.84844
-5.63044
-4.54399
-5.17713
-3.93438
-4.57214
-3.40604
-3.99412
-2.94858
-3.47236
-2.55221
-3.01181
-2.20879
-2.60962
-1.91086
-2.26076
-1.65059
-1.96238
-1.41743
-1.73482
-1.26823
-0.879987
-1.13133
-0.779527
-0.953138
-0.668729
-0.808732
-0.571276
-0.688448
-0.487684
-0.586844
-0.41639
-0.500534
-0.355836
-0.427062
-0.304851
-0.364496
-0.262927
-0.311267
-0.230922
-0.266211
-0.216244
-0.245519
-0.187602
-0.21742
-0.162645
-0.19032
-0.140964
-0.165704
-0.122163
-0.143861
-0.10596
-0.124638
-0.0923005
-0.107577
-0.0818283
-0.0914675
-0.0775867
-0.0714062
-0.0903225
-0.0154956
-0.0856492
-0.496297
-0.0940925
-1.06323
-0.214322
-2.64062
-2.04449
-1.95347
-1.93468
-1.93064
18.6492
8.60065
12.146
7.41414
9.57138
6.40019
7.90125
5.52432
6.63997
4.84844
5.63043
4.54399
5.17713
3.93438
4.57214
3.40603
3.99412
2.94858
3.47236
2.55221
3.01181
2.20879
2.60962
1.91086
2.26076
1.65059
1.96238
1.41743
1.73482
1.26823
0.879985
1.13133
0.779526
0.953138
0.668728
0.808732
0.571275
0.688448
0.487683
0.586843
0.416389
0.500534
0.355836
0.427062
0.304851
0.364496
0.262926
0.311267
0.230922
0.266211
0.216244
0.245519
0.187601
0.21742
0.162644
0.19032
0.140964
0.165704
0.122162
0.143861
0.10596
0.124638
0.0923003
0.107577
0.0818281
0.0914676
0.0775866
0.0714063
0.0903224
0.0154957
0.085649
0.496296
0.0940925
1.06322
0.214322
2.64062
2.04449
1.95347
1.93469
1.93064
17.3457
9.7617
11.5787
8.0363
9.18477
6.81235
7.60985
5.83045
6.42139
5.07966
5.49561
4.68409
5.02088
4.08976
4.42654
3.55297
3.86387
3.08075
3.35783
2.66868
2.91188
2.31048
2.52262
1.99934
2.1846
1.72774
1.8933
1.48579
1.65803
1.2767
0.950285
1.08819
0.825391
0.917867
0.704987
0.779196
0.601397
0.663443
0.513106
0.5656
0.437956
0.482495
0.374137
0.411832
0.32031
0.351866
0.275795
0.301348
0.241165
0.259918
0.222593
0.238158
0.194767
0.21051
0.169479
0.184109
0.147144
0.16023
0.127622
0.1391
0.110716
0.120591
0.0963682
0.104419
0.0851067
0.090064
0.0795281
0.0755093
0.0888818
0.0441554
0.124114
0.44219
0.225332
0.94985
0.509104
2.33576
2.02432
1.95061
1.93412
1.93051
16.3458
10.547
11.226
8.47113
8.93931
7.09803
7.42182
6.04207
6.28043
5.24089
5.41019
4.77855
4.91566
4.19473
4.32964
3.65281
3.77768
3.1708
3.28224
2.74814
2.84601
2.37989
2.4653
2.05971
2.13438
1.78023
1.84737
1.53117
1.60359
1.28317
1.00219
1.06125
0.85721
0.894976
0.729915
0.759892
0.622065
0.647075
0.530545
0.55169
0.452754
0.47069
0.386704
0.401879
0.330946
0.34364
0.284689
0.29495
0.248335
0.255953
0.226906
0.233236
0.199641
0.205946
0.174156
0.180031
0.151385
0.156647
0.131376
0.135992
0.113995
0.117962
0.0991941
0.102404
0.0874591
0.0893248
0.081249
0.0789568
0.0897995
0.0678622
0.153078
0.409491
0.318927
0.883079
0.713183
2.1164
1.99461
1.94543
1.93302
1.93021
15.5779
11.0732
11.0107
8.77704
8.78622
7.29711
7.30195
6.18898
6.19059
5.35377
5.35682
4.84226
4.84476
4.26546
4.26523
3.72059
3.72076
3.23212
3.23246
2.80231
2.80269
2.42724
2.42762
2.10088
2.1013
1.81586
1.81677
1.56102
1.56487
1.28807
1.0405
1.04484
0.879358
0.880199
0.747043
0.747301
0.636221
0.636369
0.542478
0.542585
0.462878
0.462963
0.395306
0.395372
0.338238
0.338281
0.290816
0.290828
0.253337
0.253455
0.229805
0.229912
0.20292
0.202906
0.177327
0.177334
0.154271
0.154286
0.133935
0.133949
0.116236
0.116243
0.101141
0.101116
0.0891393
0.0889836
0.0827388
0.0818792
0.0920287
0.0872832
0.175195
0.390671
0.386333
0.845669
0.854337
1.95805
1.96199
1.93878
1.93154
1.92979
14.9902
11.4217
10.8823
8.99325
8.69307
7.43644
7.22679
6.2913
6.1343
5.43306
5.32415
4.8853
4.79714
4.31304
4.22259
3.76657
3.6834
3.27388
3.19992
2.83927
2.77441
2.45956
2.40303
2.12896
2.07967
1.84005
1.79645
1.58048
1.53739
1.2918
1.06873
1.03523
0.894856
0.870784
0.758836
0.739167
0.64593
0.629426
0.550652
0.536675
0.469813
0.457948
0.401201
0.391154
0.343244
0.334823
0.295046
0.288207
0.256836
0.251909
0.231754
0.227673
0.205121
0.20089
0.179476
0.175561
0.156235
0.15274
0.135681
0.132617
0.11777
0.115128
0.102486
0.100307
0.0903474
0.0888866
0.0840139
0.0843618
0.0948543
0.102998
0.192209
0.380644
0.435192
0.826286
0.951689
1.84368
1.93047
1.9315
1.92983
1.9293
14.5452
11.6491
10.8079
9.1459
8.63818
7.53389
7.18066
6.36249
6.09978
5.48866
5.30468
4.91432
4.76536
4.34487
4.19457
3.79765
3.65909
3.30223
3.17884
2.8644
2.75614
2.48155
2.38714
2.14806
2.06565
1.85639
1.78302
1.59303
1.518
1.29463
1.08938
1.0299
0.905704
0.864887
0.76694
0.733977
0.652572
0.624976
0.556237
0.532882
0.474549
0.454729
0.40523
0.388452
0.346673
0.332622
0.297959
0.28657
0.259278
0.250974
0.233062
0.226174
0.20659
0.199562
0.180926
0.174405
0.157566
0.151738
0.136868
0.131756
0.118816
0.114415
0.103413
0.0998104
0.0912162
0.0889267
0.0850807
0.0864393
0.0977743
0.115472
0.205255
0.375972
0.47059
0.817531
1.01838
1.76152
1.90237
1.92432
1.92808
1.9288
14.216
11.7943
10.7663
9.25238
8.60716
7.6013
7.15314
6.41147
6.07919
5.52718
5.29348
4.93368
4.74445
4.3659
4.17643
3.8184
3.64352
3.32124
3.16541
2.88129
2.74452
2.49634
2.37704
2.16089
2.05671
1.8673
1.77426
1.60098
1.50455
1.29674
1.10421
1.02715
0.913219
0.861278
0.772448
0.730727
0.657064
0.622175
0.560009
0.53049
0.477747
0.4527
0.407951
0.386753
0.348994
0.331247
0.299943
0.285569
0.260963
0.250424
0.23393
0.225184
0.207558
0.1987
0.181893
0.173663
0.158458
0.151098
0.137665
0.131209
0.119521
0.113966
0.104045
0.0995138
0.0918336
0.0890299
0.0859401
0.0881183
0.10044
0.125062
0.215064
0.374345
0.495894
0.814619
1.06337
1.70345
1.87902
1.91786
1.92645
1.92832
13.9838
11.8837
10.7441
9.32412
8.59057
7.64641
7.13737
6.44407
6.06741
5.55297
5.28732
4.94622
4.73112
4.37938
4.16504
3.83183
3.63385
3.3336
3.15711
2.89229
2.73736
2.50598
2.37083
2.16925
2.05118
1.87437
1.76872
1.60586
1.49556
1.29825
1.11441
1.02588
0.918258
0.859147
0.776074
0.728758
0.660007
0.620467
0.562477
0.529029
0.479839
0.451461
0.409732
0.385717
0.350516
0.330415
0.301251
0.28498
0.262086
0.250114
0.23449
0.224551
0.208177
0.198157
0.182517
0.173202
0.159037
0.150703
0.138184
0.130873
0.119982
0.113693
0.104462
0.099344
0.0922567
0.0891451
0.0865893
0.0893923
0.102615
0.132037
0.222101
0.374228
0.513312
0.814506
1.09272
1.66396
1.86115
1.91262
1.92509
1.92791
13.8355
11.9347
10.7332
9.36842
8.58242
7.67412
7.12897
6.46402
6.06114
5.56881
5.28419
4.95373
4.72326
4.38736
4.1584
3.83986
3.62828
3.34102
3.15236
2.8989
2.73326
2.51178
2.36727
2.17427
2.04801
1.87859
1.76546
1.60865
1.49005
1.29922
1.12081
1.02539
0.921359
0.857978
0.778272
0.727649
0.661785
0.619499
0.563966
0.528199
0.4811
0.450758
0.410807
0.385131
0.351435
0.329948
0.302045
0.284656
0.262773
0.249952
0.234824
0.224176
0.208542
0.19784
0.18289
0.172935
0.159385
0.150476
0.138496
0.13068
0.120259
0.113539
0.104715
0.0992538
0.0925215
0.0892389
0.087025
0.09025
0.104142
0.136588
0.226657
0.374632
0.524246
0.815312
1.11034
1.63944
1.8491
1.90894
1.92412
1.92762
13.7633
11.9578
10.7287
9.38956
8.57915
7.68731
7.12537
6.47349
6.05845
5.57635
5.2829
4.95725
4.71961
4.39106
4.15536
3.84361
3.62574
3.34449
3.15019
2.902
2.73141
2.51449
2.36566
2.17662
2.04657
1.88056
1.76396
1.60991
1.48744
1.29969
1.12389
1.02523
0.922837
0.857464
0.779309
0.727151
0.662621
0.619063
0.564666
0.527826
0.481693
0.450441
0.411312
0.384867
0.351868
0.329738
0.30242
0.284515
0.2631
0.249883
0.234979
0.224002
0.208712
0.197695
0.183064
0.172813
0.159547
0.150372
0.138642
0.130593
0.12039
0.113469
0.104835
0.0992151
0.092649
0.0892906
0.0872437
0.0906817
0.104928
0.138834
0.228897
0.374971
0.529521
0.81596
1.1186
1.62769
1.84305
1.90704
1.92361
1.92746
-13.6265
-11.9376
-10.8745
-9.86309
-9.31949
-8.81665
-8.5388
-8.26763
-8.11708
-7.96832
-7.86573
-7.72992
-7.63423
-7.50955
-7.42257
-7.31023
-7.2321
-7.13147
-7.06165
-6.97194
-6.90989
-6.83042
-6.77563
-6.70568
-6.65746
-6.59582
-6.55263
-6.49578
-6.45106
-6.38322
-6.32055
-6.28597
-6.25096
-6.22905
-6.20344
-6.18667
-6.16637
-6.15292
-6.13647
-6.12555
-6.11215
-6.10326
-6.09236
-6.08515
-6.07635
-6.07059
-6.06365
-6.05921
-6.05407
-6.05099
-6.04767
-6.04535
-6.04232
-6.04033
-6.03798
-6.03665
-6.03539
-6.03502
-6.03532
-6.03635
-6.03893
-6.04209
-6.04831
-6.05509
-6.06775
-6.08155
-6.10774
-6.13892
-6.20312
-6.29676
-6.5086
-6.80266
-7.06554
-7.50317
-7.92086
-8.58513
-8.8648
-8.9478
-8.96927
-8.97427
-13.6941
-11.9125
-10.8724
-9.84438
-9.31785
-8.80765
-8.53853
-8.26281
-8.11701
-7.96647
-7.86706
-7.72832
-7.63539
-7.50804
-7.42358
-7.30886
-7.233
-7.13024
-7.06244
-6.97084
-6.91058
-6.82944
-6.77623
-6.70481
-6.658
-6.59508
-6.55318
-6.4953
-6.45198
-6.38301
-6.31943
-6.28599
-6.25044
-6.22919
-6.20309
-6.18681
-6.16609
-6.15304
-6.13625
-6.12565
-6.11197
-6.10334
-6.09221
-6.08521
-6.07623
-6.07063
-6.06355
-6.05924
-6.05399
-6.051
-6.04762
-6.04538
-6.04228
-6.04035
-6.03794
-6.03664
-6.03536
-6.035
-6.03529
-6.03628
-6.03891
-6.04197
-6.04829
-6.05485
-6.0677
-6.08105
-6.10754
-6.1376
-6.20195
-6.29204
-6.50531
-6.80391
-7.05855
-7.50397
-7.911
-8.60051
-8.87267
-8.95026
-8.96993
-8.97447
-13.8329
-11.8578
-10.8699
-9.80561
-9.31557
-8.78901
-8.53852
-8.25278
-8.11712
-7.96258
-7.86996
-7.72488
-7.63793
-7.50482
-7.4258
-7.30593
-7.23498
-7.12761
-7.06419
-6.96847
-6.91211
-6.82733
-6.77756
-6.70295
-6.65917
-6.5935
-6.55436
-6.49423
-6.45393
-6.38259
-6.3171
-6.28609
-6.24934
-6.22954
-6.20234
-6.18713
-6.16551
-6.15331
-6.13578
-6.12587
-6.11159
-6.10352
-6.0919
-6.08535
-6.07598
-6.07074
-6.06334
-6.05931
-6.05381
-6.05102
-6.04754
-6.04545
-6.04219
-6.04038
-6.03786
-6.03664
-6.03528
-6.03494
-6.03524
-6.03616
-6.03887
-6.04172
-6.04826
-6.05437
-6.06764
-6.08003
-6.10719
-6.13491
-6.19974
-6.28238
-6.4986
-6.80691
-7.04393
-7.50631
-7.88984
-8.63259
-8.88832
-8.95504
-8.9712
-8.97485
-14.0507
-11.7636
-10.8704
-9.74386
-9.31474
-8.75932
-8.53992
-8.23676
-8.118
-7.95621
-7.87496
-7.71911
-7.64231
-7.49943
-7.42966
-7.30105
-7.23841
-7.12322
-7.06723
-6.96454
-6.91478
-6.82382
-6.77989
-6.69986
-6.66123
-6.59086
-6.55638
-6.49237
-6.45712
-6.38193
-6.31339
-6.28641
-6.24756
-6.23017
-6.20111
-6.18771
-6.16455
-6.15379
-6.13501
-6.12626
-6.11096
-6.10384
-6.09139
-6.08561
-6.07555
-6.07093
-6.06299
-6.05943
-6.05353
-6.05107
-6.0474
-6.04555
-6.04204
-6.04044
-6.03772
-6.03664
-6.03517
-6.03486
-6.03515
-6.03596
-6.03882
-6.04132
-6.04824
-6.05359
-6.06761
-6.07842
-6.10683
-6.13074
-6.19682
-6.26738
-6.48822
-6.81277
-7.0203
-7.51179
-7.8543
-8.68416
-8.91153
-8.96184
-8.97297
-8.97538
-14.36
-11.6137
-10.8802
-9.65422
-9.31897
-8.71619
-8.54468
-8.21335
-8.12059
-7.94661
-7.88294
-7.71019
-7.64933
-7.49111
-7.43587
-7.29353
-7.24394
-7.11646
-7.07213
-6.95848
-6.91909
-6.81844
-6.78366
-6.69512
-6.66455
-6.58679
-6.55959
-6.48935
-6.46191
-6.381
-6.30802
-6.28722
-6.24493
-6.23128
-6.19926
-6.18867
-6.1631
-6.15459
-6.13384
-6.12692
-6.11001
-6.10437
-6.0906
-6.08603
-6.07491
-6.07126
-6.06247
-6.05965
-6.05311
-6.05117
-6.04718
-6.04573
-6.04182
-6.04054
-6.03752
-6.03666
-6.03501
-6.03476
-6.03505
-6.03567
-6.03879
-6.04074
-6.04829
-6.05247
-6.0677
-6.07611
-6.10664
-6.12487
-6.19372
-6.24637
-6.47368
-6.82331
-6.9853
-7.52324
-7.79928
-8.75982
-8.94182
-8.97021
-8.97508
-8.97601
-14.7792
-11.3832
-10.9098
-9.52894
-9.33389
-8.65581
-8.55582
-8.1804
-8.12642
-7.93261
-7.89529
-7.69678
-7.66025
-7.47868
-7.44556
-7.2823
-7.25258
-7.10637
-7.07981
-6.94946
-6.92585
-6.81041
-6.78958
-6.68805
-6.66976
-6.58069
-6.56451
-6.48463
-6.46883
-6.37976
-6.30056
-6.28888
-6.24115
-6.23311
-6.19654
-6.19023
-6.16096
-6.15588
-6.13211
-6.12797
-6.1086
-6.10522
-6.08945
-6.08672
-6.07398
-6.07178
-6.06171
-6.06002
-6.0525
-6.05136
-6.04686
-6.046
-6.04149
-6.04072
-6.03723
-6.03671
-6.0348
-6.03464
-6.03493
-6.03529
-6.0388
-6.03994
-6.04847
-6.05091
-6.06807
-6.07291
-6.10695
-6.11698
-6.19127
-6.21838
-6.45426
-6.84135
-6.93527
-7.54517
-7.71688
-8.86662
-8.97826
-8.97952
-8.97736
-8.97667
-15.3342
-11.0359
-10.9756
-9.35623
-9.36814
-8.57231
-8.57798
-8.1346
-8.13786
-7.91234
-7.91408
-7.67689
-7.67697
-7.4603
-7.46045
-7.26573
-7.26589
-7.09149
-7.09164
-6.93616
-6.93629
-6.7986
-6.79872
-6.67766
-6.6778
-6.57167
-6.57198
-6.47734
-6.47869
-6.37812
-6.29039
-6.29198
-6.23578
-6.23609
-6.19262
-6.19272
-6.15786
-6.15791
-6.1296
-6.12963
-6.10655
-6.10658
-6.08778
-6.0878
-6.07261
-6.07263
-6.06061
-6.06062
-6.05164
-6.05167
-6.0464
-6.04642
-6.04101
-6.041
-6.03682
-6.03681
-6.03451
-6.03449
-6.03481
-6.03478
-6.03891
-6.03885
-6.0489
-6.04876
-6.06894
-6.06854
-6.10821
-6.10652
-6.1907
-6.18203
-6.42878
-6.87112
-6.8646
-7.58462
-7.59535
-9.01495
-9.01912
-8.98897
-8.97958
-8.97731
-16.0611
-10.519
-11.1038
-9.11828
-9.43469
-8.45674
-8.61811
-8.07093
-8.15844
-7.88298
-7.94243
-7.64752
-7.70235
-7.43326
-7.48314
-7.24136
-7.28617
-7.06964
-7.10969
-6.91664
-6.95224
-6.78128
-6.81272
-6.66241
-6.69009
-6.55839
-6.58325
-6.46621
-6.49262
-6.37597
-6.27666
-6.2974
-6.22815
-6.24082
-6.18695
-6.19659
-6.15336
-6.16108
-6.12595
-6.13222
-6.10357
-6.10868
-6.08536
-6.0895
-6.07065
-6.07395
-6.05903
-6.06158
-6.05042
-6.0522
-6.04573
-6.04706
-6.04032
-6.04145
-6.03624
-6.037
-6.03413
-6.03434
-6.03471
-6.03411
-6.03918
-6.03734
-6.04973
-6.04579
-6.07062
-6.06256
-6.11113
-6.09263
-6.19385
-6.13547
-6.39548
-6.91884
-6.76487
-7.65244
-7.41747
-9.21989
-9.06135
-8.99759
-8.98151
-8.97786
-17.0097
-9.75703
-11.3348
-8.78824
-9.55302
-8.2956
-8.68657
-7.98187
-8.19353
-7.84023
-7.98495
-7.60415
-7.7407
-7.39345
-7.5175
-7.20552
-7.31691
-7.03752
-7.13707
-6.88797
-6.97645
-6.75586
-6.83398
-6.64005
-6.70876
-6.53885
-6.6002
-6.44933
-6.51228
-6.37312
-6.25812
-6.30641
-6.21725
-6.24821
-6.17874
-6.20259
-6.14681
-6.16597
-6.12064
-6.13621
-6.09925
-6.11193
-6.08183
-6.09211
-6.06779
-6.07601
-6.05676
-6.06308
-6.04869
-6.05306
-6.04474
-6.04802
-6.03931
-6.04216
-6.03543
-6.03734
-6.03363
-6.03417
-6.03464
-6.03321
-6.03973
-6.03527
-6.05122
-6.04168
-6.07362
-6.05433
-6.11674
-6.07395
-6.20338
-6.07617
-6.35165
-6.99366
-6.62348
-7.76517
-7.1581
-9.50328
-9.09979
-9.0043
-8.98294
-8.97826
-18.2484
-8.64178
-11.7307
-8.32569
-9.75218
-8.06847
-8.79881
-7.8561
-8.25118
-7.7775
-8.04844
-7.54004
-7.79834
-7.33474
-7.56925
-7.1527
-7.36323
-6.99019
-7.17834
-6.84575
-7.01297
-6.71844
-6.86608
-6.60714
-6.73692
-6.51002
-6.62559
-6.42387
-6.53998
-6.36927
-6.23302
-6.32089
-6.2015
-6.25959
-6.16678
-6.21174
-6.13725
-6.1734
-6.11288
-6.14227
-6.09292
-6.11686
-6.07667
-6.09609
-6.06362
-6.07915
-6.05344
-6.0654
-6.04619
-6.05441
-6.04328
-6.04945
-6.03782
-6.04323
-6.03425
-6.0379
-6.03295
-6.034
-6.03464
-6.03198
-6.04071
-6.03238
-6.05371
-6.0359
-6.07866
-6.04281
-6.12654
-6.04837
-6.22318
-6.00075
-6.29316
-7.10897
-6.42162
-7.94786
-6.78066
-9.89665
-9.12595
-9.00809
-8.98375
-8.97851
)
;

boundaryField
{
    F1_1
    {
        type            calculated;
        value           nonuniform List<scalar> 
80
(
18.9505
7.97329
11.9791
8.04081
9.87577
7.90456
8.86781
7.71454
8.28868
7.55108
7.9031
7.48915
7.75831
7.28651
7.55867
7.10987
7.36519
6.95282
7.1858
6.81328
7.0226
6.69031
6.87623
6.58282
6.74684
6.48903
6.63531
6.40552
6.55166
6.36434
6.21711
6.32736
6.19089
6.26458
6.1586
6.21575
6.13069
6.17667
6.10756
6.14494
6.08858
6.11904
6.07314
6.09784
6.06075
6.08052
6.05116
6.06638
6.04444
6.05489
6.04215
6.04999
6.03673
6.04362
6.03339
6.03802
6.03241
6.03373
6.03455
6.03112
6.04124
6.03056
6.05519
6.03241
6.08174
6.036
6.13266
6.03347
6.23617
5.95847
6.25958
7.17872
6.30273
8.06045
6.55697
10.1255
9.13462
9.00911
8.98397
8.97859
)
;
    }
    F1_2
    {
        type            calculated;
        value           nonuniform List<scalar> 
80
(
-19.3873
-7.90904
-12.495
-7.0475
-9.8073
-6.15654
-8.07811
-5.3432
-6.77265
-4.71212
-5.71284
-4.46034
-5.27053
-3.8417
-4.65958
-3.31858
-4.0725
-2.86998
-3.54134
-2.48298
-3.07204
-2.14837
-2.66206
-1.8583
-2.30666
-1.60471
-2.00391
-1.37642
-1.77981
-1.26345
-0.839557
-1.15782
-0.752444
-0.974524
-0.647254
-0.826601
-0.553427
-0.703569
-0.472619
-0.599691
-0.403613
-0.511447
-0.344999
-0.436282
-0.295705
-0.372153