/*--------------------------------*- C++ -*----------------------------------*\
| =========                 |                                                 |
| \\      /  F ield         | OpenFOAM: The Open Source CFD Toolbox           |
|  \\    /   O peration     | Version:  5.x                                   |
|   \\  /    A nd           | Web:      www.OpenFOAM.org                      |
|    \\/     M anipulation  |                                                 |
\*---------------------------------------------------------------------------*/
FoamFile
{
    version     2.0;
    format      ascii;
    class       volScalarField;
    location    "12.8001";
    object      gradTx;
}
// * * * * * * * * * * * * * * * * * * * * * * * * * * * * * * * * * * * * * //

dimensions      [0 -1 0 1 0 0 0];

internalField   nonuniform List<scalar> 
6300
(
-31.9207
-31.9915
-32.1324
-32.3419
-32.6178
-32.957
-33.3552
-33.807
-34.3057
-34.8431
-35.4099
-35.9957
-36.5894
-37.1799
-37.7563
-31.8499
-31.9214
-32.0637
-32.2754
-32.5546
-32.898
-33.3016
-33.7602
-34.2669
-34.8136
-35.3908
-35.9878
-36.5927
-37.1938
-37.7796
-31.7077
-31.7805
-31.9255
-32.1416
-32.427
-32.7787
-33.1931
-33.6651
-34.188
-34.7537
-35.3521
-35.9718
-36.5999
-37.2231
-37.8283
-31.4926
-31.5673
-31.7162
-31.9386
-32.2329
-32.5968
-33.0271
-33.5191
-34.0664
-34.6609
-35.2921
-35.9473
-36.612
-37.2703
-37.9064
-31.2028
-31.2798
-31.4335
-31.6636
-31.9691
-32.3485
-32.7993
-33.3176
-33.8977
-34.5315
-35.2081
-35.9134
-36.6305
-37.3397
-38.0209
-30.836
-30.9155
-31.0745
-31.3132
-31.6314
-32.0287
-32.5039
-33.0543
-33.6752
-34.3592
-35.0952
-35.8678
-36.6567
-37.4373
-38.1823
-30.3898
-30.4716
-30.6358
-30.8831
-31.2145
-31.6311
-32.1333
-32.7204
-33.3896
-34.1349
-34.9458
-35.8058
-36.6912
-37.5705
-38.406
-29.8616
-29.9454
-30.1139
-30.3688
-30.7125
-31.1479
-31.6778
-32.3044
-33.0278
-33.845
-34.7474
-35.7186
-36.7318
-37.7475
-38.7133
-29.2496
-29.3345
-29.5055
-29.7656
-30.1187
-30.5701
-31.1257
-31.7915
-32.5723
-33.4699
-34.4801
-35.5894
-36.7699
-37.9745
-39.1323
-28.5528
-28.6372
-28.8081
-29.0693
-29.4266
-29.888
-30.4633
-31.1635
-32
-32.9821
-34.114
-35.3891
-36.7839
-38.2486
-39.695
-27.7714
-27.8535
-28.0203
-28.2767
-28.6304
-29.0921
-29.676
-30.3994
-31.2821
-32.3448
-33.6046
-35.0693
-36.728
-38.5412
-40.4226
-26.9077
-26.9852
-27.1429
-27.3868
-27.726
-28.174
-28.7493
-29.4759
-30.3845
-31.5103
-32.8906
-34.5554
-36.5173
-38.7651
-41.2724
-25.9665
-26.0365
-26.1794
-26.4014
-26.7128
-27.1287
-27.6711
-28.3708
-29.2695
-30.4217
-31.8918
-33.7437
-36.0187
-38.7268
-41.9708
-24.9552
-25.0148
-25.1366
-25.3267
-25.595
-25.9569
-26.4358
-27.0667
-27.9014
-29.015
-30.5103
-32.5062
-35.08
-38.1389
-41.5533
-23.8844
-23.9307
-24.0255
-24.1737
-24.3835
-24.6681
-25.0487
-25.559
-26.2544
-27.2265
-28.6263
-30.6832
-33.6344
-37.1449
-37.5468
-38.2655
-38.7054
-39.1211
-39.5108
-39.8735
-40.2091
-40.518
-40.8007
-41.0576
-41.2883
-41.4924
-41.6688
-41.8165
-41.9348
-42.0236
-42.0837
-42.117
-42.1266
-42.1162
-42.09
-42.0523
-42.007
-41.9569
-41.9038
-41.8482
-41.7895
-41.7263
-41.6567
-41.5786
-41.4906
-41.3922
-41.2836
-41.1663
-41.0426
-40.9152
-40.7872
-40.6609
-40.5384
-40.4205
-40.3069
-40.1964
-40.0872
-39.9768
-39.8631
-39.7443
-39.6195
-39.4887
-39.353
-39.2144
-39.0754
-38.9384
-38.8058
-38.6791
-38.5591
-38.4453
-38.3366
-38.2309
-38.1259
-38.0195
-37.9099
-37.7962
-37.6783
-37.5573
-37.435
-37.3137
-37.1958
-37.0834
-36.9782
-36.8808
-36.7911
-36.7079
-36.6297
-36.5546
-36.481
-36.4078
-36.3351
-36.2637
-36.1959
-36.1349
-36.0844
-36.0485
-36.0308
-36.0345
-36.061
-36.1107
-36.1818
-36.271
-36.3732
-36.4824
-36.5917
-38.2957
-38.7401
-39.1587
-39.5497
-39.9125
-40.2475
-40.5557
-40.8381
-41.0951
-41.3268
-41.5322
-41.7101
-41.8589
-41.9773
-42.0649
-42.1222
-42.1513
-42.1554
-42.1388
-42.1065
-42.0634
-42.0139
-41.9612
-41.9073
-41.8526
-41.7961
-41.7357
-41.6688
-41.5928
-41.5058
-41.4068
-41.2962
-41.1756
-41.0478
-40.9163
-40.7845
-40.6556
-40.5318
-40.4142
-40.3023
-40.1947
-40.0888
-39.9817
-39.8705
-39.753
-39.628
-39.4957
-39.3572
-39.2151
-39.0724
-38.9321
-38.7972
-38.6696
-38.5501
-38.4381
-38.3322
-38.2298
-38.128
-38.0241
-37.9159
-37.8021
-37.6828
-37.5593
-37.4336
-37.3088
-37.1878
-37.0732
-36.967
-36.8699
-36.7816
-36.7007
-36.6252
-36.5524
-36.4803
-36.4073
-36.333
-36.2585
-36.1862
-36.1197
-36.0634
-36.0221
-36.0003
-36.0014
-36.0278
-36.0798
-36.1558
-36.2521
-36.3633
-36.4823
-36.6016
-38.3586
-38.8121
-39.2361
-39.6291
-39.9914
-40.3246
-40.6308
-40.9119
-41.1693
-41.403
-41.6118
-41.7933
-41.945
-42.0643
-42.1498
-42.2015
-42.2216
-42.214
-42.1842
-42.1386
-42.0837
-42.0252
-41.9673
-41.9121
-41.8597
-41.8082
-41.7543
-41.6939
-41.6229
-41.5382
-41.4381
-41.323
-41.1952
-41.0585
-40.9176
-40.7776
-40.6429
-40.5164
-40.3996
-40.2917
-40.1905
-40.0921
-39.9923
-39.8869
-39.7725
-39.6473
-39.5114
-39.3668
-39.2167
-39.0657
-38.9182
-38.7782
-38.6485
-38.5301
-38.4223
-38.3227
-38.2277
-38.1332
-38.0349
-37.9298
-37.816
-37.6935
-37.5641
-37.431
-37.2984
-37.1704
-37.0509
-36.9425
-36.8462
-36.7614
-36.686
-36.6166
-36.5494
-36.4809
-36.4085
-36.3313
-36.2502
-36.1682
-36.0898
-36.0209
-35.9678
-35.9365
-35.9321
-35.9577
-36.0143
-36.1005
-36.2118
-36.3419
-36.482
-36.6226
-38.4593
-38.9267
-39.3582
-39.7528
-40.1124
-40.4406
-40.7418
-41.02
-41.2777
-41.5152
-41.7305
-41.9196
-42.0777
-42.2
-42.2832
-42.3264
-42.3317
-42.3044
-42.2522
-42.1841
-42.1093
-42.0358
-41.9694
-41.9127
-41.8654
-41.8238
-41.7824
-41.7343
-41.6728
-41.5926
-41.491
-41.3683
-41.2277
-41.075
-40.9177
-40.7632
-40.6182
-40.4872
-40.3721
-40.2716
-40.1821
-40.0975
-40.0111
-39.9162
-39.8074
-39.6819
-39.5398
-39.384
-39.2198
-39.0539
-38.8934
-38.7444
-38.611
-38.4948
-38.3945
-38.3065
-38.2251
-38.1436
-38.0557
-37.9562
-37.8424
-37.7142
-37.5743
-37.4279
-37.2812
-37.1409
-37.0127
-36.9006
-36.806
-36.7279
-36.6626
-36.6047
-36.5482
-36.487
-36.4168
-36.3353
-36.2434
-36.1448
-36.0462
-35.9555
-35.882
-35.8342
-35.8195
-35.8429
-35.9064
-36.0088
-36.1448
-36.3059
-36.481
-36.657
-38.6064
-39.093
-39.5332
-39.927
-40.2787
-40.5955
-40.886
-41.1577
-41.4152
-41.6594
-41.8869
-42.0907
-42.262
-42.3921
-42.4743
-42.5058
-42.4889
-42.4309
-42.3431
-42.2393
-42.133
-42.0363
-41.9574
-41.9
-41.8627
-41.8393
-41.8201
-41.794
-41.7495
-41.678
-41.5745
-41.4392
-41.2774
-41.0984
-40.9137
-40.7352
-40.5734
-40.4352
-40.3233
-40.2358
-40.1664
-40.1056
-40.0422
-39.9653
-39.8664
-39.7406
-39.588
-39.4133
-39.2252
-39.0344
-38.8522
-38.6881
-38.5487
-38.4364
-38.3492
-38.281
-38.2226
-38.1634
-38.0931
-38.0033
-37.8895
-37.7515
-37.594
-37.425
-37.2548
-37.0939
-36.9514
-36.8334
-36.7422
-36.6758
-36.6283
-36.591
-36.5536
-36.5063
-36.4412
-36.3542
-36.246
-36.1218
-35.9909
-35.8656
-35.759
-35.6842
-35.6519
-35.6702
-35.7428
-35.8686
-36.0414
-36.25
-36.4787
-36.7091
-38.8139
-39.326
-39.775
-40.162
-40.4952
-40.7884
-41.0573
-41.3157
-41.572
-41.8279
-42.0774
-42.3086
-42.5058
-42.6533
-42.7383
-42.7549
-42.7052
-42.6002
-42.4573
-42.2978
-42.143
-42.0111
-41.9146
-41.8585
-41.8399
-41.8485
-41.8681
-41.8799
-41.8653
-41.8093
-41.7036
-41.5484
-41.3521
-41.1299
-40.9006
-40.6833
-40.4945
-40.3452
-40.2395
-40.174
-40.1385
-40.1174
-40.0926
-40.0463
-39.964
-39.8379
-39.6679
-39.462
-39.2343
-39.0026
-38.7848
-38.5964
-38.4475
-38.342
-38.2765
-38.2411
-38.2212
-38.1993
-38.1584
-38.085
-37.9712
-37.8172
-37.6303
-37.4239
-37.215
-37.0204
-36.8547
-36.7276
-36.6427
-36.5965
-36.5795
-36.5775
-36.5735
-36.5511
-36.497
-36.4038
-36.2716
-36.1083
-35.9278
-35.7486
-35.5905
-35.4728
-35.4117
-35.4194
-35.5024
-35.6606
-35.8866
-36.1651
-36.4738
-36.7859
-39.1031
-39.6499
-40.1063
-40.4742
-40.7692
-41.0163
-41.2439
-41.4766
-41.7296
-42.0055
-42.2943
-42.5753
-42.8214
-43.0044
-43.1011
-43.0993
-43.0013
-42.824
-42.5955
-42.3496
-42.1199
-41.9348
-41.8135
-41.7631
-41.7782
-41.8417
-41.9273
-42.004
-42.0407
-42.0121
-41.9041
-41.7167
-41.4641
-41.1716
-40.8701
-40.5905
-40.3588
-40.1925
-40.0977
-40.069
-40.0896
-40.1346
-40.1742
-40.1789
-40.1248
-39.9983
-39.7996
-39.5419
-39.2493
-38.9507
-38.6753
-38.4475
-38.2838
-38.1899
-38.1603
-38.1792
-38.2226
-38.2625
-38.2708
-38.2246
-38.111
-37.9301
-37.6944
-37.4267
-37.1544
-36.9052
-36.7023
-36.5612
-36.4873
-36.4751
-36.5092
-36.5666
-36.6199
-36.6415
-36.6091
-36.5095
-36.3422
-36.1193
-35.8629
-35.6012
-35.364
-35.1797
-35.0724
-35.0602
-35.1537
-35.3552
-35.6562
-36.0366
-36.4643
-36.8983
-39.5073
-40.104
-40.5648
-40.8916
-41.1122
-41.2723
-41.4232
-41.6083
-41.854
-42.1646
-42.5225
-42.8924
-43.2279
-43.4796
-43.6057
-43.5823
-43.4116
-43.1216
-42.7588
-42.3781
-42.0326
-41.7668
-41.6101
-41.5733
-41.6468
-41.8029
-41.9993
-42.1855
-42.31
-42.3295
-42.219
-41.9787
-41.6335
-41.2264
-40.8082
-40.4286
-40.129
-39.9365
-39.861
-39.893
-40.0058
-40.1595
-40.3058
-40.3962
-40.3898
-40.263
-40.0159
-39.6723
-39.2729
-38.8655
-38.4971
-38.2066
-38.0196
-37.9452
-37.9743
-38.0817
-38.2292
-38.3713
-38.4615
-38.4612
-38.3479
-38.1216
-37.8048
-37.436
-37.0607
-36.7234
-36.4611
-36.2981
-36.243
-36.2869
-36.4055
-36.5618
-36.7117
-36.8098
-36.8178
-36.7127
-36.4929
-36.1786
-35.8058
-35.4183
-35.0612
-34.7758
-34.5963
-34.5487
-34.6497
-34.9062
-35.3114
-35.8401
-36.4458
-37.0642
-40.0771
-40.7539
-41.2161
-41.4619
-41.5421
-41.5417
-41.553
-41.6526
-41.8851
-42.2557
-42.7335
-43.2592
-43.7551
-44.136
-44.3256
-44.2776
-43.9938
-43.524
-42.9481
-42.3556
-41.8307
-41.4417
-41.2342
-41.2245
-41.3967
-41.7061
-42.0862
-42.4561
-42.7304
-42.834
-42.721
-42.3916
-41.8921
-41.297
-40.6906
-40.1518
-39.7448
-39.5123
-39.4693
-39.6005
-39.8633
-40.1948
-40.5182
-40.7529
-40.8282
-40.7008
-40.3712
-39.8833
-39.3078
-38.7241
-38.2068
-37.8164
-37.5932
-37.5512
-37.6758
-37.9266
-38.2437
-38.5546
-38.7827
-38.8607
-38.7475
-38.4435
-37.9902
-37.4546
-36.9122
-36.4336
-36.0768
-35.8797
-35.8559
-35.9913
-36.2474
-36.5663
-36.878
-37.1079
-37.1895
-37.081
-36.7798
-36.3223
-35.7696
-35.1916
-34.6554
-34.2193
-33.9302
-33.823
-33.922
-34.2432
-34.7889
-35.5327
-36.4087
-37.313
-40.8894
-41.7129
-42.1788
-42.2703
-42.0881
-41.794
-41.5557
-41.5056
-41.7173
-42.1924
-42.8753
-43.6691
-44.4481
-45.0677
-45.3876
-45.3125
-44.8438
-44.0792
-43.1611
-42.236
-41.4329
-40.8553
-40.5736
-40.6139
-40.9488
-41.5075
-42.1877
-42.8642
-43.3967
-43.6504
-43.5345
-43.0497
-42.2881
-41.384
-40.4758
-39.685
-39.1093
-38.8151
-38.8269
-39.1183
-39.6221
-40.2416
-40.8582
-41.3394
-41.5583
-41.4296
-40.9545
-40.2204
-39.3544
-38.4872
-37.7336
-37.1857
-36.9059
-36.9176
-37.1954
-37.6759
-38.2672
-38.8571
-39.32
-39.5353
-39.4218
-38.9805
-38.2941
-37.4831
-36.6716
-35.9687
-35.4622
-35.2118
-35.2396
-35.5221
-35.9986
-36.5813
-37.1622
-37.6195
-37.8349
-37.7269
-37.2917
-36.6029
-35.77
-34.9048
-34.1053
-33.451
-33.0023
-32.8006
-32.8741
-33.2568
-33.9809
-35.0352
-36.3308
-37.6943
-42.0546
-43.1871
-43.68
-43.4722
-42.7948
-41.9663
-41.2872
-40.9813
-41.17
-41.83
-42.8574
-44.1003
-45.3706
-46.4313
-47.0183
-46.9142
-46.1202
-44.8555
-43.3841
-41.9409
-40.7105
-39.843
-39.449
-39.5793
-40.1788
-41.1339
-42.2944
-43.4796
-44.4643
-44.9991
-44.8792
-44.1066
-42.8892
-41.477
-40.0918
-38.9084
-38.0686
-37.6771
-37.7818
-38.3302
-39.2145
-40.2925
-41.393
-42.3036
-42.7891
-42.6572
-41.9109
-40.7473
-39.4027
-38.0867
-36.9641
-36.1687
-35.7991
-35.9005
-36.4233
-37.2655
-38.2926
-39.3425
-40.2138
-40.6833
-40.5682
-39.8706
-38.7773
-37.5123
-36.2746
-35.221
-34.4791
-34.1431
-34.2567
-34.7735
-35.5968
-36.5989
-37.6245
-38.4793
-38.9461
-38.844
-38.1686
-37.0912
-35.8167
-34.5236
-33.3459
-32.3867
-31.7186
-31.3819
-31.3808
-31.7789
-32.6975
-34.1901
-36.1553
-38.2957
-43.7019
-45.5848
-46.1909
-45.3477
-43.7172
-41.9234
-40.4814
-39.7447
-39.9437
-40.9386
-42.529
-44.4922
-46.5948
-48.477
-49.6443
-49.5096
-48.0742
-45.9294
-43.5668
-41.3393
-39.4654
-38.1488
-37.5695
-37.8689
-38.8966
-40.4645
-42.3658
-44.3837
-46.18
-47.2905
-47.1637
-45.8038
-43.7711
-41.531
-39.4172
-37.6369
-36.3825
-35.8248
-36.0977
-37.0583
-38.528
-40.3109
-42.2014
-43.8799
-44.9088
-44.7697
-43.4681
-41.5349
-39.4099
-37.4078
-35.7235
-34.5386
-34.014
-34.2766
-35.1911
-36.589
-38.2851
-40.0852
-41.6863
-42.6733
-42.5532
-41.3304
-39.5077
-37.5021
-35.6125
-34.0245
-32.9113
-32.427
-32.6933
-33.5832
-34.9379
-36.5825
-38.3326
-39.8979
-40.8763
-40.7866
-39.6247
-37.8631
-35.8904
-33.9762
-32.2721
-30.903
-29.958
-29.48
-29.3128
-29.5515
-30.5875
-32.6644
-35.7276
-39.2816
-45.8248
-49.8329
-50.8
-48.3539
-44.8658
-41.3722
-38.6601
-37.1612
-37.5712
-39.1897
-41.664
-44.6832
-48.1366
-51.552
-54.1454
-53.9781
-51.0498
-47.3171
-43.555
-40.2283
-37.418
-35.3929
-34.4245
-35.1099
-36.8367
-39.3149
-42.2691
-45.6071
-48.8832
-51.3635
-51.2239
-48.4699
-44.9516
-41.403
-38.2626
-35.608
-33.6932
-32.7763
-33.4234
-35.0532
-37.3907
-40.1741
-43.3153
-46.3916
-48.7107
-48.5559
-45.9351
-42.5987
-39.24
-36.2711
-33.764
-31.9574
-31.0955
-31.7139
-33.2629
-35.4833
-38.1278
-41.1142
-44.0431
-46.2576
-46.1259
-43.6543
-40.5014
-37.3249
-34.5162
-32.1444
-30.4378
-29.63
-30.2319
-31.7237
-33.8615
-36.414
-39.3069
-42.1616
-44.3448
-44.273
-41.9442
-38.9388
-35.88
-33.126
-30.716
-28.8085
-27.5248
-27.1305
-26.66
-26.1763
-26.9785
-29.7185
-34.593
-40.9835
-47.3539
-58.4859
-60.3915
-52.8876
-46.0009
-39.684
-35.0885
-31.828
-33.4582
-36.2083
-40.014
-44.2491
-49.7332
-55.8108
-62.6222
-62.4222
-55.1841
-48.7469
-42.9165
-38.3736
-34.2401
-31.1153
-28.898
-30.8514
-33.6946
-37.4801
-41.6198
-46.9194
-52.7325
-59.2091
-59.0487
-52.2368
-46.1757
-40.6871
-36.4085
-32.5139
-29.5668
-27.4758
-29.3339
-32.0288
-35.6114
-39.5223
-44.5226
-49.9935
-56.075
-55.893
-49.4324
-43.6945
-38.509
-34.4696
-30.7956
-28.0158
-26.0454
-27.8109
-30.3681
-33.7666
-37.4782
-42.2262
-47.4287
-53.2204
-53.0681
-46.959
-41.5291
-36.6183
-32.7906
-29.3062
-26.6702
-24.803
-26.4892
-28.9339
-32.1878
-35.7555
-40.3363
-45.3922
-51.0606
-51.0096
-45.2381
-40.0915
-35.4309
-31.7803
-28.4363
-25.8157
-23.8108
-24.8908
-24.0264
-20.9492
-20.579
-23.6991
-31.2755
-44.1164
-40.9098
-80.3537
-83.7747
-56.7792
-46.3499
-35.5125
-29.5932
-19.4518
-27.7323
-31.7067
-37.7456
-42.0164
-50.4753
-59.0129
-81.1955
-81.0013
-58.1649
-49.3031
-40.4241
-35.9293
-29.6096
-25.5309
-17.3658
-25.3114
-29.1955
-35.1353
-39.3002
-47.4922
-55.6264
-76.612
-76.4517
-54.9226
-46.5753
-38.2289
-34.0012
-28.0555
-24.2078
-16.4884
-24.0394
-27.7264
-33.3591
-37.3017
-45.0523
-52.7159
-72.459
-72.2714
-51.889
-43.9948
-36.1276
-32.1419
-26.5395
-22.9087
-15.6156
-22.7681
-26.2617
-31.5989
-35.3365
-42.6834
-49.9659
-68.7427
-68.5881
-49.2859
-41.8091
-34.352
-30.5709
-25.2464
-21.7954
-14.8589
-21.6543
-24.979
-30.0619
-33.6383
-40.6815
-47.7408
-66.0121
-65.9837
-47.6321
-40.5442
-33.5273
-29.9933
-25.115
-21.9363
-15.6545
-25.4509
-24.5793
-11.8239
-9.15364
-11.2625
-20.3771
-50.225
-36.7032
-36.8061
-36.8804
-36.9207
-36.9251
-36.8955
-36.8367
-36.7554
-36.6599
-36.5587
-36.4602
-36.3716
-36.2995
-36.2486
-36.2223
-36.7231
-36.8348
-36.9145
-36.9565
-36.9591
-36.9248
-36.859
-36.7697
-36.6656
-36.5562
-36.4501
-36.3552
-36.2782
-36.224
-36.1961
-36.7653
-36.8954
-36.9863
-37.0316
-37.0301
-36.9854
-36.9051
-36.7986
-36.6768
-36.5502
-36.4288
-36.3211
-36.2341
-36.1732
-36.1418
-36.835
-36.9951
-37.1038
-37.1536
-37.1442
-37.0819
-36.9771
-36.8429
-36.6926
-36.5391
-36.3937
-36.2662
-36.164
-36.0928
-36.0563
-36.9409
-37.1461
-37.2803
-37.3346
-37.3112
-37.2207
-37.0788
-36.9033
-36.7117
-36.5198
-36.3409
-36.1859
-36.0628
-35.9777
-35.9342
-37.0976
-37.3682
-37.5367
-37.5934
-37.5453
-37.4109
-37.214
-36.9797
-36.7311
-36.4874
-36.2643
-36.0735
-35.9238
-35.8209
-35.7686
-37.3283
-37.6924
-37.9048
-37.957
-37.8659
-37.6634
-37.3866
-37.0706
-36.7454
-36.4345
-36.1553
-35.9202
-35.7379
-35.6136
-35.5508
-37.6711
-38.1683
-38.4332
-38.4639
-38.2978
-37.9904
-37.5984
-37.1708
-36.7455
-36.3498
-36.0021
-35.7143
-35.4938
-35.345
-35.27
-38.1898
-38.8766
-39.1958
-39.1676
-38.8711
-38.4019
-37.8458
-37.2686
-36.7161
-36.2171
-35.7889
-35.4411
-35.1782
-35.0024
-34.9144
-38.9966
-39.9523
-40.3058
-40.1396
-39.617
-38.9002
-38.1142
-37.342
-36.633
-36.0136
-35.4955
-35.0828
-34.7755
-34.572
-34.4707
-40.3004
-41.6302
-41.9355
-41.4679
-40.5573
-39.4679
-38.3687
-37.352
-36.4605
-35.7086
-35.0967
-34.6192
-34.2689
-34.0393
-33.9258
-42.5223
-44.3327
-44.3382
-43.2392
-41.6763
-40.0453
-38.5407
-37.2369
-36.1483
-35.2637
-34.5636
-34.0285
-33.6417
-33.3907
-33.2672
-46.602
-48.84
-47.8454
-45.4743
-42.8634
-40.4963
-38.5118
-36.9066
-35.6322
-34.6342
-33.8655
-33.2894
-32.8786
-32.6145
-32.4853
-54.9199
-56.5799
-52.7291
-47.9494
-43.8068
-40.5647
-38.1037
-36.2455
-34.8397
-33.7754
-32.9749
-32.3848
-31.9689
-31.7034
-31.5741
-74.507
-69.8304
-58.5418
-49.7872
-43.8497
-39.8519
-37.0927
-35.1321
-33.7056
-32.6528
-31.874
-31.3061
-30.9088
-30.6563
-30.5335
-22.8602
-22.8924
-22.9581
-23.0603
-23.2043
-23.3988
-23.6583
-24.0075
-24.4911
-25.1945
-26.2935
-28.1775
-31.7463
-38.9407
-51.7447
-21.9068
-21.9251
-21.9622
-22.019
-22.0973
-22.1998
-22.3321
-22.504
-22.7358
-23.0721
-23.6234
-24.7065
-27.4173
-36.4681
-77.6588
-20.9405
-20.9447
-20.9526
-20.9629
-20.9733
-20.9803
-20.9784
-20.9592
-20.9084
-20.801
-20.5818
-20.0796
-18.5279
-11.6556
25.305
-19.9712
-19.9618
-19.9414
-19.9066
-19.8516
-19.7669
-19.637
-19.4364
-19.1208
-18.6088
-17.7391
-16.1717
-13.1909
-7.72047
-3.91672
-19.0084
-18.9864
-18.94
-18.8643
-18.7506
-18.5849
-18.3448
-17.9936
-17.4699
-16.6659
-15.3854
-13.2586
-9.55868
-2.61149
13.4637
-18.0608
-18.0278
-17.959
-17.8484
-17.6856
-17.4546
-17.1297
-16.6708
-16.0137
-15.0539
-13.6204
-11.4452
-8.18335
-3.83509
-1.97099
-17.1361
-17.094
-17.007
-16.8685
-16.6681
-16.3894
-16.0076
-15.4857
-14.7679
-13.7706
-12.3702
-10.3886
-7.56355
-3.33198
4.92671
-16.2405
-16.1915
-16.0906
-15.9317
-15.705
-15.3958
-14.9829
-14.4367
-13.7162
-12.7672
-11.5235
-9.91813
-7.92085
-5.62507
-3.47696
-15.379
-15.325
-15.2143
-15.0418
-14.7991
-14.4741
-14.0509
-13.5088
-12.8232
-11.9686
-10.9278
-9.71994
-8.48559
-7.81549
-10.3889
-14.5549
-14.4977
-14.3811
-14.2008
-13.9502
-13.6207
-13.2013
-12.6804
-12.0477
-11.2993
-10.4482
-9.54014
-8.65853
-7.75348
-5.04161
-13.7705
-13.7116
-13.592
-13.4085
-13.1563
-12.8295
-12.4222
-11.9298
-11.3525
-10.7014
-10.0082
-9.34194
-8.84776
-8.94623
-11.8577
-13.0271
-12.9676
-12.8473
-12.6638
-12.414
-12.0943
-11.7022
-11.238
-10.7085
-10.1327
-9.54943
-9.02423
-8.62542
-8.18555
-5.55248
-12.325
-12.2658
-12.1464
-11.9653
-11.7202
-11.4094
-11.0322
-10.5916
-10.0968
-9.56909
-9.05035
-8.61873
-8.43156
-8.94799
-12.5624
-11.664
-11.6057
-11.4884
-11.311
-11.0721
-10.7704
-10.4063
-9.98274
-9.50786
-8.99926
-8.49074
-8.04345
-7.74908
-7.55911
-5.43046
-11.0434
-10.9865
-10.8722
-10.6996
-10.4674
-10.1749
-9.82176
-9.40948
-8.94232
-8.42935
-7.88858
-7.36197
-6.99407
-7.51657
-13.4725
-10.4624
-10.4072
-10.2965
-10.1294
-9.90473
-9.62139
-9.27824
-8.87431
-8.40859
-7.87874
-7.27656
-6.57026
-5.62073
-3.70084
3.60822
-9.91964
-9.86655
-9.75997
-9.5991
-9.38278
-9.10943
-8.77691
-8.38203
-7.91937
-7.37836
-6.73683
-5.94744
-4.92122
-3.62764
-3.49438
-9.41376
-9.36301
-9.26112
-9.10734
-8.90044
-8.63855
-8.31887
-7.93683
-7.48455
-6.94777
-6.29979
-5.48909
-4.4074
-2.74866
0.981313
-8.94313
-8.89497
-8.79833
-8.65248
-8.45627
-8.20781
-7.90414
-7.5404
-7.10841
-6.5944
-5.97574
-5.21892
-4.29432
-3.30806
-3.43849
-8.50594
-8.46062
-8.36969
-8.23261
-8.04838
-7.81541
-7.53114
-7.19136
-6.78923
-6.31371
-5.74764
-5.06526
-4.22408
-3.09198
-0.800727
-8.10024
-8.05793
-7.97312
-7.84547
-7.67433
-7.45865
-7.19668
-6.88562
-6.52101
-6.09591
-5.60033
-5.02187
-4.35589
-3.68087
-3.71985
-7.72393
-7.68474
-7.60632
-7.48855
-7.33123
-7.13402
-6.89631
-6.61709
-6.29479
-5.92708
-5.51057
-5.03928
-4.49399
-3.77393
-2.2591
-7.37484
-7.33881
-7.26684
-7.15909
-7.01585
-6.83754
-6.62477
-6.37848
-6.10011
-5.79213
-5.45887
-5.10808
-4.75346
-4.41889
-4.15316
-7.05078
-7.01785
-6.95221
-6.85428
-6.72482
-6.56498
-6.37653
-6.16214
-5.926
-5.67475
-5.41935
-5.17956
-4.99904
-5.01601
-5.86262
-6.7496
-6.71963
-6.66
-6.57138
-6.4549
-6.31231
-6.14629
-5.96092
-5.7624
-5.56026
-5.36899
-5.20989
-5.10747
-5.037
-4.49112
-6.46923
-6.442
-6.38792
-6.30783
-6.20311
-6.07591
-5.92951
-5.76884
-5.60133
-5.43822
-5.29632
-5.20086
-5.19372
-5.3881
-6.40923
-6.20778
-6.18302
-6.13393
-6.0614
-5.96694
-5.85286
-5.72265
-5.58151
-5.43722
-5.30146
-5.19139
-5.1305
-5.14004
-5.16505
-4.53954
-5.96353
-5.94095
-5.89622
-5.83021
-5.7444
-5.64103
-5.52339
-5.39637
-5.26721
-5.14687
-5.05233
-5.01125
-5.07564
-5.39373
-6.73219
-5.73497
-5.71428
-5.67328
-5.61278
-5.53407
-5.43911
-5.33066
-5.21272
-5.09107
-4.97436
-4.87616
-4.81875
-4.83507
-4.9138
-4.37613
-5.52079
-5.50172
-5.4639
-5.40799
-5.33505
-5.24655
-5.14453
-5.03166
-4.91152
-4.78902
-4.67168
-4.57506
-4.55117
-4.8619
-7.12468
-5.31986
-5.30219
-5.26708
-5.21505
-5.14683
-5.06341
-4.96594
-4.85565
-4.73361
-4.60009
-4.45283
-4.28088
-4.0349
-3.45439
-0.943243
-5.13122
-5.11476
-5.08203
-5.03335
-4.96919
-4.89003
-4.79625
-4.68782
-4.5637
-4.42071
-4.25114
-4.03813
-3.75096
-3.38757
-3.51911
-4.95401
-4.93866
-4.90806
-4.86242
-4.80196
-4.72681
-4.63676
-4.53089
-4.4069
-4.25979
-4.07963
-3.84689
-3.51995
-2.97703
-1.60571
-4.78748
-4.77314
-4.74454
-4.70178
-4.64495
-4.57394
-4.48825
-4.38657
-4.26615
-4.12183
-3.94465
-3.72107
-3.43894
-3.14176
-3.32038
-4.63091
-4.61755
-4.59086
-4.55094
-4.49779
-4.43128
-4.35086
-4.25527
-4.14203
-4.00669
-3.84189
-3.63593
-3.36839
-2.97606
-2.06524
-4.48364
-4.4712
-4.44639
-4.40928
-4.35993
-4.29829
-4.22401
-4.13623
-4.03325
-3.91204
-3.76774
-3.59357
-3.38451
-3.17039
-3.27122
-4.34501
-4.33347
-4.31046
-4.27612
-4.23062
-4.17409
-4.10655
-4.02777
-3.93714
-3.83342
-3.71434
-3.57544
-3.40414
-3.146
-2.49625
-4.21441
-4.20371
-4.18241
-4.15073
-4.10898
-4.05754
-3.99689
-3.92755
-3.85014
-3.76548
-3.67472
-3.57982
-3.4841
-3.39352
-3.32084
-4.09125
-4.08131
-4.06157
-4.03234
-3.99406
-3.94741
-3.89328
-3.83294
-3.76819
-3.70177
-3.638
-3.58477
-3.56051
-3.62858
-4.09483
-3.97501
-3.96573
-3.94735
-3.92023
-3.88498
-3.84247
-3.79399
-3.74139
-3.68743
-3.63622
-3.59397
-3.56962
-3.57282
-3.58711
-3.35058
-3.86521
-3.85647
-3.83919
-3.81379
-3.78095
-3.7417
-3.69756
-3.6508
-3.60475
-3.56448
-3.53752
-3.53533
-3.57742
-3.71981
-4.2839
-3.76149
-3.75316
-3.73669
-3.71253
-3.68138
-3.64433
-3.60298
-3.55971
-3.51809
-3.48349
-3.46389
-3.47032
-3.51239
-3.55964
-3.26051
-3.66357
-3.6555
-3.63954
-3.61612
-3.58591
-3.54995
-3.50973
-3.46749
-3.42656
-3.39208
-3.3722
-3.38056
-3.44377
-3.63997
-4.37762
-3.57127
-3.56332
-3.54758
-3.52443
-3.49446
-3.45853
-3.4179
-3.37436
-3.33056
-3.29056
-3.2609
-3.25271
-3.28282
-3.34429
-3.07139
-3.4845
-3.47655
-3.46078
-3.43749
-3.40715
-3.37039
-3.32809
-3.28142
-3.23195
-3.18185
-3.13469
-3.09828
-3.10011
-3.28077
-4.51105
-3.40327
-3.39521
-3.37921
-3.35547
-3.3243
-3.2861
-3.24134
-3.19045
-3.13376
-3.07112
-3.00103
-2.91731
-2.79321
-2.48832
-1.14176
-3.32763
-3.3194
-3.30302
-3.2786
-3.24634
-3.20639
-3.15883
-3.10351
-3.03971
-2.96558
-2.87685
-2.7644
-2.61186
-2.41925
-2.50048
-3.25773
-3.24927
-3.23241
-3.2072
-3.17372
-3.13196
-3.08173
-3.02247
-2.95285
-2.87018
-2.76914
-2.63932
-2.45836
-2.16
-1.40881
-3.19369
-3.18499
-3.16759
-3.14155
-3.10686
-3.06342
-3.01092
-2.94862
-2.87507
-2.78755
-2.68144
-2.54977
-2.38638
-2.21519
-2.3021
-3.13572
-3.12674
-3.1088
-3.08192
-3.04609
-3.00119
-2.94692
-2.8826
-2.80698
-2.71783
-2.6115
-2.48224
-2.31983
-2.09114
-1.58536
-3.08398
-3.07472
-3.05622
-3.02851
-2.99161
-2.94547
-2.88989
-2.82445
-2.7483
-2.66004
-2.55749
-2.43775
-2.29932
-2.15948
-2.18761
-3.03869
-3.02913
-3.01004
-2.98149
-2.94356
-2.89631
-2.83973
-2.77373
-2.69804
-2.61219
-2.51542
-2.40624
-2.27978
-2.11118
-1.75014
-3.00005
-2.99016
-2.97044
-2.941
-2.90199
-2.85362
-2.79612
-2.72974
-2.65484
-2.57194
-2.48198
-2.38673
-2.28953
-2.19649
-2.12105
-2.96827
-2.95802
-2.93759
-2.90715
-2.86694
-2.8173
-2.75867
-2.69168
-2.6172
-2.53659
-2.45221
-2.3686
-2.29638
-2.26957
-2.43949
-2.94363
-2.93295
-2.9117
-2.88009
-2.83844
-2.78721
-2.72705
-2.65883
-2.58381
-2.50387
-2.42193
-2.34255
-2.27171
-2.20603
-2.03758
-2.92641
-2.91524
-2.89302
-2.86
-2.81659
-2.76334
-2.70103
-2.63071
-2.55386
-2.47255
-2.38986
-2.31059
-2.24346
-2.21384
-2.35689
-2.91695
-2.9052
-2.88184
-2.84715
-2.80158
-2.74577
-2.68057
-2.60714
-2.527
-2.44219
-2.35544
-2.2702
-2.18917
-2.10173
-1.88881
-2.91566
-2.90323
-2.87853
-2.84185
-2.79369
-2.73472
-2.66584
-2.58823
-2.50339
-2.41318
-2.31997
-2.22688
-2.13935
-2.07674
-2.15947
-2.92301
-2.9098
-2.88353
-2.84453
-2.79331
-2.73055
-2.65718
-2.57436
-2.4835
-2.38626
-2.28443
-2.1797
-2.07223
-1.95081
-1.71742
-2.93954
-2.92543
-2.89738
-2.85572
-2.80094
-2.73376
-2.65509
-2.56607
-2.46806
-2.36253
-2.25091
-2.13444
-2.0148
-1.90264
-1.88332
-2.96586
-2.95076
-2.9207
-2.87601
-2.8172
-2.74495
-2.66019
-2.56404
-2.45785
-2.34302
-2.22077
-2.09137
-1.95219
-1.78997
-1.54011
-3.00269
-2.98647
-2.95418
-2.90612
-2.84278
-2.76484
-2.67319
-2.56899
-2.45363
-2.32868
-2.19559
-2.05511
-1.90557
-1.73814
-1.51899
-3.05078
-3.03334
-2.99861
-2.94685
-2.87852
-2.79425
-2.69492
-2.5817
-2.45609
-2.31998
-2.17555
-2.02515
-1.87139
-1.72221
-1.63541
-3.11098
-3.09224
-3.05486
-2.99909
-2.92533
-2.83412
-2.7263
-2.60301
-2.46585
-2.31706
-2.15967
-1.99751
-1.83402
-1.66297
-1.40173
-3.18421
-3.16407
-3.12389
-3.06384
-2.98424
-2.88554
-2.76844
-2.63396
-2.48369
-2.32012
-2.1471
-1.97082
-1.8019
-1.66634
-1.68496
-3.27142
-3.24983
-3.20671
-3.14218
-3.05642
-2.94975
-2.82264
-2.67587
-2.51078
-2.32973
-2.13681
-1.93901
-1.74661
-1.56264
-1.28271
-3.37363
-3.35055
-3.30441
-3.23526
-3.14314
-3.02816
-2.89049
-2.7305
-2.54897
-2.34759
-2.12991
-1.90344
-1.68548
-1.52558
-1.61909
-3.49187
-3.46729
-3.4181
-3.34428
-3.24573
-3.12232
-2.97385
-2.80009
-2.60094
-2.37678
-2.12911
-1.86197
-1.58403
-1.31252
-1.0873
-3.62719
-3.60111
-3.54891
-3.47048
-3.3656
-3.23389
-3.07477
-2.88731
-2.6703
-2.42228
-2.14185
-1.828
-1.47812
-1.06731
-0.399072
-3.78062
-3.75308
-3.69794
-3.61504
-3.50409
-3.36451
-3.19536
-2.99506
-2.7612
-2.49029
-2.17779
-1.81906
-1.41453
-1.00085
-0.869127
-3.95317
-3.92422
-3.86624
-3.7791
-3.66246
-3.51568
-3.33759
-3.12612
-2.87783
-2.58719
-2.24585
-1.84192
-1.35731
-0.738573
0.374696
-4.14584
-4.11551
-4.05481
-3.96365
-3.84177
-3.6886
-3.50299
-3.28275
-3.02386
-2.71929
-2.35739
-1.9208
-1.39324
-0.819713
-0.732319
-4.35957
-4.32789
-4.26454
-4.16953
-4.0428
-3.88404
-3.69245
-3.46623
-3.20162
-2.89122
-2.52078
-2.06286
-1.4611
-0.563252
1.34536
-4.59531
-4.56226
-4.49625
-4.39746
-4.26608
-4.10228
-3.90597
-3.67636
-3.41118
-3.10485
-2.74494
-2.30481
-1.73458
-1.00871
-0.816563
-4.854
-4.81952
-4.75074
-4.648
-4.51188
-4.34311
-4.1426
-3.91121
-3.64931
-3.3557
-3.0248
-2.6371
-2.11614
-1.08351
2.72004
-5.13664
-5.10061
-5.0288
-4.92174
-4.78034
-4.60599
-4.40069
-4.16725
-3.90946
-3.63245
-3.34409
-3.06196
-2.85303
-3.08255
-6.07271
-5.4443
-5.40655
-5.33135
-5.21934
-5.07169
-4.89035
-4.67832
-4.44021
-4.18296
-3.91708
-3.65908
-3.43597
-3.28544
-3.16447
-1.97122
-5.77818
-5.73851
-5.65945
-5.54167
-5.38646
-5.19602
-4.97406
-4.72647
-4.46246
-4.19623
-3.94983
-3.75957
-3.69735
-3.99101
-5.9054
-6.13961
-6.09782
-6.01444
-5.89002
-5.72568
-5.52359
-5.28759
-5.02413
-4.74352
-4.4616
-4.20161
-3.99426
-3.86211
-3.69203
-2.30466
-6.53007
-6.48601
-6.39794
-6.26608
-6.09112
-5.8747
-5.6202
-5.3337
-5.02548
-4.71174
-4.41684
-4.17674
-4.0532
-4.2384
-5.88591
-6.95112
-6.90477
-6.81186
-6.67207
-6.48534
-6.25228
-5.97503
-5.65836
-5.31127
-4.9488
-4.59402
-4.27827
-4.02988
-3.76927
-2.46578
-7.40436
-7.35587
-7.25832
-7.11068
-6.91173
-6.66054
-6.35723
-6.00416
-5.60773
-5.18054
-4.74409
-4.33303
-4.01506
-4.02436
-5.62046
-7.89127
-7.84104
-7.73956
-7.58491
-7.37441
-7.10501
-6.77397
-6.38008
-5.92555
-5.4187
-4.87652
-4.32316
-3.77296
-3.17751
-2.40349
-8.41308
-8.3618
-8.25774
-8.09794
-7.878
-7.59228
-7.23437
-6.79811
-6.27971
-5.68141
-5.0167
-4.3111
-3.56227
-2.45466
1.35101
-8.9705
-8.9192
-8.81463
-8.65273
-8.42726
-8.12968
-7.74917
-7.27319
-6.68934
-5.99025
-5.18528
-4.32907
-3.60074
-3.60544
-6.95674
-9.56354
-9.51361
-9.41133
-9.25166
-9.02661
-8.72468
-8.33027
-7.82318
-7.17902
-6.3726
-5.38945
-4.25824
-3.13017
-2.4322
-2.88668
-10.1912
-10.1444
-10.0479
-9.89601
-9.67934
-9.3839
-8.98963
-8.46835
-7.78138
-6.87768
-5.69644
-4.18522
-2.36092
-0.458639
0.867783
-10.8515
-10.8096
-10.7229
-10.5853
-10.3868
-10.1118
-9.73718
-9.22859
-8.53425
-7.57548
-6.2326
-4.32961
-1.64582
1.91483
5.54339
-11.5409
-11.5059
-11.4333
-11.317
-11.1473
-10.9088
-10.5778
-10.1178
-9.47074
-8.54004
-7.15773
-5.01623
-1.53965
4.24113
12.7388
-12.2545
-12.2284
-12.1739
-12.0858
-11.9557
-11.77
-11.508
-11.137
-10.6042
-9.81822
-8.61007
-6.62999
-3.03362
4.68069
25.8355
-146.511
-88.0379
-61.5471
-48.8897
-42.1109
-38.0631
-35.434
-33.622
-32.3236
-31.3724
-30.6714
-30.1611
-29.8042
-29.5774
-29.4672
-182.246
-82.3799
-54.6728
-43.9913
-38.6337
-35.4518
-33.3586
-31.8925
-30.826
-30.0348
-29.4457
-29.0135
-28.7096
-28.5157
-28.4213
46.9623
-26.6117
-35.975
-35.3957
-33.6455
-32.0845
-30.8477
-29.8854
-29.1372
-28.5568
-28.1111
-27.777
-27.5385
-27.385
-27.3098
-7.0308
-15.4342
-24.1819
-27.6134
-28.5259
-28.492
-28.1463
-27.7296
-27.332
-26.9852
-26.6989
-26.474
-26.3085
-26.1998
-26.146
25.9413
-4.01744
-16.0807
-21.5803
-24.0636
-25.116
-25.494
-25.5607
-25.4913
-25.3717
-25.2442
-25.1298
-25.039
-24.9766
-24.945
-1.41139
-5.02818
-12.5375
-17.6418
-20.595
-22.2083
-23.0581
-23.4862
-23.6856
-23.7637
-23.7803
-23.7693
-23.7497
-23.732
-23.7219
11.4845
-3.33574
-10.6646
-15.1971
-18.0569
-19.8308
-20.9149
-21.5706
-21.9642
-22.1982
-22.3357
-22.4148
-22.459
-22.4821
-22.4919
-3.06467
-6.84568
-10.7335
-13.9142
-16.2727
-17.9325
-19.0691
-19.8371
-20.3535
-20.6999
-20.9315
-21.0846
-21.183
-21.2414
-21.2687
-14.9881
-10.2814
-11.2934
-13.2022
-14.9738
-16.3977
-17.4791
-18.2784
-18.8609
-19.2813