/*--------------------------------*- C++ -*----------------------------------*\
| =========                 |                                                 |
| \\      /  F ield         | OpenFOAM: The Open Source CFD Toolbox           |
|  \\    /   O peration     | Version:  5.x                                   |
|   \\  /    A nd           | Web:      www.OpenFOAM.org                      |
|    \\/     M anipulation  |                                                 |
\*---------------------------------------------------------------------------*/
FoamFile
{
    version     2.0;
    format      ascii;
    class       volScalarField;
    location    "0.2";
    object      T;
}
// * * * * * * * * * * * * * * * * * * * * * * * * * * * * * * * * * * * * * //

dimensions      [0 0 0 1 0 0 0];

internalField   nonuniform List<scalar> 
2048
(
9.788
9.78807
9.78822
9.78844
9.78871
9.78903
9.78939
9.78977
9.79017
9.79057
9.79097
9.79137
9.79175
9.79211
9.79245
9.79276
9.79305
9.79332
9.79355
9.79377
9.79395
9.79412
9.79426
9.79437
9.79447
9.79454
9.7946
9.79463
9.79465
9.79464
9.79462
9.79457
9.7945
9.79441
9.79429
9.79414
9.79396
9.79375
9.7935
9.7932
9.79285
9.79245
9.792
9.79148
9.79089
9.79024
9.7895
9.78869
9.78781
9.78686
9.78584
9.78477
9.78365
9.78252
9.78139
9.78028
9.77922
9.77824
9.77735
9.77658
9.77595
9.77546
9.77513
9.77496
9.37323
9.37345
9.3739
9.37455
9.37536
9.37632
9.37738
9.37852
9.3797
9.38091
9.3821
9.38327
9.38439
9.38546
9.38647
9.3874
9.38826
9.38904
9.38975
9.39037
9.39093
9.39141
9.39182
9.39217
9.39245
9.39267
9.39283
9.39293
9.39298
9.39297
9.39289
9.39275
9.39255
9.39228
9.39193
9.39149
9.39097
9.39033
9.38959
9.38871
9.3877
9.38652
9.38518
9.38365
9.38192
9.37997
9.37781
9.37542
9.37281
9.36998
9.36696
9.36377
9.36047
9.3571
9.35374
9.35044
9.34729
9.34436
9.34172
9.33944
9.33755
9.3361
9.33511
9.33462
8.97649
8.97686
8.97761
8.97869
8.98005
8.98164
8.9834
8.98529
8.98725
8.98923
8.9912
8.99312
8.99497
8.99673
8.99837
8.9999
9.00131
9.00259
9.00374
9.00476
9.00567
9.00645
9.00712
9.00768
9.00814
9.0085
9.00877
9.00893
9.00901
9.00899
9.00887
9.00865
9.00832
9.00788
9.00732
9.00661
9.00576
9.00474
9.00353
9.00211
9.00046
8.99856
8.99638
8.99389
8.99107
8.9879
8.98437
8.98047
8.97619
8.97156
8.9666
8.96136
8.95592
8.95036
8.9448
8.93935
8.93415
8.92931
8.92495
8.92117
8.91805
8.91566
8.91404
8.91322
8.59693
8.59746
8.59852
8.60004
8.60196
8.60419
8.60666
8.6093
8.61204
8.6148
8.61754
8.6202
8.62276
8.62518
8.62745
8.62955
8.63149
8.63324
8.63482
8.63622
8.63746
8.63853
8.63945
8.64022
8.64085
8.64134
8.6417
8.64193
8.64203
8.642
8.64185
8.64155
8.64111
8.64052
8.63975
8.6388
8.63765
8.63627
8.63463
8.63271
8.63047
8.62789
8.62492
8.62153
8.61768
8.61336
8.60852
8.60317
8.59729
8.5909
8.58405
8.5768
8.56925
8.56152
8.55378
8.54618
8.53892
8.53217
8.52609
8.52083
8.51649
8.51316
8.51091
8.50978
8.23375
8.23444
8.23583
8.23782
8.24031
8.24321
8.24642
8.24983
8.25335
8.25689
8.26039
8.26379
8.26704
8.27012
8.27299
8.27566
8.2781
8.28031
8.2823
8.28406
8.28561
8.28696
8.28811
8.28907
8.28986
8.29047
8.29092
8.29122
8.29135
8.29132
8.29113
8.29077
8.29022
8.28949
8.28855
8.28738
8.28595
8.28424
8.28221
8.27983
8.27705
8.27383
8.27013
8.2659
8.26109
8.25567
8.24959
8.24285
8.23542
8.22733
8.21862
8.20938
8.19973
8.18984
8.17989
8.17013
8.16078
8.1521
8.14429
8.13753
8.13197
8.12771
8.12483
8.12339
7.88617
7.88704
7.88878
7.89127
7.89438
7.89798
7.90195
7.90616
7.91048
7.91481
7.91907
7.9232
7.92714
7.93086
7.93433
7.93753
7.94046
7.94312
7.94549
7.9476
7.94945
7.95106
7.95242
7.95357
7.9545
7.95524
7.95577
7.95612
7.95628
7.95625
7.95603
7.95561
7.95498
7.95413
7.95302
7.95165
7.94998
7.94797
7.94559
7.94279
7.93952
7.93572
7.93134
7.92633
7.92062
7.91417
7.90692
7.89885
7.88993
7.88018
7.86965
7.85843
7.84668
7.83458
7.8224
7.81042
7.79895
7.78829
7.77871
7.77043
7.76364
7.75844
7.75493
7.75318
7.55346
7.55453
7.55665
7.55968
7.56345
7.56781
7.57258
7.57761
7.58275
7.58788
7.59291
7.59776
7.60239
7.60674
7.61079
7.61452
7.61792
7.621
7.62375
7.62618
7.62832
7.63016
7.63173
7.63305
7.63412
7.63496
7.63558
7.63598
7.63617
7.63614
7.6359
7.63543
7.63473
7.63376
7.63252
7.63097
7.62908
7.62681
7.62412
7.62094
7.61722
7.6129
7.60791
7.60218
7.59564
7.58822
7.57986
7.57052
7.56017
7.54881
7.53648
7.52329
7.50941
7.49507
7.48059
7.46633
7.45266
7.43996
7.42857
7.41875
7.41071
7.40457
7.40044
7.39838
7.23493
7.23622
7.23875
7.24237
7.24686
7.25202
7.25764
7.26353
7.26951
7.27547
7.28127
7.28685
7.29214
7.29711
7.30173
7.30597
7.30983
7.31331
7.31642
7.31916
7.32156
7.32363
7.32539
7.32687
7.32807
7.32901
7.3297
7.33015
7.33037
7.33035
7.33009
7.32958
7.32881
7.32776
7.32639
7.32469
7.32262
7.32012
7.31715
7.31363
7.30952
7.30473
7.29918
7.29279
7.28548
7.27717
7.26778
7.25724
7.24551
7.23257
7.21847
7.20331
7.18728
7.17065
7.1538
7.13716
7.1212
7.10639
7.09313
7.08174
7.07244
7.06536
7.0606
7.05823
6.92989
6.93142
6.93443
6.9387
6.94397
6.94999
6.95651
6.9633
6.97016
6.97694
6.98353
6.98983
6.99579
7.00137
7.00654
7.01128
7.01558
7.01945
7.02289
7.02592
7.02857
7.03085
7.03279
7.0344
7.03572
7.03676
7.03752
7.03802
7.03827
7.03826
7.03798
7.03744
7.03662
7.03549
7.03402
7.03219
7.02996
7.02726
7.02405
7.02025
7.01579
7.01058
7.00453
6.99755
6.98954
6.98041
6.97005
6.95838
6.94533
6.93088
6.91503
6.8979
6.87968
6.86069
6.84137
6.82225
6.8039
6.78689
6.7717
6.7587
6.74812
6.7401
6.73473
6.73207
6.63772
6.63952
6.64305
6.64804
6.65417
6.66112
6.6686
6.67633
6.6841
6.69173
6.69909
6.70612
6.71274
6.71891
6.72462
6.72984
6.73456
6.7388
6.74256
6.74587
6.74874
6.75121
6.75331
6.75506
6.75649
6.75761
6.75844
6.75898
6.75926
6.75926
6.75898
6.75841
6.75754
6.75635
6.7548
6.75287
6.7505
6.74764
6.74422
6.74018
6.73542
6.72984
6.72336
6.71585
6.70721
6.69732
6.68607
6.67334
6.65904
6.64312
6.62557
6.60647
6.58603
6.5646
6.5427
6.52096
6.50009
6.48078
6.46359
6.44895
6.4371
6.42815
6.42218
6.41922
6.35779
6.35991
6.36402
6.36981
6.37688
6.38485
6.39334
6.40206
6.41076
6.41924
6.42739
6.43513
6.4424
6.44916
6.45539
6.46107
6.46621
6.47079
6.47486
6.47842
6.4815
6.48415
6.48639
6.48826
6.48979
6.49098
6.49187
6.49246
6.49276
6.49277
6.49249
6.4919
6.491
6.48976
6.48815
6.48613
6.48365
6.48066
6.47708
6.47283
6.46781
6.46193
6.45506
6.44708
6.43788
6.42731
6.41524
6.40154
6.38607
6.36874
6.34952
6.32845
6.30575
6.2818
6.25719
6.23269
6.20916
6.18742
6.16817
6.15186
6.13874
6.12889
6.12234
6.11911
6.08951
6.09199
6.09676
6.10345
6.11155
6.12062
6.1302
6.13995
6.1496
6.15894
6.16788
6.17632
6.18422
6.19155
6.19829
6.20443
6.20995
6.21487
6.21922
6.22301
6.22629
6.2291
6.23147
6.23345
6.23506
6.23633
6.23727
6.2379
6.23822
6.23825
6.23796
6.23737
6.23644
6.23516
6.2335
6.23142
6.22886
6.22576
6.22205
6.21763
6.21241
6.20626
6.19906
6.19069
6.18099
6.16981
6.15701
6.14241
6.12584
6.10718
6.08633
6.06332
6.03832
6.01176
5.9843
5.95686
5.93049
5.90621
5.88481
5.86682
5.85245
5.84174
5.83465
5.83116
5.83233
5.83521
5.84073
5.84842
5.85767
5.86792
5.87865
5.88948
5.90009
5.91031
5.92002
5.92915
5.93767
5.94556
5.9528
5.95936
5.96526
5.9705
5.97511
5.97911
5.98257
5.98552
5.98801
5.99008
5.99177
5.9931
5.99409
5.99475
5.9951
5.99514
5.99486
5.99426
5.99332
5.99201
5.99032
5.98818
5.98556
5.98239
5.97858
5.97404
5.96865
5.96229
5.95482
5.9461
5.93597
5.92426
5.9108
5.89539
5.87782
5.85791
5.8355
5.81056
5.78323
5.75396
5.72349
5.69291
5.66351
5.63654
5.61294
5.59326
5.57768
5.56615
5.55858
5.55485
5.58571
5.58905
5.59541
5.60423
5.61473
5.62626
5.63822
5.65015
5.66176
5.67283
5.6833
5.69311
5.70224
5.71067
5.71838
5.72537
5.73162
5.73716
5.74201
5.74621
5.74982
5.7529
5.75549
5.75764
5.7594
5.76078
5.76182
5.76251
5.76289
5.76294
5.76267
5.76207
5.76112
5.7598
5.75808
5.75591
5.75325
5.75003
5.74615
5.74152
5.736
5.72948
5.72179
5.71278
5.70229
5.69012
5.67608
5.65995
5.64148
5.6204
5.59651
5.56968
5.54
5.50791
5.47426
5.44031
5.40766
5.37784
5.35198
5.33063
5.3139
5.30163
5.29362
5.28969
5.34911
5.35298
5.3603
5.37038
5.38227
5.39518
5.40843
5.42151
5.4341
5.44604
5.45724
5.46771
5.47742
5.48637
5.49455
5.50195
5.50854
5.51436
5.51943
5.52381
5.52755
5.53073
5.53341
5.53564
5.53745
5.53889
5.53996
5.54069
5.54108
5.54115
5.54089
5.54029
5.53934
5.53801
5.53628
5.5341
5.53142
5.52817
5.52425
5.51956
5.51397
5.50732
5.49946
5.49022
5.47942
5.46686
5.45233
5.43557
5.41629
5.39417
5.36888
5.34021
5.30817
5.27318
5.23614
5.19856
5.1624
5.12956
5.10138
5.0784
5.06061
5.04769
5.03931
5.03523
5.12205
5.12653
5.13494
5.14642
5.15984
5.17424
5.18884
5.2031
5.21668
5.22945
5.24137
5.25247
5.26275
5.27221
5.28084
5.28862
5.29554
5.30162
5.30689
5.31142
5.31529
5.31856
5.32131
5.3236
5.32546
5.32693
5.32804
5.3288
5.32921
5.32929
5.32904
5.32845
5.3275
5.32617
5.32444
5.32226
5.31958
5.31632
5.3124
5.30768
5.30204
5.29531
5.28733
5.27791
5.26686
5.25398
5.23904
5.22175
5.20177
5.17871
5.15214
5.12171
5.08731
5.04931
5.00868
4.96716
4.92719
4.89116
4.86063
4.83609
4.81734
4.80388
4.79523
4.79103
4.90405
4.90922
4.91886
4.93192
4.94703
4.96302
4.97903
4.99449
5.00906
5.02263
5.03523
5.04693
5.05775
5.0677
5.07677
5.08493
5.09216
5.09848
5.10394
5.10861
5.11257
5.11591
5.11872
5.12106
5.12296
5.12447
5.12561
5.12639
5.12682
5.12692
5.12668
5.1261
5.12516
5.12384
5.12211
5.11994
5.11727
5.11403
5.11012
5.10541
5.09976
5.09299
5.08493
5.07537
5.06413
5.05099
5.03571
5.01799
4.99742
4.97356
4.94583
4.91374
4.87701
4.83592
4.79147
4.74566
4.70152
4.6621
4.6292
4.60321
4.58366
4.56979
4.56097
4.55669
4.69465
4.70061
4.71165
4.72648
4.74344
4.76112
4.7786
4.79527
4.8108
4.82514
4.83839
4.85066
4.86201
4.87243
4.88193
4.89045
4.89798
4.90452
4.91015
4.91492
4.91896
4.92236
4.92521
4.92758
4.92952
4.93107
4.93223
4.93303
4.93348
4.93359
4.93337
4.9328
4.93187
4.93056
4.92885
4.9267
4.92405
4.92085
4.91697
4.9123
4.90668
4.8999
4.8918
4.88215
4.87076
4.85742
4.84188
4.82381
4.80278
4.77826
4.74953
4.71589
4.67688
4.63263
4.58413
4.53362
4.48488
4.44186
4.40663
4.37934
4.35916
4.34503
4.33613
4.33185
4.4934
4.50028
4.5129
4.52972
4.54869
4.56817
4.58717
4.60506
4.62152
4.63657
4.65042
4.66324
4.67508
4.68596
4.69587
4.70476
4.71256
4.71931
4.72508
4.72995
4.73404
4.73747
4.74036
4.74276
4.74473
4.7463
4.74749
4.7483
4.74877
4.7489
4.74868
4.74813
4.74721
4.74592
4.74423
4.74211
4.7395
4.73634
4.73253
4.72793
4.72235
4.71561
4.7075
4.69781
4.68631
4.67281
4.65709
4.63877
4.61739
4.59236
4.56279
4.52776
4.48653
4.43909
4.38632
4.33062
4.27676
4.22993
4.19243
4.16404
4.14345
4.12924
4.12038
4.11613
4.29988
4.30783
4.32222
4.34126
4.36245
4.3838
4.40436
4.42348
4.44082
4.45653
4.47092
4.48425
4.49658
4.50788
4.51821
4.52746
4.53552
4.54246
4.54835
4.55329
4.55741
4.56086
4.56377
4.5662
4.56818
4.56978
4.57098
4.57182
4.5723
4.57243
4.57223
4.5717
4.5708
4.56953
4.56786
4.56578
4.56322
4.56012
4.55639
4.55187
4.54639
4.53971
4.53163
4.52193
4.51035
4.49675
4.48091
4.46242
4.4408
4.41542
4.38522
4.34898
4.30563
4.25497
4.19771
4.13626
4.07666
4.0258
3.98617
3.95693
3.93618
3.92207
3.91337
3.90922
4.11368
4.12287
4.13924
4.16076
4.18439
4.20768
4.22983
4.25018
4.26834
4.28464
4.29949
4.31332
4.3261
4.33782
4.34856
4.35817
4.36647
4.37358
4.37958
4.38455
4.38869
4.39214
4.39506
4.3975
4.39951
4.40112
4.40234
4.40319
4.40368
4.40383
4.40364
4.40312
4.40225
4.401
4.39936
4.39732
4.39481
4.39179
4.38816
4.38376
4.37838
4.37179
4.36378
4.3541
4.34248
4.3288
4.31292
4.29433
4.27258
4.24704
4.2164
4.17916
4.13381
4.07997
4.01806
3.95019
3.88406
3.82897
3.78742
3.75766
3.73702
3.72321
3.71478
3.71078
3.9344
3.94505
3.9636
3.98792
4.01421
4.03948
4.06323
4.08482
4.10371
4.12051
4.13577
4.15007
4.1633
4.17538
4.18655
4.19653
4.20505
4.21231
4.2184
4.22339
4.22751
4.23095
4.23387
4.23632
4.23833
4.23996
4.24121
4.24206
4.24256
4.24272
4.24255
4.24205
4.24119
4.23996
4.23836
4.23636
4.23392
4.23098
4.22746
4.2232
4.21796
4.21149
4.20357
4.19396
4.18231
4.16858
4.15271
4.1341
4.11231
4.08678
4.05594
4.01795
3.97074
3.9138
3.84715
3.77208
3.69841
3.63893
3.59578
3.56589
3.54566
3.53235
3.52432
3.52052
3.76166
3.77406
3.79495
3.82243
3.85165
3.87887
3.90424
3.92707
3.9466
3.96381
3.97937
3.99414
4.00781
4.02023
4.03184
4.04219
4.0509
4.05829
4.06447
4.06944
4.07353
4.07693
4.07985
4.08231
4.08432
4.08596
4.08723
4.08809
4.08859
4.08876
4.08861
4.08813
4.0873
4.08609
4.08451
4.08257
4.08019
4.07733
4.07396
4.06985
4.06479
4.05844
4.05065
4.04114
4.02946
4.0157
3.99992
3.98134
3.95958
3.93427
3.90345
3.86501
3.81609
3.75618
3.68483
3.60163
3.51913
3.45518
3.41089
3.38133
3.36184
3.34922
3.34169
3.33815
3.59508
3.60958
3.63296
3.66401
3.69647
3.72553
3.75253
3.77664
3.79667
3.8142
3.82995
3.84521
3.85931
3.872
3.88408
3.89485
3.90369
3.9112
3.91745
3.92239
3.92641
3.92975
3.93267
3.93514
3.93713
3.9388
3.94009
3.94095
3.94145
3.94162
3.94149
3.94103
3.94023
3.93904
3.93748
3.93561
3.93329
3.93052
3.9273
3.92337
3.91851
3.9123
3.90466
3.89531
3.88359
3.86978
3.85419
3.83568
3.81399
3.78911
3.75856
3.72001
3.66952
3.60683
3.53101
3.4386
3.34559
3.27723
3.23242
3.20371
3.18528
3.17355
3.16662
3.16338
3.43428
3.45139
3.47728
3.51239
3.54846
3.57915
3.60779
3.63326
3.65359
3.67135
3.68715
3.70294
3.71749
3.73035
3.74295
3.75419
3.7631
3.77072
3.77705
3.7819
3.78584
3.78909
3.79202
3.79449
3.79646
3.79816
3.79947
3.80032
3.80082
3.801
3.80088
3.80045
3.79968
3.7985
3.79697
3.79516
3.79291
3.79023
3.78718
3.78345
3.77881
3.77275
3.76528
3.75615
3.74437
3.73047
3.71518
3.69676
3.67515
3.65093
3.6209
3.58265
3.53068
3.46542
3.38572
3.28279
3.17706
3.1046
3.06009
3.03281
3.01577
3.00509
2.99884
2.99593
3.27888
3.29928
3.32754
3.36733
3.40747
3.43939
3.46972
3.49667
3.51705
3.53496
3.55063
3.56705
3.58207
3.59495
3.60817
3.61994
3.62882
3.63653
3.64296
3.64767
3.65152
3.65465
3.65761
3.66008
3.66201
3.66374
3.66508
3.66592
3.66641
3.66659
3.66649
3.66608
3.66535
3.66418
3.66266
3.66094
3.65875
3.65614
3.65328
3.64976
3.64539
3.63948
3.63219
3.62337
3.61147
3.59743
3.58258
3.56427
3.54266
3.51939
3.49008
3.45266
3.39923
3.33162
3.24905
3.13409
3.01272
2.93685
2.89366
2.86841
2.85307
2.8436
2.83811
2.83556
3.1285
3.15315
3.18334
3.22859
3.27339
3.3059
3.338
3.36666
3.38671
3.40476
3.42003
3.43724
3.45278
3.46546
3.47943
3.49184
3.50054
3.50836
3.51492
3.51942
3.52317
3.52614
3.52913
3.53162
3.53348
3.53526
3.53664
3.53745
3.53794
3.53811
3.53803
3.53765
3.53697
3.53579
3.53427
3.53265
3.53053
3.52796
3.52533
3.52203
3.51798
3.51218
3.50509
3.49669
3.4846
3.4703
3.45611
3.43788
3.41613
3.39416
3.36572
3.3298
3.27481
3.20502
3.12124
2.99248
2.85156
2.77357
2.73293
2.71034
2.69698
2.68884
2.68416
2.68199
2.98271
3.01297
3.04426
3.09598
3.14618
3.17831
3.21233
3.24304
3.26226
3.2805
3.295
3.31326
3.3294
3.34155
3.35646
3.36966
3.37796
3.38591
3.39266
3.39685
3.40051
3.40326
3.40634
3.40886
3.4106
3.41245
3.41388
3.41464
3.41513
3.4153
3.41524
3.41489
3.41426
3.41307
3.41153
3.41004
3.40796
3.40542
3.40305
3.39996
3.3963
3.39058
3.38367
3.37588
3.36347
3.34875
3.33552
3.31732
3.29518
3.27495
3.24743
3.21386
3.15703
3.08511
3.00268
2.85807
2.69237
2.61443
2.57779
2.55846
2.5473
2.54058
2.53675
2.53498
2.84108
2.87886
2.90975
2.96929
3.02588
3.05616
3.09242
3.12569
3.14333
3.16196
3.17518
3.19488
3.21172
3.22287
3.23901
3.2532
3.26079
3.26891
3.27595
3.2797
3.2833
3.28575
3.28898
3.29153
3.2931
3.29506
3.29656
3.29725
3.29773
3.29788
3.29785
3.29753
3.29697
3.29576
3.29416
3.29285
3.29081
3.28824
3.28619
3.28329
3.28011
3.2744
3.26764
3.2607
3.24783
3.23241
3.22059
3.20235
3.17939
3.16151
3.13477
3.10473
3.04554
2.97123
2.89391
2.73111
2.53367
2.4592
2.42817
2.41262
2.40384
2.39861
2.39564
2.39427
2.70309
2.75108
2.7792
2.84835
2.91263
2.93896
2.97796
3.01454
3.02954
3.04897
3.06016
3.08188
3.09958
3.10906
3.12684
3.14229
3.14871
3.15712
3.16458
3.16769
3.17131
3.17333
3.17681
3.17942
3.18073
3.18284
3.18444
3.18501
3.1855
3.18563
3.18563
3.18532
3.18487
3.18361
3.18192
3.18085
3.17883
3.17616
3.17451
3.17175
3.16918
3.16338
3.1567
3.15098
3.13743
3.12094
3.11113
3.09273
3.06833
3.05363
3.02727
3.00235
2.93996
2.86255
2.79568
2.61205
2.37361
2.30784
2.28405
2.27271
2.26643
2.26271
2.26061
2.25964
2.56818
2.63012
2.65182
2.733
2.80669
2.8261
2.86867
2.90959
2.92046
2.94145
2.94953
2.97407
2.99287
2.99971
3.01973
3.0368
3.04142
3.05028
3.05835
3.06056
3.06431
3.06575
3.0696
3.07229
3.07322
3.07558
3.07729
3.07769
3.0782
3.0783
3.07834
3.07804
3.07773
3.07641
3.07456
3.07381
3.07179
3.06892
3.06778
3.06508
3.06331
3.05728
3.05057
3.04654
3.03205
3.01392
3.007
2.98828
2.96153
2.9512
2.92439
2.90678
2.83993
2.75797
2.70898
2.50159
2.20988
2.16051
2.14547
2.13862
2.13487
2.13266
2.13141
2.13084
2.43567
2.51673
2.52666
2.62312
2.70845
2.71688
2.76425
2.81093
2.81559
2.83935
2.84281
2.8713
2.89149
2.8944
2.91747
2.93662
2.93858
2.94816
2.95711
2.95803
2.96213
2.96273
2.96715
2.96996
2.97034
2.97304
2.9749
2.97507
2.97563
2.97567
2.97577
2.97546
2.97533
2.97392
2.97183
2.97153
2.96949
2.96628
2.96582
2.96303
2.96231
2.95586
2.94893
2.94726
2.93149
2.91096
2.90809
2.88886
2.85848
2.85419
2.8255
2.81817
2.74513
2.6561
2.63503
2.40073
2.03961
2.01768
2.01249
2.01021
2.00897
2.00824
2.00783
2.00764
)
;

boundaryField
{
    left
    {
        type            zeroGradient;
    }
    right
    {
        type            zeroGradient;
    }
    interface
    {
        type            fixedValue;
        value           nonuniform List<scalar> 
64
(
2.38187
2.47741
2.47741
2.58563
2.68013
2.68013
2.73198
2.78384
2.78384
2.81077
2.81077
2.84318
2.86515
2.86515
2.89155
2.91319
2.91319
2.92396
2.93417
2.93417
2.93895
2.93895
2.94418
2.94732
2.94732
2.95057
2.95275
2.95275
2.95345
2.95345
2.95368
2.95339
2.95339
2.95193
2.94964
2.94964
2.94754
2.94398
2.94398
2.94096
2.94096
2.934
2.92662
2.92662
2.90956
2.88677
2.88677
2.86674
2.83296
2.83296
2.80157
2.80157
2.72298
2.6269
2.6269
2.37409
1.96238
1.96238
1.96238
1.96238
1.96238
1.96238
1.96238
1.96238
)
;
    }
    bottom
    {
        type            fixedValue;
        value           uniform 10;
    }
    defaultFaces
    {
        type            empty;
    }
}


// ************************************************************************* //
