/*--------------------------------*- C++ -*----------------------------------*\
| =========                 |                                                 |
| \\      /  F ield         | OpenFOAM: The Open Source CFD Toolbox           |
|  \\    /   O peration     | Version:  5.x                                   |
|   \\  /    A nd           | Web:      www.OpenFOAM.org                      |
|    \\/     M anipulation  |                                                 |
\*---------------------------------------------------------------------------*/
FoamFile
{
    version     2.0;
    format      ascii;
    class       volScalarField;
    location    "15";
    object      gradTx;
}
// * * * * * * * * * * * * * * * * * * * * * * * * * * * * * * * * * * * * * //

dimensions      [0 -1 0 1 0 0 0];

internalField   nonuniform List<scalar> 
2048
(
0.00630501
0.0187346
0.0306392
0.0417209
0.0517508
0.0605795
0.0681367
0.0744202
0.0794796
0.0833979
0.0862747
0.0882144
0.089319
0.0896853
0.0894056
0.0885693
0.087263
0.0855703
0.0835691
0.0813278
0.0789021
0.0763328
0.0736448
0.0708481
0.0679406
0.06491
0.061737
0.0583959
0.0548558
0.051081
0.0470311
0.0426626
0.0379303
0.0327896
0.0271987
0.02112
0.0145213
0.00737625
-0.000334626
-0.00862304
-0.0174905
-0.0269249
-0.0368947
-0.0473425
-0.0581769
-0.0692631
-0.0804139
-0.0913822
-0.101857
-0.111465
-0.119783
-0.12636
-0.130754
-0.132571
-0.131513
-0.127417
-0.120278
-0.110248
-0.097616
-0.0827655
-0.06613
-0.0481505
-0.029247
-0.00980743
0.0187887
0.0558188
0.0912583
0.124208
0.153983
0.180141
0.202484
0.221019
0.235907
0.247408
0.255826
0.261476
0.264661
0.265668
0.264767
0.262223
0.258292
0.253224
0.247251
0.240579
0.233375
0.225758
0.217803
0.209538
0.200952
0.192009
0.18265
0.172798
0.162363
0.151236
0.1393
0.126423
0.11247
0.0973072
0.0808101
0.0628665
0.0433805
0.0222741
-0.000511584
-0.025013
-0.0512379
-0.0791543
-0.108675
-0.139637
-0.171778
-0.204707
-0.237876
-0.270558
-0.301833
-0.330586
-0.35555
-0.375361
-0.388676
-0.394292
-0.391299
-0.379195
-0.357964
-0.328076
-0.290414
-0.246153
-0.196609
-0.14311
-0.0869055
-0.0291383
0.0311404
0.0924846
0.151109
0.20549
0.254479
0.29736
0.333836
0.363964
0.388055
0.406576
0.420056
0.429025
0.433984
0.435397
0.433703
0.429331
0.422702
0.41423
0.404304
0.393268
0.381403
0.368906
0.355893
0.342404
0.328417
0.313865
0.298647
0.282639
0.26569
0.247625
0.228245
0.207334
0.184664
0.160013
0.133171
0.103954
0.0722032
0.0377905
0.000616822
-0.0393828
-0.0822301
-0.127886
-0.176226
-0.227005
-0.279816
-0.334045
-0.388819
-0.442964
-0.494969
-0.542992
-0.584902
-0.618388
-0.64114
-0.651079
-0.646614
-0.626866
-0.591804
-0.542256
-0.479772
-0.406391
-0.324374
-0.235962
-0.143224
-0.0480093
0.0436003
0.129428
0.211278
0.286946
0.354804
0.413882
0.463835
0.504832
0.537403
0.562271
0.580224
0.59202
0.598353
0.599851
0.597104
0.590692
0.581197
0.5692
0.555255
0.539854
0.523394
0.506149
0.488272
0.469803
0.450698
0.430851
0.410119
0.388327
0.36527
0.340707
0.31436
0.285922
0.255071
0.22149
0.184885
0.144996
0.101607
0.0545378
0.00365029
-0.0511548
-0.109924
-0.172631
-0.239136
-0.309145
-0.382148
-0.457349
-0.533597
-0.609309
-0.682414
-0.750337
-0.810049
-0.85821
-0.891425
-0.906599
-0.901335
-0.874296
-0.825437
-0.756017
-0.668384
-0.565595
-0.450975
-0.327746
-0.198793
-0.0666108
0.0563839
0.167272
0.272727
0.369779
0.456295
0.53108
0.593813
0.64487
0.68509
0.715531
0.737282
0.751343
0.758592
0.759798
0.755678
0.746946
0.734343
0.718625
0.700525
0.6807
0.659671
0.637791
0.615236
0.592034
0.568101
0.543282
0.517386
0.490193
0.461447
0.430846
0.398031
0.3626
0.324126
0.282192
0.236413
0.186458
0.132051
0.0729677
0.00902866
-0.0599046
-0.133918
-0.213016
-0.297078
-0.3858
-0.478614
-0.574599
-0.672383
-0.770028
-0.864938
-0.953809
-1.03266
-1.097
-1.14217
-1.16387
-1.15869
-1.12471
-1.06186
-0.971949
-0.858334
-0.725319
-0.577485
-0.419136
-0.253975
-0.0850562
0.069696
0.206603
0.336348
0.455083
0.560134
0.650124
0.724859
0.785052
0.831975
0.867115
0.891918
0.907639
0.915318
0.91583
0.909984
0.898607
0.882594
0.862892
0.840441
0.816083
0.790482
0.764065
0.737022
0.709343
0.68088
0.651418
0.620711
0.588501
0.554491
0.518323
0.479556
0.437683
0.392163
0.342463
0.288104
0.228681
0.163868
0.0933999
0.0170601
-0.0653341
-0.153921
-0.248763
-0.349793
-0.456737
-0.569026
-0.685681
-0.805179
-0.925299
-1.04297
-1.15418
-1.25392
-1.33642
-1.39554
-1.42544
-1.42144
-1.38086
-1.30359
-1.19215
-1.0512
-0.886628
-0.704544
-0.510468
-0.308918
-0.103385
0.083741
0.248001
0.403011
0.543893
0.667397
0.77203
0.857865
0.926122
0.978667
1.01754
1.04459
1.06135
1.06898
1.0684
1.06047
1.04609
1.02631
1.0023
0.975246
0.946203
0.916003
0.885148
0.853819
0.821936
0.789257
0.755482
0.720314
0.683462
0.644608
0.603348
0.559158
0.511412
0.459434
0.402561
0.340211
0.271908
0.197283
0.116044
0.0279421
-0.0672512
-0.169742
-0.279675
-0.397073
-0.521745
-0.653176
-0.790403
-0.931838
-1.07507
-1.21665
-1.35185
-1.47462
-1.57774
-1.65328
-1.69349
-1.69205
-1.64522
-1.55282
-1.41832
-1.24812
-1.05015
-0.832389
-0.601758
-0.363565
-0.121568
0.0987302
0.292064
0.473591
0.637224
0.779095
0.897696
0.993555
1.06862
1.12556
1.16709
1.19557
1.21276
1.21989
1.21786
1.20748
1.18973
1.16579
1.1371
1.10511
1.07119
1.03635
1.00116
0.965777
0.929989
0.893424
0.85567
0.816373
0.775238
0.731948
0.686072
0.636998
0.583965
0.52613
0.462681
0.392919
0.316303
0.232436
0.141017
0.0417777
-0.0655557
-0.181271
-0.305625
-0.438769
-0.58064
-0.730844
-0.888509
-1.05209
-1.2191
-1.38581
-1.54688
-1.69518
-1.82185
-1.91683
-1.96998
-1.97277
-1.92007
-1.81152
-1.65187
-1.44986
-1.21608
-0.96087
-0.692714
-0.417662
-0.139506
0.11489
0.33942
0.548999
0.736098
0.896201
1.02792
1.13251
1.21291
1.27284
1.31588
1.34495
1.362
1.36826
1.36447
1.35134
1.32982
1.30128
1.26744
1.23016
1.19113
1.15159
1.1122
1.07301
1.03366
0.99356
0.952159
0.909046
0.863952
0.816613
0.766591
0.713186
0.655467
0.592392
0.522964
0.446353
0.361962
0.269391
0.168355
0.0585879
-0.0602279
-0.188475
-0.326553
-0.474782
-0.633274
-0.801815
-0.979708
-1.16556
-1.35697
-1.55006
-1.73903
-1.91567
-2.06931
-2.18734
-2.25664
-2.26576
-2.20759
-2.0815
-1.89395
-1.65682
-1.38424
-1.08946
-0.782741
-0.470767
-0.157037
0.132465
0.390753
0.630201
0.841567
1.01966
1.16343
1.27516
1.35917
1.4205
1.46383
1.49264
1.50908
1.51419
1.50845
1.49229
1.46662
1.43298
1.39348
1.35045
1.30602
1.26172
1.21829
1.17563
1.1331
1.08984
1.04512
0.998465
0.949695
0.898659
0.844957
0.787788
0.726008
0.658326
0.583515
0.500598
0.408933
0.308154
0.19803
0.078322
-0.0513191
-0.191388
-0.342462
-0.505069
-0.679544
-0.8659
-1.0637
-1.27183
-1.48812
-1.7088
-1.92775
-2.13581
-2.32034
-2.46574
-2.5551
-2.57315
-2.51
-2.36453
-2.14549
-1.86906
-1.55403
-1.21724
-0.870958
-0.52226
-0.173941
0.151729
0.446809
0.718236
0.954727
1.15042
1.30487
1.42183
1.50741
1.56837
1.61066
1.63845
1.65392
1.65776
1.64998
1.6306
1.60039
1.56109
1.51532
1.466
1.41583
1.36672
1.31946
1.27371
1.22846
1.18246
1.13473
1.08476
1.03253
0.978103
0.921179
0.860831
0.795648
0.724013
0.644415
0.555705
0.45722
0.348677
0.22995
0.100867
-0.0389438
-0.190105
-0.35341
-0.529643
-0.719395
-0.922951
-1.1402
-1.37043
-1.61192
-1.86123
-2.11226
-2.35503
-2.57487
-2.75269
-2.86688
-2.89713
-2.82962
-2.66238
-2.40726
-2.0863
-1.72444
-1.34296
-0.956209
-0.57136
-0.189945
0.172984
0.508413
0.814236
1.07674
1.2894
1.4528
1.5727
1.6575
1.71609
1.75598
1.78205
1.79635
1.79899
1.78924
1.76653
1.73137
1.68579
1.63303
1.57679
1.52048
1.46651
1.41569
1.36734
1.31989
1.27161
1.22117
1.16804
1.11247
1.05492
0.995225
0.932317
0.864424
0.789522
0.705735
0.611709
0.506797
0.390873
0.263977
0.126053
-0.0232713
-0.184771
-0.359508
-0.548571
-0.752837
-0.972878
-1.20896
-1.46091
-1.72765
-2.00642
-2.29149
-2.57241
-2.83248
-3.0486
-3.19342
-3.24
-3.169
-2.97694
-2.67985
-2.30787
-1.89402
-1.46495
-1.03709
-0.617153
-0.204733
0.19657
0.576479
0.919435
1.20883
1.43753
1.60772
1.72782
1.80912
1.86313
1.89923
1.923
1.93616
1.93787
1.92642
1.90037
1.85985
1.80725
1.74667
1.68274
1.61984
1.56095
1.50694
1.4566
1.40759
1.35753
1.30467
1.24843
1.18954
1.12904
1.06703
1.00222
0.932361
0.854914
0.76754
0.66863
0.557613
0.434616
0.299926
0.153663
-0.00451927
-0.175576
-0.360908
-0.56197
-0.779937
-1.01566
-1.26981
-1.54286
-1.8346
-2.14331
-2.46417
-2.78673
-3.0924
-3.35363
-3.53606
-3.60423
-3.53098
-3.31021
-2.96367
-2.5327
-2.0609
-1.58124
-1.11198
-0.658619
-0.217962
0.222865
0.652018
1.03518
1.3523
1.59574
1.77002
1.88714
1.96183
2.0088
2.03969
2.0608
2.07309
2.07439
2.06172
2.03245
1.98612
1.92566
1.85628
1.78378
1.71371
1.64989
1.59317
1.54158
1.49175
1.44049
1.38547
1.32605
1.26369
1.20034
1.13648
1.07049
0.999474
0.920254
0.829905
0.726486
0.609595
0.479752
0.337577
0.183437
0.0170534
-0.162748
-0.3578
-0.570002
-0.800831
-1.05136
-1.32266
-1.61593
-1.93208
-2.27078
-2.62881
-2.99646
-3.35354
-3.66759
-3.89604
-3.99252
-3.91885
-3.66448
-3.25896
-2.75924
-2.2227
-1.68951
-1.1791
-0.694678
-0.229274
0.252298
0.736148
1.16294
1.50855
1.76491
1.94
2.05045
2.11504
2.15226
2.17654
2.19485
2.20687
2.20857
2.19539
2.16317
2.11052
2.0412
1.9619
1.87977
1.80186
1.7331
1.67431
1.62238
1.57259
1.52079
1.46386
1.40104
1.33486
1.26866
1.20344
1.13708
1.06578
0.985617
0.892924
0.785297
0.662654
0.526105
0.376676
0.215074
0.0411524
-0.146537
-0.350393
-0.572867
-0.815717
-1.08013
-1.36751
-1.6799
-2.01946
-2.38768
-2.78377
-3.19974
-3.61438
-3.98996
-4.27439
-4.40782
-4.33649
-4.04233
-3.5657
-2.98539
-2.37657
-1.78714
-1.23656
-0.724243
-0.238318
0.28535
0.830089
1.30432
1.67907
1.94591
2.11784
2.21747
2.26802
2.2925
2.30882
2.32452
2.33725
2.34038
2.32773
2.293
2.23342
2.15404
2.06357
1.97057
1.88398
1.81031
1.75028
1.69914
1.65037
1.5988
1.54023
1.47354
1.40292
1.33376
1.26775
1.20193
1.13127
1.05109
0.956719
0.845088
0.716682
0.573476
0.416944
0.248241
0.0674531
-0.127211
-0.338908
-0.570789
-0.824852
-1.10221
-1.40448
-1.73465
-2.09624
-2.49287
-2.92725
-3.39445
-3.87305
-4.31979
-4.67191
-4.85339
-4.78855
-4.44681
-3.88355
-3.2084
-2.51911
-1.87132
-1.28246
-0.746274
-0.244771
0.32257
0.935171
1.46102
1.86547
2.13952
2.30353
2.3878
2.41994
2.42838
2.43545
2.44917
2.464
2.46985
2.45905
2.42253
2.35522
2.26434
2.16134
2.05602
1.95973
1.8812
1.821
1.77203
1.72536
1.6749
1.615
1.54372
1.46768
1.39533
1.3292
1.26499
1.19597
1.11676
1.02146
0.905893
0.771549
0.621659
0.458083
0.282572
0.0956041
-0.105049
-0.323561
-0.564005
-0.82855
-1.11795
-1.4338
-1.78021
-2.16209
-2.5853
-3.05735
-3.57818
-4.12729
-4.65565
-5.08894
-5.33274
-5.28072
-4.8815
-4.21169
-3.4247
-2.64645
-1.93908
-1.31497
-0.759841
-0.248354
0.364596
1.05281
1.63487
2.0695
2.34641
2.49686
2.56098
2.56991
2.55857
2.55524
2.56814
2.58697
2.59695
2.5897
2.55249
2.47636
2.37221
2.25529
2.13593
2.02865
1.94536
1.88641
1.84128
1.79781
1.74953
1.68876
1.61177
1.52888
1.45298
1.38759
1.32625
1.25985
1.18275
1.08738
0.967754
0.827092
0.670442
0.499784
0.317667
0.12523
-0.0803241
-0.304549
-0.552753
-0.827173
-1.12776
-1.4558
-1.81675
-2.21689
-2.66403
-3.17212
-3.74829
-4.37452
-4.99562
-5.5252
-5.84962
-5.82001
-5.35069
-4.54865
-3.62982
-2.75421
-1.9874
-1.33241
-0.764185
-0.248859
0.412195
1.1845
1.82778
2.29313
2.56713
2.69735
2.73658
2.71699
2.68163
2.66684
2.68084
2.70618
2.72161
2.72006
2.68379
2.59727
2.47767
2.34558
2.21017
2.09021
2.00232
1.94647
1.9072
1.86796
1.82317
1.76221
1.67791
1.58614
1.5062
1.4427
1.38575
1.32287
1.24916
1.1548
1.03072
0.883099
0.719626
0.541735
0.353094
0.155932
-0.0533052
-0.282032
-0.537253
-0.821126
-1.13217
-1.47088
-1.84462
-2.26079
-2.7283
-3.26956
-3.90191
-4.61186
-5.33726
-5.97949
-6.40791
-6.41524
-5.85953
-4.89198
-3.81816
-2.83757
-2.0134
-1.33341
-0.758774
-0.246157
0.466323
1.33177
2.04167
2.53862
2.80196
2.90412
2.91421
2.86024
2.79591
2.76881
2.78673
2.8218
2.84362
2.85046
2.81766
2.71835
2.58059
2.43246
2.27861
2.14378
2.05149
2.00116
1.97023
1.93597
1.89624
1.83631
1.74238
1.63894
1.55438
1.49433
1.44363
1.38493
1.31609
1.2242
1.09482
0.939281
0.769045
0.58363
0.388382
0.187288
-0.0242457
-0.25612
-0.517694
-0.81085
-1.13182
-1.47952
-1.86425
-2.29429
-2.77756
-3.34767
-4.03597
-4.83627
-5.67772
-6.44926
-7.01141
-7.07753
-6.41421
-5.23788
-3.98284
-2.89143
-2.01441
-1.31693
-0.743344
-0.240216
0.528244
1.49612
2.2784
2.8087
3.05089
3.11577
3.09377
2.99878
2.89956
2.8595
2.88541
2.93437
2.96256
2.98114
2.95574
2.83995
2.68057
2.5164
2.34118
2.18858
2.09216
2.05053
2.03101
2.00182
1.96918
1.91231
1.80546
1.68658
1.59674
1.54228
1.50019
1.44582
1.38358
1.29622
1.16007
0.995232
0.818601
0.625181
0.423011
0.218851
0.00661764
-0.226852
-0.494215
-0.796817
-1.12745
-1.48217
-1.87618
-2.31827
-2.81154
-3.40449
-4.14724
-5.04465
-6.01387
-6.93015
-7.66352
-7.82115
-7.02221
-5.58055
-4.11558
-2.91051
-1.98823
-1.28245
-0.717935
-0.231103
0.599711
1.67894
2.53962
3.10681
3.31346
3.33018
3.27556
3.13186
2.9905
2.93711
2.97658
3.04489
3.07762
3.11219
3.10026
2.96225
2.77683
2.5982
2.39789
2.22365
2.12348
2.09469
2.09047
2.06528
2.04226
1.99188
1.86745
1.72811
1.63236
1.58643
1.55598
1.50514
1.45159
1.37185
1.22644
1.05037
0.868315
0.666127
0.456401
0.250149
0.0390664
-0.194179
-0.466891
-0.779521
-1.11993
-1.47928
-1.88093
-2.33413
-2.83026
-3.43812
-4.23225
-5.23397
-6.34263
-7.4153
-8.36671
-8.66452
-7.69248
-5.91146
-4.20657
-2.88966
-1.93326
-1.22994
-0.682895
-0.218984
0.683248
1.8814
2.82653
3.43746
3.58855
3.54422
3.46067
3.25881
3.06634
2.99958
3.06011
3.15508
3.18742
3.24339
3.2544
3.0852
2.86802
2.67916
2.44881
2.24781
2.14441
2.13381
2.15
2.12568
2.1156
2.07732
1.92859
1.76231
1.66014
1.62671
1.61192
1.56221
1.51994
1.45248
1.29379
1.10385
0.918405
0.706239
0.487893
0.280688
0.0728964
-0.157947
-0.435716
-0.759469
-1.11035
-1.47116
-1.87896
-2.34387
-2.83403
-3.44672
-4.2873
-5.4015
-6.66156
-7.89455
-9.1218
-9.63157
-8.43573
-6.21826
-4.24453
-2.82413
-1.8487
-1.15997
-0.638876
-0.204113
0.782597
2.10426
3.13952
3.80682
3.87421
3.75344
3.65136
3.37913
3.12433
3.04461
3.13602
3.2677
3.28969
3.37404
3.42263
3.20831
2.95195
2.76136
2.49411
2.25964
2.15371
2.16813
2.21161
2.1818
2.18898
2.17177
1.98907
1.78759
1.67875
1.66307
1.66946
1.61594
1.58822
1.54012
1.3618
1.15448
0.969398
0.745315
0.516722
0.309958
0.107909
-0.117877
-0.40059
-0.737156
-1.10003
-1.45796
-1.87047
-2.35026
-2.82347
-3.4286
-4.3083
-5.54484
-6.96967
-8.35352
-9.92682
-10.7535
-9.2646
-6.48347
-4.21686
-2.71002
-1.73469
-1.07367
-0.5868
-0.186825
0.903349
2.34765
3.47774
4.22345
4.16726
3.95153
3.85171
3.49234
3.16126
3.06957
3.20434
3.38698
3.38089
3.50276
3.6113
3.33047
3.02524
2.84808
2.53396
2.25736
2.14988
2.19789
2.27828
2.23156
2.26172
2.27956
2.04887
1.80197
1.68671
1.69553
1.73084
1.66461
1.65567
1.6377
1.42991
1.20055
1.02229
0.783166
0.541984
0.337448
0.143897
-0.0735444
-0.361308
-0.713035
-1.09068
-1.43957
-1.85524
-2.35707
-2.79942
-3.38225
-4.29065
-5.662
-7.26863
-8.77238
-10.7756
-12.0713
-10.1938
-6.68268
-4.11006
-2.54471
-1.59243
-0.972737
-0.527814
-0.167509
1.05386
2.61078
3.83832
4.6994
4.46293
4.12975
4.06838
3.59787
3.17344
3.07155
3.26506
3.5193
3.45573
3.62713
3.82935
3.44964
3.08294
2.94423
2.56844
2.23883
2.13119
2.22324
2.35436
2.27171
2.33245
2.40664
2.10759
1.80298
1.68234
1.72403
1.79938
1.70564
1.72105
1.74936
1.49711
1.23967
1.07877
0.819569
0.562601
0.36267
0.180615
-0.0243581
-0.317563
-0.68746
-1.08452
-1.41551
-1.83235
-2.36935
-2.76285
-3.30645
-4.229
-5.75129
-7.56447
-9.12463
-11.6556
-13.6381
-11.2404
-6.78243
-3.91054
-2.32734
-1.42423
-0.85932
-0.463225
-0.146592
1.24648
2.89152
4.21553
5.25156
4.75421
4.27614
4.31174
3.69471
3.15657
3.04732
3.31775
3.67394
3.50652
3.74333
4.08931
3.56243
3.11794
3.05713
2.59731
2.20148
2.09568
2.24404
2.44603
2.29745
2.39887
2.5611
2.16418
1.78766
1.66382
1.74834
1.87991
1.73524
1.78243
1.88093
1.56183
1.26854
1.14147
0.854196
0.577279
0.385206
0.217746
0.030469
-0.268957
-0.660599
-1.08446
-1.38492
-1.79984
-2.39377
-2.71462
-3.20046
-4.11703
-5.81094
-7.86973
-9.37563
-12.5456
-15.5238
-12.4234
-6.73758
-3.60581
-2.05936
-1.23349
-0.735937
-0.394435
-0.124516
1.49924
3.18593
4.59952
5.90355
5.03118
4.37459
4.59723
3.78092
3.10576
2.99346
3.36121
3.86416
3.52242
3.84562
4.40845
3.6636
3.12037
3.19734
2.61974
2.14231
2.04119
2.25964
2.56207
2.30187
2.45744
2.75395
2.21658
1.75256
1.62928
1.76782
1.97929
1.74809
1.83698
2.0405
1.62162
1.28272
1.2144
0.886486
0.584463
0.404761
0.254846
0.0919529
-0.215029
-0.632303
-1.09437
-1.34639
-1.75428
-2.43922
-2.65516
-3.06428
-3.94711
-5.83849
-8.20633
-9.48112
-13.4122
-17.8184
-13.7636
-6.48821
-3.18624
-1.74484
-1.02455
-0.605334
-0.322866
-0.101715
1.83792
3.48766
4.97482
6.68792
5.28009
4.40373
4.94703
3.85293
3.01555
2.90648
3.39278
4.10852
3.48847
3.92571
4.81029
3.74543
3.07683
3.37979
2.63376
2.05791
1.96548
2.26838
2.71469
2.27539
2.50299
2.99993
2.26118
1.69377
1.57693
1.7811
2.10712
1.73675
1.88068
2.23909
1.67287
1.27627
1.30336
0.915471
0.5823
0.421253
0.29127
0.161384
-0.155316
-0.601928
-1.11935
-1.29801
-1.69022
-2.51736
-2.58403
-2.89905
-3.71005
-5.8296
-8.60902
-9.38559
-14.2058
-20.6382
-15.2833
-5.95597
-2.64746
-1.39076
-0.802489
-0.470332
-0.249892
-0.0786002
2.29877
3.78719
5.31842
7.64898
5.48217
4.33561
5.39224
3.90443
2.88005
2.78304
3.40747
4.43252
3.38453
3.97205
5.32634
3.79685
2.96947
3.62516
2.63563
1.9445
1.86639
2.2671
2.92059
2.20501
2.5283
3.31859
2.29212
1.60703
1.50519
1.78563
2.27653
1.69122
1.90798
2.49148
1.71039
1.24145
1.4165
0.939517
0.568609
0.434916
0.326078
0.240385
-0.0894463
-0.568086
-1.16612
-1.23729
-1.59956
-2.64352
-2.49925
-2.70752
-3.39489
-5.77647
-9.1295
-9.02086
-14.8557
-24.1316
-17.0052
-5.04011
-1.99352
-1.00697
-0.572824
-0.333683
-0.176785
-0.0555417
2.93168
4.07096
5.59758
8.84604
5.61233
4.13426
5.97527
3.92502
2.69314
2.62042
3.39677
4.87052
3.18403
3.96894
5.99807
3.80257
2.77509
3.96147
2.61895
1.79815
1.74206
2.25032
3.20221
2.07355
2.52357
3.73549
2.30045
1.48796
1.413
1.77703
2.50517
1.59818
1.91143
2.81716
1.72693
1.16835
1.56503
0.95599
0.54087
0.446434
0.357912
0.330995
-0.017278
-0.528332
-1.2434
-1.1612
-1.47072
-2.83763
-2.39639
-2.49475
-2.98876
-5.66561
-9.84121
-8.30462
-15.2644
-28.4863
-18.9508
-3.61293
-1.24083
-0.605815
-0.341148
-0.197925
-0.10467
-0.0328614
3.80398
4.32042
5.76718
10.3572
5.63753
3.75407
6.75278
3.89844
2.44888
2.41691
3.34712
5.46805
2.85261
3.89562
6.87922
3.74197
2.464
4.42601
2.57345
1.61495
1.59131
2.20927
3.58926
1.85867
2.4759
4.28362
2.27303
1.33231
1.30008
1.74831
2.81638
1.44035
1.88124
3.2414
1.71265
1.04444
1.76396
0.960824
0.49624
0.4571
0.384847
0.435773
0.0609108
-0.478772
-1.36233
-1.06626
-1.28773
-3.12549
-2.26755
-2.26894
-2.47699
-5.47485
-10.8447
-7.13935
-15.3013
-33.937
-21.1394
-1.51516
-0.422855
-0.201268
-0.112737
-0.0652802
-0.0344935
-0.0108262
)
;

boundaryField
{
    left
    {
        type            calculated;
        value           uniform 0;
    }
    right
    {
        type            calculated;
        value           uniform 0;
    }
    interface
    {
        type            calculated;
        value           nonuniform List<scalar> 
64
(
3.80398
4.32042
5.76718
10.3572
5.63753
3.75407
6.75278
3.89844
2.44888
2.41691
3.34712
5.46805
2.85261
3.89562
6.87922
3.74197
2.464
4.42601
2.57345
1.61495
1.59131
2.20927
3.58926
1.85867
2.4759
4.28362
2.27303
1.33231
1.30008
1.74831
2.81638
1.44035
1.88124
3.2414
1.71265
1.04444
1.76396
0.960824
0.49624
0.4571
0.384847
0.435773
0.0609108
-0.478772
-1.36233
-1.06626
-1.28773
-3.12549
-2.26755
-2.26894
-2.47699
-5.47485
-10.8447
-7.13935
-15.3013
-33.937
-21.1394
-1.51516
-0.422855
-0.201268
-0.112737
-0.0652802
-0.0344935
-0.0108262
)
;
    }
    bottom
    {
        type            calculated;
        value           nonuniform List<scalar> 
64
(
0.00630501
0.0187346
0.0306392
0.0417209
0.0517508
0.0605795
0.0681367
0.0744202
0.0794796
0.0833979
0.0862747
0.0882144
0.089319
0.0896853
0.0894056
0.0885693
0.087263
0.0855703
0.0835691
0.0813278
0.0789021
0.0763328
0.0736448
0.0708481
0.0679406
0.06491
0.061737
0.0583959
0.0548558
0.051081
0.0470311
0.0426626
0.0379303
0.0327896
0.0271987
0.02112
0.0145213
0.00737625
-0.000334626
-0.00862304
-0.0174905
-0.0269249
-0.0368947
-0.0473425
-0.0581769
-0.0692631
-0.0804139
-0.0913822
-0.101857
-0.111465
-0.119783
-0.12636
-0.130754
-0.132571
-0.131513
-0.127417
-0.120278
-0.110248
-0.097616
-0.0827655
-0.06613
-0.0481505
-0.029247
-0.00980743
)
;
    }
    defaultFaces
    {
        type            empty;
    }
}


// ************************************************************************* //
