/*--------------------------------*- C++ -*----------------------------------*\
| =========                 |                                                 |
| \\      /  F ield         | OpenFOAM: The Open Source CFD Toolbox           |
|  \\    /   O peration     | Version:  5.x                                   |
|   \\  /    A nd           | Web:      www.OpenFOAM.org                      |
|    \\/     M anipulation  |                                                 |
\*---------------------------------------------------------------------------*/
FoamFile
{
    version     2.0;
    format      ascii;
    class       volScalarField;
    location    "15";
    object      gradTy;
}
// * * * * * * * * * * * * * * * * * * * * * * * * * * * * * * * * * * * * * //

dimensions      [0 -1 0 1 0 0 0];

internalField   nonuniform List<scalar> 
2048
(
-26.4236
-26.396
-26.3416
-26.262
-26.1592
-26.0358
-25.8945
-25.7382
-25.5697
-25.3915
-25.206
-25.0153
-24.8215
-24.6261
-24.4308
-24.2367
-24.0451
-23.8568
-23.6726
-23.4931
-23.3187
-23.1497
-22.9865
-22.8293
-22.6782
-22.5336
-22.3958
-22.265
-22.1416
-22.0261
-21.9191
-21.8213
-21.7332
-21.6559
-21.5902
-21.5371
-21.4978
-21.4735
-21.4652
-21.4744
-21.5022
-21.55
-21.6188
-21.71
-21.8244
-21.9628
-22.1256
-22.3128
-22.5236
-22.7566
-23.0096
-23.2793
-23.5613
-23.8504
-24.1406
-24.4252
-24.6976
-24.9511
-25.1795
-25.3777
-25.5412
-25.6666
-25.7515
-25.7943
-26.4459
-26.4177
-26.3621
-26.2807
-26.1759
-26.0502
-25.9067
-25.7482
-25.5775
-25.3974
-25.2101
-25.0179
-24.8227
-24.6261
-24.4297
-24.2348
-24.0424
-23.8535
-23.6688
-23.4889
-23.3142
-23.1451
-22.9817
-22.8243
-22.673
-22.5282
-22.3901
-22.2589
-22.1352
-22.0193
-21.9118
-21.8133
-21.7246
-21.6465
-21.5799
-21.526
-21.4858
-21.4604
-21.4512
-21.4593
-21.4861
-21.5328
-21.6008
-21.6912
-21.805
-21.9431
-22.1059
-22.2936
-22.5056
-22.7405
-22.9961
-23.2693
-23.5555
-23.8495
-24.145
-24.4352
-24.7129
-24.9713
-25.2041
-25.4058
-25.572
-25.6994
-25.7855
-25.8289
-26.4886
-26.4591
-26.4011
-26.3164
-26.2076
-26.0776
-25.9296
-25.7668
-25.5922
-25.4084
-25.2178
-25.0227
-24.8249
-24.626
-24.4276
-24.231
-24.0372
-23.8471
-23.6616
-23.481
-23.3058
-23.1363
-22.9725
-22.8148
-22.6632
-22.5179
-22.3793
-22.2476
-22.1231
-22.0064
-21.8979
-21.7983
-21.7083
-21.6287
-21.5606
-21.505
-21.4629
-21.4357
-21.4245
-21.4307
-21.4556
-21.5004
-21.5666
-21.6554
-21.7681
-21.9055
-22.0683
-22.257
-22.471
-22.7094
-22.97
-23.2498
-23.5442
-23.8476
-24.1533
-24.4541
-24.7421
-25.01
-25.251
-25.4594
-25.6308
-25.7619
-25.8504
-25.8949
-26.5499
-26.5185
-26.4569
-26.3672
-26.2525
-26.1162
-25.9619
-25.7929
-25.6125
-25.4236
-25.2284
-25.0292
-24.8277
-24.6256
-24.4244
-24.2253
-24.0296
-23.8379
-23.6512
-23.4697
-23.2939
-23.1238
-22.9597
-22.8015
-22.6494
-22.5035
-22.3642
-22.2316
-22.1062
-21.9883
-21.8784
-21.7772
-21.6854
-21.6038
-21.5335
-21.4754
-21.4309
-21.401
-21.3871
-21.3905
-21.4125
-21.4546
-21.5183
-21.6048
-21.7156
-21.8519
-22.0146
-22.2043
-22.4211
-22.6643
-22.9319
-23.221
-23.5271
-23.8441
-24.1648
-24.481
-24.784
-25.0656
-25.3184
-25.5364
-25.715
-25.8512
-25.9428
-25.9889
-26.6283
-26.5944
-26.5279
-26.4316
-26.3092
-26.1646
-26.0019
-25.8251
-25.6375
-25.442
-25.2411
-25.0368
-24.8307
-24.6247
-24.4199
-24.2179
-24.0197
-23.8261
-23.6379
-23.4554
-23.2788
-23.1082
-22.9436
-22.7849
-22.6322
-22.4857
-22.3455
-22.2119
-22.0853
-21.9659
-21.8544
-21.7512
-21.6571
-21.5729
-21.4998
-21.4387
-21.3909
-21.3577
-21.3403
-21.3402
-21.3586
-21.3973
-21.4575
-21.541
-21.6493
-21.7839
-21.946
-22.1369
-22.3568
-22.6056
-22.8819
-23.1828
-23.5038
-23.8385
-24.1787
-24.515
-24.8376
-25.137
-25.4049
-25.6349
-25.8224
-25.9646
-26.06
-26.1078
-26.7229
-26.6857
-26.6131
-26.5084
-26.3762
-26.2212
-26.0484
-25.8621
-25.6659
-25.4628
-25.2552
-25.045
-24.8337
-24.623
-24.4142
-24.2086
-24.0075
-23.8117
-23.6218
-23.4382
-23.2609
-23.0898
-22.9247
-22.7655
-22.6122
-22.4649
-22.3238
-22.189
-22.061
-21.94
-21.8265
-21.721
-21.6242
-21.537
-21.4605
-21.3958
-21.3443
-21.3071
-21.2856
-21.2813
-21.2955
-21.3298
-21.386
-21.4657
-21.5707
-21.7029
-21.864
-22.0555
-22.2786
-22.5337
-22.8199
-23.1347
-23.4737
-23.8299
-24.1941
-24.5555
-24.9022
-25.2234
-25.5095
-25.7536
-25.9513
-26.1002
-26.1996
-26.2493
-26.833
-26.7917
-26.7114
-26.5964
-26.4523
-26.2849
-26.1001
-25.9027
-25.6967
-25.4852
-25.2702
-25.0534
-24.8363
-24.6203
-24.4069
-24.1974
-23.993
-23.7948
-23.6032
-23.4185
-23.2406
-23.069
-22.9036
-22.7439
-22.5899
-22.4417
-22.2996
-22.1636
-22.0341
-21.9113
-21.7956
-21.6875
-21.5876
-21.497
-21.4167
-21.3479
-21.292
-21.2503
-21.2242
-21.2151
-21.2244
-21.2539
-21.3051
-21.3802
-21.4811
-21.6101
-21.7694
-21.9611
-22.187
-22.4485
-22.7454
-23.076
-23.4358
-23.8175
-24.2105
-24.6019
-24.9776
-25.3245
-25.6317
-25.8916
-26.1003
-26.2561
-26.3594
-26.4108
-26.9583
-26.912
-26.8223
-26.6947
-26.5362
-26.3542
-26.1555
-25.9457
-25.729
-25.5082
-25.2853
-25.0616
-24.8383
-24.6166
-24.3981
-24.1841
-23.9762
-23.7754
-23.5821
-23.3964
-23.218
-23.0462
-22.8805
-22.7204
-22.5658
-22.4167
-22.2734
-22.1362
-22.0051
-21.8804
-21.7624
-21.6514
-21.5482
-21.4537
-21.3692
-21.2958
-21.2352
-21.1886
-21.1573
-21.1429
-21.1467
-21.1706
-21.2163
-21.286
-21.382
-21.5068
-21.6632
-21.8542
-22.0823
-22.3498
-22.658
-23.0057
-23.3891
-23.8002
-24.2269
-24.6538
-25.0637
-25.4404
-25.7713
-26.0484
-26.2682
-26.4307
-26.5373
-26.5901
-27.0986
-27.0461
-26.945
-26.8023
-26.6269
-26.428
-26.2135
-25.9899
-25.7616
-25.5312
-25.3001
-25.0693
-24.8394
-24.6117
-24.3876
-24.1688
-23.9571
-23.7534
-23.5585
-23.3721
-23.1935
-23.0218
-22.856
-22.6956
-22.5403
-22.3902
-22.2458
-22.1072
-21.9745
-21.848
-21.7275
-21.6135
-21.5067
-21.408
-21.3187
-21.2405
-21.1746
-21.1227
-21.0859
-21.0657
-21.0636
-21.0813
-21.1207
-21.1842
-21.2743
-21.394
-21.5465
-21.7355
-21.9647
-22.2376
-22.5569
-22.9228
-23.3322
-23.7768
-24.2426
-24.711
-25.1606
-25.5714
-25.9286
-26.2236
-26.4542
-26.6222
-26.7313
-26.7848
-27.2539
-27.1939
-27.0791
-26.9185
-26.7233
-26.5048
-26.2726
-26.0341
-25.7936
-25.5535
-25.3143
-25.0762
-24.8396
-24.6055
-24.3754
-24.1514
-23.9355
-23.729
-23.5325
-23.3456
-23.1672
-22.9959
-22.8304
-22.6697
-22.5137
-22.3626
-22.2169
-22.077
-21.9429
-21.8144
-21.6916
-21.5744
-21.4636
-21.3603
-21.2661
-21.1825
-21.1111
-21.0535
-21.0109
-20.9846
-20.9761
-20.9871
-21.0196
-21.0761
-21.1594
-21.2729
-21.4202
-21.6058
-21.8345
-22.1116
-22.4414
-22.8261
-23.2637
-23.7458
-24.2566
-24.7732
-25.2688
-25.7184
-26.104
-26.4171
-26.6573
-26.8293
-26.9393
-26.9928
-27.4246
-27.3556
-27.2243
-27.0423
-26.824
-26.5833
-26.3316
-26.0771
-25.8242
-25.5744
-25.3274
-25.0823
-24.8389
-24.598
-24.3615
-24.1317
-23.9113
-23.7019
-23.5041
-23.3172
-23.1396
-22.9691
-22.804
-22.6432
-22.4865
-22.3342
-22.1872
-22.046
-21.9105
-21.7803
-21.655
-21.5346
-21.4197
-21.3115
-21.2118
-21.1225
-21.0453
-20.9817
-20.9331
-20.9005
-20.8852
-20.8891
-20.914
-20.9628
-21.0384
-21.1445
-21.2852
-21.4657
-21.6922
-21.9716
-22.3106
-22.7141
-23.1817
-23.7057
-24.2679
-24.8405
-25.3894
-25.8826
-26.2985
-26.629
-26.8767
-27.0502
-27.1591
-27.2114
-27.6111
-27.5312
-27.3802
-27.173
-26.9279
-26.662
-26.389
-26.1177
-25.8524
-25.5935
-25.3393
-25.0875
-24.8374
-24.5895
-24.3459
-24.1098
-23.8845
-23.6721
-23.4732
-23.2869
-23.1106
-22.9417
-22.7774
-22.6166
-22.459
-22.3053
-22.1569
-22.0144
-21.8777
-21.7461
-21.6184
-21.4947
-21.3753
-21.2619
-21.1563
-21.061
-20.9778
-20.9081
-20.8532
-20.8141
-20.7919
-20.7881
-20.805
-20.8454
-20.9124
-21.01
-21.1426
-21.3163
-21.5383
-21.8176
-22.1639
-22.5853
-23.0844
-23.6544
-24.2752
-24.9128
-25.5234
-26.0656
-26.5134
-26.8597
-27.1117
-27.2832
-27.3885
-27.4382
-27.814
-27.7211
-27.5466
-27.3098
-27.0337
-26.7396
-26.4434
-26.1547
-25.8774
-25.6104
-25.3498
-25.0921
-24.8353
-24.58
-24.3286
-24.0855
-23.8549
-23.6395
-23.4399
-23.2547
-23.0808
-22.9139
-22.7509
-22.5901
-22.4314
-22.2761
-22.126
-21.9824
-21.8449
-21.712
-21.5823
-21.4551
-21.3311
-21.212
-21.1002
-20.9985
-20.909
-20.8331
-20.772
-20.7263
-20.6969
-20.6852
-20.6935
-20.7248
-20.7825
-20.8705
-20.9936
-21.1584
-21.3734
-21.6497
-22.0005
-22.4382
-22.9696
-23.5897
-24.277
-24.9902
-25.6726
-26.2698
-26.7501
-27.1093
-27.3612
-27.5266
-27.625
-27.6705
-28.0343
-27.9258
-27.7234
-27.4517
-27.1399
-26.8145
-26.4934
-26.1869
-25.8984
-25.6246
-25.3592
-25.0961
-24.8328
-24.5697
-24.3098
-24.0587
-23.8223
-23.6038
-23.4039
-23.2209
-23.0502
-22.8863
-22.7249
-22.5641
-22.4041
-22.2467
-22.0946
-21.95
-21.8121
-21.6786
-21.5469
-21.4164
-21.2875
-21.1622
-21.0436
-20.9352
-20.8393
-20.7572
-20.69
-20.6377
-20.601
-20.5811
-20.5804
-20.6021
-20.6497
-20.7272
-20.8394
-20.9933
-21.1984
-21.4681
-21.8196
-22.271
-22.8347
-23.509
-24.2715
-25.073
-25.8393
-26.4979
-27.0107
-27.3783
-27.6243
-27.7783
-27.8661
-27.9056
-28.2729
-28.1457
-27.9103
-27.5977
-27.2451
-26.885
-26.5374
-26.213
-25.9147
-25.6362
-25.3675
-25.1
-24.8304
-24.5592
-24.2895
-24.0293
-23.7866
-23.5649
-23.3652
-23.1853
-23.0191
-22.8593
-22.6999
-22.539
-22.3774
-22.2172
-22.0627
-21.9173
-21.7797
-21.6461
-21.5129
-21.3789
-21.2449
-21.1128
-20.9869
-20.8715
-20.7691
-20.6809
-20.6076
-20.549
-20.505
-20.4766
-20.4664
-20.478
-20.515
-20.5811
-20.681
-20.8221
-21.0144
-21.2733
-21.6209
-22.0823
-22.6773
-23.4091
-24.2562
-25.1613
-26.0265
-26.7536
-27.2973
-27.6669
-27.8996
-28.0361
-28.1093
-28.1407
-28.5312
-28.3815
-28.1074
-27.7468
-27.3475
-26.9495
-26.574
-26.2319
-25.9256
-25.6449
-25.3752
-25.1042
-24.8285
-24.5486
-24.2678
-23.997
-23.7474
-23.5226
-23.3234
-23.148
-22.988
-22.8333
-22.6763
-22.5152
-22.3515
-22.1876
-22.0301
-21.8842
-21.7478
-21.615
-21.4805
-21.343
-21.2036
-21.0641
-20.9302
-20.8076
-20.6985
-20.6043
-20.5254
-20.4607
-20.4095
-20.3723
-20.3522
-20.3533
-20.3793
-20.4334
-20.5199
-20.6463
-20.8227
-21.066
-21.4039
-21.8703
-22.4946
-23.2864
-24.2279
-25.2551
-26.238
-27.0413
-27.6124
-27.9753
-28.1856
-28.2977
-28.3518
-28.373
-28.8104
-28.6339
-28.3144
-27.8979
-27.4452
-27.0065
-26.6018
-26.2423
-25.9305
-25.6508
-25.3828
-25.1093
-24.8276
-24.5388
-24.245
-23.9617
-23.7047
-23.4765
-23.2784
-23.109
-22.957
-22.809
-22.6545
-22.4931
-22.3267
-22.1579
-21.9965
-21.8506
-21.7165
-21.5856
-21.4501
-21.3092
-21.1642
-21.0164
-20.8735
-20.7435
-20.6279
-20.5278
-20.4436
-20.3733
-20.3151
-20.2689
-20.2385
-20.2286
-20.2434
-20.2851
-20.3572
-20.4673
-20.6249
-20.8473
-21.1688
-21.6336
-22.2838
-23.1369
-24.1825
-25.3544
-26.4789
-27.3664
-27.9585
-28.3031
-28.4804
-28.5603
-28.5908
-28.5997
-29.1122
-28.9034
-28.5315
-28.0494
-27.5359
-27.0542
-26.6195
-26.2429
-25.9288
-25.6542
-25.3911
-25.1157
-24.828
-24.5303
-24.221
-23.9226
-23.6581
-23.4266
-23.2298
-23.0683
-22.9267
-22.787
-22.6351
-22.4728
-22.3036
-22.128
-21.9612
-21.816
-21.6859
-21.5584
-21.4221
-21.2777
-21.127
-20.9697
-20.8168
-20.6793
-20.5573
-20.4515
-20.3628
-20.2874
-20.2224
-20.167
-20.1256
-20.1045
-20.1081
-20.1373
-20.194
-20.2867
-20.423
-20.6185
-20.9156
-21.3706
-22.0421
-22.956
-24.1143
-25.4587
-26.7559
-27.7355
-28.3384
-28.6497
-28.7816
-28.8214
-28.8237
-28.8184
-29.4384
-29.1906
-28.7591
-28.2001
-27.6169
-27.0914
-26.6261
-26.2322
-25.9202
-25.6554
-25.4013
-25.1241
-24.8303
-24.5243
-24.1961
-23.8792
-23.6076
-23.3726
-23.1768
-23.0259
-22.8973
-22.7682
-22.6185
-22.4547
-22.2826
-22.0979
-21.9236
-21.7804
-21.6562
-21.534
-21.3968
-21.2486
-21.0926
-20.9243
-20.7598
-20.6152
-20.4869
-20.3754
-20.283
-20.2034
-20.132
-20.0669
-20.014
-19.9814
-19.9741
-19.991
-20.0314
-20.1061
-20.2191
-20.3814
-20.645
-21.08
-21.7674
-22.739
-24.0157
-25.5671
-27.0778
-28.1562
-28.7543
-29.0135
-29.0864
-29.0778
-29.0478
-29.0266
-29.7912
-29.4956
-28.9977
-28.3482
-27.685
-27.117
-26.6205
-26.2084
-25.9041
-25.6548
-25.4147
-25.1349
-24.8345
-24.5222
-24.1705
-23.8303
-23.5532
-23.3145
-23.1189
-22.9816
-22.8692
-22.7536
-22.6048
-22.4388
-22.2645
-22.0674
-21.8827
-21.7431
-21.6275
-21.5131
-21.3745
-21.2222
-21.0618
-20.8803
-20.702
-20.5512
-20.4168
-20.2994
-20.2046
-20.1217
-20.0445
-19.9692
-19.904
-19.8595
-19.842
-19.8472
-19.8703
-19.927
-20.016
-20.1379
-20.358
-20.7606
-21.4578
-22.4812
-23.8763
-25.6774
-27.4567
-28.6376
-29.2078
-29.3922
-29.3914
-29.3267
-29.2607
-29.2223
-30.1732
-29.8179
-29.2487
-28.492
-27.7359
-27.1307
-26.6025
-26.1695
-25.8804
-25.6527
-25.4336
-25.1483
-24.8403
-24.5261
-24.1442
-23.7741
-23.4954
-23.2524
-23.0547
-22.9355
-22.8429
-22.7446
-22.5944
-22.4248
-22.2507
-22.0364
-21.8367
-21.7039
-21.5999
-21.4968
-21.3551
-21.1981
-21.0355
-20.8376
-20.6426
-20.4875
-20.3472
-20.2235
-20.1278
-20.0426
-19.9606
-19.8741
-19.7957
-19.7388
-19.7121
-19.707
-19.7112
-19.7509
-19.8167
-19.8901
-20.0559
-20.4106
-21.1125
-22.1786
-23.6821
-25.7864
-27.909
-29.1899
-29.6998
-29.7825
-29.6927
-29.5649
-29.4602
-29.4036
-30.5874
-30.1556
-29.5146
-28.6294
-27.7638
-27.1332
-26.5721
-26.1126
-25.8493
-25.6496
-25.4606
-25.1642
-24.8468
-24.5391
-24.1174
-23.7078
-23.4352
-23.1867
-22.9826
-22.8877
-22.8185
-22.743
-22.5872
-22.4121
-22.2429
-22.0048
-21.7836
-21.6624
-21.5734
-21.4866
-21.3388
-21.1758
-21.0152
-20.7965
-20.5803
-20.4245
-20.2783
-20.1469
-20.0529
-19.9666
-19.881
-19.7822
-19.6891
-19.6192
-19.585
-19.5715
-19.5541
-19.5789
-19.6249
-19.6405
-19.7408
-20.0281
-20.732
-21.829
-23.414
-25.8882
-28.457
-29.8242
-30.2292
-30.1796
-29.9862
-29.7897
-29.6445
-29.5692
-31.038
-30.505
-29.7996
-28.7585
-27.761
-27.1268
-26.5303
-26.0334
-25.8115
-25.6453
-25.5
-25.1821
-24.8518
-24.5658
-24.0902
-23.6272
-23.3745
-23.1184
-22.8999
-22.8389
-22.796
-22.7517
-22.5827
-22.3992
-22.2441
-21.9725
-21.7202
-21.6188
-21.5478
-21.4844
-21.3251
-21.1543
-21.0031
-20.7569
-20.5132
-20.3631
-20.2106
-20.0691
-19.9803
-19.8938
-19.8064
-19.6935
-19.5843
-19.5004
-19.4609
-19.4425
-19.3986
-19.4116
-19.4453
-19.3909
-19.4158
-19.6099
-20.3184
-21.433
-23.046
-25.9739
-29.132
-30.552
-30.793
-30.5776
-30.2674
-29.9982
-29.8118
-29.7181
-31.5302
-30.8593
-30.1106
-28.8769
-27.7168
-27.1162
-26.4787
-25.9261
-25.7689
-25.6389
-25.5574
-25.2007
-24.8516
-24.613
-24.0628
-23.5261
-23.3169
-23.0486
-22.8028
-22.79
-22.7747
-22.7743
-22.5801
-22.3837
-22.2585
-21.9394
-21.6424
-21.5736
-21.5225
-21.4934
-21.3135
-21.1315
-21.0024
-20.7187
-20.4383
-20.3047
-20.1445
-19.9886
-19.9106
-19.8243
-19.7381
-19.6083
-19.4811
-19.3817
-19.3397
-19.3219
-19.2433
-19.2493
-19.2835
-19.1432
-19.0855
-19.1507
-19.876
-20.9966
-22.5432
-26.0296
-29.977
-31.3838
-31.3851
-30.9694
-30.5317
-30.188
-29.9612
-29.8497
-32.0715
-31.2066
-30.459
-28.9823
-27.6158
-27.1096
-26.4203
-25.7821
-25.7251
-25.6276
-25.6411
-25.2178
-24.8399
-24.6908
-24.0352
-23.3951
-23.2678
-22.9796
-22.6855
-22.7435
-22.7528
-22.8162
-22.5779
-22.3615
-22.2926
-21.9053
-21.5442
-21.5284
-21.4962
-21.5179
-21.3026
-21.1042
-21.0178
-20.6818
-20.3513
-20.2515
-20.0809
-19.9034
-19.8448
-19.7578
-19.6773
-19.5265
-19.3795
-19.2621
-19.2213
-19.213
-19.0859
-19.0912
-19.147
-18.8975
-18.7564
-18.6422
-19.411
-20.5338
-21.8589
-26.0347
-31.0517
-32.3275
-31.9955
-31.3466
-30.7746
-30.3573
-30.0919
-29.9638
-32.6723
-31.5279
-30.8621
-29.0727
-27.4368
-27.1207
-26.3594
-25.5886
-25.687
-25.6064
-25.763
-25.2298
-24.8068
-24.8137
-24.0073
-23.2207
-23.2362
-22.914
-22.5396
-22.7037
-22.7269
-22.8853
-22.5737
-22.3262
-22.3556
-21.8703
-21.4172
-21.4869
-21.466
-21.5641
-21.2906
-21.0674
-21.0566
-20.6461
-20.2461
-20.2075
-20.0207
-19.8106
-19.7845
-19.6936
-19.6259
-19.448
-19.2795
-19.1405
-19.105
-19.1202
-18.9227
-18.9352
-19.0457
-18.6523
-18.4388
-18.0711
-18.932
-20.0711
-20.931
-25.9593
-32.4383
-33.3851
-32.6101
-31.7001
-30.9921
-30.5045
-30.2037
-30.0606
-33.3475
-31.7937
-31.3459
-29.1455
-27.1499
-27.1701
-26.302
-25.3274
-25.6661
-25.5654
-25.94
-25.2317
-24.7377
-25.0024
-23.9788
-22.9836
-23.2355
-22.8559
-22.353
-22.678
-22.6904
-22.9925
-22.5642
-22.2681
-22.461
-21.834
-21.2499
-21.4552
-21.4268
-21.641
-21.2749
-21.0137
-21.1286
-20.611
-20.1137
-20.1783
-19.9651
-19.7057
-19.7326
-19.6303
-19.5864
-19.3721
-19.1813
-19.015
-18.9894
-19.0501
-18.7483
-18.7775
-18.993
-18.402
-18.1483
-17.417
-18.4492
-19.652
-19.6778
-25.7602
-34.2496
-34.5487
-33.2103
-32.0205
-31.1806
-30.6289
-30.2966
-30.1405
-34.1181
-31.9599
-31.9491
-29.1988
-26.7139
-27.2883
-26.2554
-24.9723
-25.681
-25.4884
-26.196
-25.2164
-24.6109
-25.2862
-23.9494
-22.657
-23.2853
-22.8103
-22.1083
-22.6784
-22.6325
-23.1537
-22.5446
-22.1735
-22.6273
-21.7958
-21.0268
-21.4436
-21.3703
-21.7611
-21.2516
-20.9324
-21.2481
-20.5759
-19.9422
-20.1727
-19.9158
-19.5825
-19.6932
-19.565
-19.5623
-19.2977
-19.0855
-18.8838
-18.8719
-19.012
-18.555
-18.6118
-19.0072
-18.1358
-17.9085
-16.65
-17.9734
-19.3445
-17.9933
-25.3772
-36.6389
-35.7944
-33.7729
-32.2989
-31.3377
-30.7301
-30.3713
-30.2043
-35.0135
-31.9619
-32.7267
-29.2302
-26.0726
-27.5187
-26.2291
-24.4867
-25.7611
-25.349
-26.5646
-25.1745
-24.396
-25.7049
-23.9179
-22.2039
-23.4137
-22.7833
-21.7811
-22.7239
-22.5359
-23.3907
-22.5084
-22.0225
-22.8806
-21.7547
-20.7267
-21.4686
-21.2826
-21.9422
-21.2156
-20.8081
-21.4348
-20.5394
-19.7149
-20.203
-19.8742
-19.4322
-19.6729
-19.4935
-19.5585
-19.2227
-18.9931
-18.7445
-18.7485
-19.0193
-18.3325
-18.4285
-19.1137
-17.8343
-17.7544
-15.7272
-17.5148
-19.2487
-15.7412
-24.7269
-39.8118
-37.0739
-34.2711
-32.5274
-31.462
-30.8086
-30.4285
-30.2529
-36.0746
-31.7087
-33.7559
-29.2374
-25.1507
-27.9222
-26.2344
-23.82
-25.9504
-25.107
-27.0917
-25.0934
-24.0506
-26.3129
-23.883
-21.5746
-23.6598
-22.7825
-21.338
-22.8431
-22.3741
-23.734
-22.4473
-21.7881
-23.2556
-21.7089
-20.3211
-21.5547
-21.1426
-22.2086
-21.16
-20.6201
-21.7154
-20.4999
-19.4095
-20.2867
-19.8422
-19.2427
-19.6817
-19.4088
-19.5817
-19.144
-18.906
-18.5943
-18.6128
-19.0905
-18.0672
-18.214
-19.3472
-17.466
-17.7371
-14.5889
-17.0797
-19.5071
-12.7487
-23.6964
-44.0419
-38.3042
-34.6767
-32.7004
-31.5529
-30.8651
-30.4695
-30.2876
-37.3573
-31.0741
-35.1425
-29.2177
-23.8483
-28.5812
-26.2839
-22.9039
-26.3132
-24.7027
-27.84
-24.9574
-23.5178
-27.1821
-23.8422
-20.7033
-24.0767
-22.8167
-20.7335
-23.078
-22.1077
-24.2247
-22.3505
-21.4335
-23.7989
-21.6554
-19.7726
-21.7382
-20.9188
-22.5933
-21.0759
-20.3401
-22.1254
-20.4544
-18.9969
-20.4479
-19.8211
-18.9979
-19.7336
-19.3005
-19.6414
-19.0565
-18.8274
-18.4305
-18.4549
-19.2505
-17.7418
-17.9484
-19.7553
-16.9823
-17.9298
-13.1544
-16.6678
-20.316
-8.79981
-22.1347
-49.6878
-39.354
-34.9632
-32.8146
-31.6116
-30.9012
-30.4954
-30.3095
-38.9367
-29.8874
-37.0289
-29.1676
-22.036
-29.6052
-26.392
-21.6468
-26.941
-24.0502
-28.893
-24.7462
-22.7222
-28.4062
-23.792
-19.5045
-24.7347
-22.8952
-19.9064
-23.4874
-21.6795
-24.9168
-22.2042
-20.9109
-24.5722
-21.5898
-19.031
-22.068
-20.5637
-23.1386
-20.9509
-19.931
-22.7115
-20.399
-18.4388
-20.718
-19.8117
-18.6763
-19.8487
-19.1537
-19.7504
-18.9528
-18.7611
-18.2498
-18.2606
-19.5328
-17.3343
-17.6049
-20.4022
-16.3114
-18.4341
-11.3173
-16.2665
-21.9386
-3.62763
-19.844
-57.2131
-40.0276
-35.111
-32.8704
-31.6397
-30.9184
-30.5077
-30.3199
)
;

boundaryField
{
    left
    {
        type            calculated;
        value           nonuniform List<scalar> 
32
(
-26.4236
-26.4459
-26.4886
-26.5499
-26.6283
-26.7229
-26.833
-26.9583
-27.0986
-27.2539
-27.4246
-27.6111
-27.814
-28.0343
-28.2729
-28.5312
-28.8104
-29.1122
-29.4384
-29.7912
-30.1732
-30.5874
-31.038
-31.5302
-32.0715
-32.6723
-33.3475
-34.1181
-35.0135
-36.0746
-37.3573
-38.9367
)
;
    }
    right
    {
        type            calculated;
        value           nonuniform List<scalar> 
32
(
-25.7943
-25.8289
-25.8949
-25.9889
-26.1078
-26.2493
-26.4108
-26.5901
-26.7848
-26.9928
-27.2114
-27.4382
-27.6705
-27.9056
-28.1407
-28.373
-28.5997
-28.8184
-29.0266
-29.2223
-29.4036
-29.5692
-29.7181
-29.8497
-29.9638
-30.0606
-30.1405
-30.2043
-30.2529
-30.2876
-30.3095
-30.3199
)
;
    }
    interface
    {
        type            calculated;
        value           nonuniform List<scalar> 
64
(
-39.8112
-29.1316
-38.1173
-29.1344
-20.984
-30.224
-26.4624
-20.9199
-27.3343
-23.6492
-29.5075
-24.6191
-22.2481
-29.1203
-23.7639
-18.8112
-25.1339
-22.9467
-19.4284
-23.7442
-21.4164
-25.3209
-22.1167
-20.6009
-25.0252
-21.5533
-18.6046
-22.2764
-20.3462
-23.4573
-20.8764
-19.6889
-23.0551
-20.3682
-18.1179
-20.8847
-19.8099
-18.4933
-19.925
-19.0685
-19.8192
-18.8958
-18.7316
-18.1547
-18.1521
-19.7092
-17.1071
-17.4097
-20.7945
-15.9185
-18.7789
-10.283
-16.066
-22.9908
-0.698977
-18.4882
-61.5109
-40.2413
-35.1484
-32.884
-31.6465
-30.9225
-30.5107
-30.3223
)
;
    }
    bottom
    {
        type            calculated;
        value           nonuniform List<scalar> 
64
(
-26.4178
-26.3904
-26.3363
-26.2571
-26.1548
-26.032
-25.8913
-25.7356
-25.5676
-25.3899
-25.2049
-25.0146
-24.8212
-24.6261
-24.431
-24.2372
-24.0458
-23.8577
-23.6736
-23.4941
-23.3198
-23.1509
-22.9878
-22.8306
-22.6796
-22.5351
-22.3973
-22.2665
-22.1433
-22.0279
-21.9211
-21.8233
-21.7355
-21.6584
-21.5929
-21.54
-21.501
-21.4769
-21.4689
-21.4783
-21.5064
-21.5544
-21.6235
-21.7149
-21.8295
-21.968
-22.1307
-22.3177
-22.5282
-22.7608
-23.0131
-23.2818
-23.5627
-23.8506
-24.1394
-24.4226
-24.6936
-24.9458
-25.1732
-25.3704
-25.5332
-25.6581
-25.7426
-25.7853
)
;
    }
    defaultFaces
    {
        type            empty;
    }
}


// ************************************************************************* //
