/*--------------------------------*- C++ -*----------------------------------*\
| =========                 |                                                 |
| \\      /  F ield         | OpenFOAM: The Open Source CFD Toolbox           |
|  \\    /   O peration     | Version:  5.x                                   |
|   \\  /    A nd           | Web:      www.OpenFOAM.org                      |
|    \\/     M anipulation  |                                                 |
\*---------------------------------------------------------------------------*/
FoamFile
{
    version     2.0;
    format      ascii;
    class       volScalarField;
    location    "15";
    object      T;
}
// * * * * * * * * * * * * * * * * * * * * * * * * * * * * * * * * * * * * * //

dimensions      [0 0 0 1 0 0 0];

internalField   nonuniform List<scalar> 
2048
(
9.81021
9.8104
9.81079
9.81136
9.8121
9.81298
9.81399
9.81511
9.81632
9.81759
9.81892
9.82029
9.82168
9.82308
9.82448
9.82587
9.82725
9.8286
9.82992
9.83121
9.83246
9.83368
9.83485
9.83598
9.83706
9.8381
9.83909
9.84003
9.84092
9.84175
9.84251
9.84322
9.84385
9.8444
9.84487
9.84525
9.84553
9.8457
9.84576
9.84569
9.84549
9.84515
9.84465
9.84399
9.84317
9.84218
9.84101
9.83966
9.83815
9.83648
9.83467
9.83274
9.83072
9.82865
9.82658
9.82454
9.82259
9.82078
9.81915
9.81773
9.81656
9.81567
9.81506
9.81475
9.43876
9.43935
9.4405
9.4422
9.44439
9.44701
9.45001
9.45334
9.45692
9.46071
9.46465
9.4687
9.47282
9.47698
9.48113
9.48525
9.48932
9.49332
9.49723
9.50105
9.50475
9.50834
9.51181
9.51515
9.51835
9.52143
9.52436
9.52713
9.52976
9.53221
9.53448
9.53656
9.53843
9.54008
9.54147
9.5426
9.54344
9.54396
9.54413
9.54394
9.54335
9.54234
9.54088
9.53894
9.53651
9.53358
9.53012
9.52614
9.52166
9.51671
9.51133
9.5056
9.4996
9.49345
9.48728
9.48122
9.47543
9.47004
9.46518
9.46096
9.45749
9.45482
9.45301
9.4521
9.08311
9.08409
9.086
9.08881
9.09242
9.09676
9.10172
9.10719
9.11309
9.11932
9.1258
9.13245
9.1392
9.14601
9.15281
9.15956
9.16623
9.17277
9.17917
9.1854
9.19146
9.19732
9.20299
9.20845
9.21369
9.21871
9.2235
9.22804
9.23233
9.23634
9.24007
9.24348
9.24655
9.24925
9.25155
9.25341
9.2548
9.25567
9.25598
9.25568
9.25475
9.25311
9.25075
9.24761
9.24366
9.23886
9.23322
9.22671
9.21937
9.21125
9.20241
9.19297
9.18308
9.17293
9.16273
9.15272
9.14314
9.13423
9.1262
9.11924
9.1135
9.1091
9.10613
9.10463
8.74235
8.74371
8.74639
8.75031
8.75536
8.7614
8.76829
8.77589
8.78407
8.79269
8.80164
8.81082
8.82014
8.82952
8.83888
8.84818
8.85734
8.86634
8.87513
8.88369
8.892
8.90005
8.90782
8.91531
8.9225
8.92939
8.93596
8.94221
8.9481
8.95362
8.95875
8.96344
8.96768
8.97142
8.9746
8.97719
8.97913
8.98037
8.98084
8.98048
8.97924
8.97705
8.97384
8.96957
8.96418
8.95763
8.94989
8.94096
8.93085
8.91963
8.9074
8.89432
8.88058
8.86646
8.85225
8.83829
8.82493
8.8125
8.80131
8.79161
8.78363
8.77752
8.77339
8.77131
8.41562
8.41738
8.42085
8.42591
8.4324
8.44016
8.449
8.45872
8.46915
8.48013
8.49151
8.50317
8.51499
8.52688
8.53874
8.55049
8.56208
8.57344
8.58453
8.59533
8.60581
8.61595
8.62574
8.63517
8.64424
8.65292
8.66122
8.66909
8.67653
8.68351
8.69
8.69595
8.70133
8.70608
8.71015
8.71347
8.71597
8.7176
8.71826
8.71788
8.71638
8.71369
8.70973
8.70441
8.69767
8.68945
8.67971
8.66844
8.65565
8.64141
8.62584
8.60914
8.59156
8.57345
8.55519
8.53724
8.52004
8.50406
8.48967
8.47723
8.46701
8.45919
8.45391
8.45125
8.10217
8.10434
8.10862
8.11485
8.12284
8.13236
8.14316
8.15501
8.16769
8.18101
8.19479
8.20888
8.22315
8.23749
8.25177
8.26592
8.27985
8.2935
8.30682
8.31977
8.33232
8.34447
8.3562
8.3675
8.37837
8.38878
8.39872
8.40818
8.41711
8.4255
8.43331
8.44049
8.44699
8.45275
8.45769
8.46175
8.46484
8.46687
8.46776
8.4674
8.46571
8.46259
8.45794
8.45166
8.44367
8.43388
8.42224
8.40872
8.39332
8.37613
8.35726
8.33694
8.31549
8.29333
8.27095
8.24891
8.2278
8.20817
8.19054
8.17532
8.16283
8.15331
8.14688
8.14365
7.80127
7.80388
7.80902
7.81648
7.82601
7.83733
7.85014
7.86414
7.87908
7.89473
7.91088
7.92737
7.94405
7.96077
7.97743
7.99391
8.01012
8.02599
8.04145
8.05646
8.07101
8.08509
8.09868
8.11177
8.12436
8.13643
8.14797
8.15894
8.16933
8.17909
8.18818
8.19656
8.20416
8.21092
8.21674
8.22155
8.22524
8.22772
8.22887
8.22859
8.22677
8.22328
8.21803
8.21088
8.20172
8.19046
8.17702
8.16134
8.14343
8.12332
8.10118
8.07724
8.05188
8.02558
7.99895
7.9727
7.94754
7.92417
7.90322
7.88517
7.8704
7.85916
7.8516
7.8478
7.51226
7.51535
7.52139
7.53015
7.5413
7.55449
7.56936
7.58554
7.60275
7.62072
7.63922
7.65808
7.67712
7.6962
7.71518
7.73393
7.75236
7.77036
7.78789
7.8049
7.82137
7.83729
7.85265
7.86747
7.88172
7.89539
7.90845
7.9209
7.93268
7.94377
7.95412
7.96368
7.97237
7.98012
7.98683
7.9924
7.99671
7.99966
8.00112
8.00097
7.99907
7.9953
7.98952
7.98159
7.97138
7.95875
7.94361
7.92587
7.90551
7.88257
7.85717
7.82959
7.80024
7.76969
7.73868
7.70804
7.67868
7.65143
7.62705
7.60612
7.58905
7.5761
7.5674
7.56305
7.23453
7.23812
7.24514
7.25528
7.26814
7.28329
7.30027
7.31868
7.33817
7.35845
7.37929
7.40048
7.42185
7.44324
7.46449
7.48547
7.50605
7.52613
7.54566
7.56458
7.58288
7.60056
7.61764
7.6341
7.64994
7.66514
7.67969
7.69355
7.70669
7.71907
7.73065
7.74136
7.75113
7.75987
7.76747
7.77382
7.77878
7.78224
7.78405
7.78407
7.78216
7.77818
7.77196
7.76334
7.75217
7.73828
7.72155
7.70186
7.67915
7.65342
7.6248
7.59356
7.56014
7.5252
7.48962
7.4544
7.42063
7.38935
7.36144
7.33758
7.31819
7.30353
7.29373
7.28882
6.9675
6.97164
6.97971
6.99133
7.00601
7.02319
7.04236
7.06304
7.08484
7.10743
7.13058
7.15408
7.17774
7.2014
7.22488
7.24803
7.27071
7.29281
7.31426
7.33501
7.35507
7.37444
7.39314
7.41118
7.42855
7.44524
7.46121
7.47644
7.49089
7.50452
7.5173
7.52914
7.53998
7.54972
7.55822
7.56536
7.571
7.57499
7.57719
7.57744
7.57558
7.57146
7.56488
7.55567
7.54364
7.52861
7.5104
7.48887
7.4639
7.43547
7.40366
7.36872
7.33115
7.29167
7.2513
7.21126
7.17286
7.13737
7.10582
7.07896
7.05725
7.04092
7.03004
7.0246
6.71061
6.71535
6.72457
6.7378
6.75441
6.77375
6.79518
6.81818
6.84229
6.86719
6.89262
6.91839
6.94431
6.9702
6.99587
7.02115
7.04588
7.06994
7.09324
7.11575
7.13748
7.15846
7.17871
7.19826
7.2171
7.23522
7.25256
7.26911
7.28483
7.29968
7.31362
7.32658
7.33848
7.34921
7.35862
7.36657
7.37291
7.37747
7.38009
7.38062
7.37888
7.37468
7.36783
7.35813
7.34535
7.32929
7.30972
7.28646
7.25935
7.2283
7.19334
7.1547
7.11287
7.06868
7.02328
6.97814
6.93486
6.89495
6.85963
6.82975
6.80574
6.78778
6.77586
6.76993
6.46335
6.46876
6.47924
6.4942
6.51289
6.5345
6.55829
6.58364
6.61009
6.63727
6.66496
6.69296
6.7211
6.74918
6.77701
6.80438
6.83111
6.85706
6.88215
6.90634
6.92966
6.95217
6.9739
6.9949
7.01515
7.03463
7.05331
7.07114
7.08808
7.1041
7.11918
7.13324
7.14619
7.15791
7.16824
7.17702
7.18408
7.18924
7.19233
7.19318
7.1916
7.1874
7.18037
7.17026
7.15684
7.13986
7.11906
7.09421
7.06507
7.03151
6.99346
6.95112
6.90495
6.85585
6.80515
6.7546
6.70612
6.66157
6.62238
6.58945
6.56319
6.54367
6.53078
6.52438
6.22524
6.23138
6.24325
6.26011
6.28103
6.30504
6.33127
6.35903
6.3878
6.41725
6.44716
6.47735
6.50766
6.5379
6.56786
6.59729
6.62598
6.65377
6.68056
6.70635
6.73118
6.75513
6.77828
6.80065
6.82226
6.84308
6.86303
6.88209
6.90021
6.91737
6.93355
6.94869
6.96269
6.97541
6.98667
6.9963
7.0041
7.00988
7.01347
7.01468
7.01333
7.0092
7.00205
6.99164
6.97768
6.9599
6.938
6.91168
6.88067
6.8447
6.80366
6.75762
6.70702
6.65282
6.59652
6.54019
6.48618
6.43674
6.39356
6.3576
6.32916
6.30818
6.29441
6.2876
5.9958
6.00276
6.01617
6.03511
6.05843
6.08498
6.11375
6.14395
6.17505
6.20673
6.23879
6.27113
6.30358
6.33595
6.36801
6.39947
6.43007
6.45964
6.48808
6.51539
6.54164
6.56695
6.59142
6.61512
6.63804
6.66014
6.68134
6.70157
6.72083
6.73909
6.75634
6.77254
6.78757
6.8013
6.81351
6.824
6.83256
6.83899
6.84311
6.84472
6.84364
6.83964
6.83246
6.82183
6.80743
6.78897
6.7661
6.73847
6.70572
6.66751
6.62357
6.57387
6.51877
6.45926
6.39702
6.33449
6.27456
6.21998
6.17272
6.13375
6.10326
6.08095
6.06641
6.05925
5.77459
5.78248
5.7976
5.81882
5.84474
5.87397
5.90537
5.93805
5.97146
6.00531
6.03948
6.0739
6.10844
6.14292
6.17705
6.21051
6.243
6.2743
6.30431
6.33304
6.36062
6.3872
6.41294
6.4379
6.46209
6.48543
6.50783
6.52921
6.54955
6.56886
6.58715
6.60439
6.62046
6.63519
6.64836
6.65973
6.66907
6.67617
6.68084
6.68289
6.68213
6.67831
6.67118
6.66041
6.64569
6.62666
6.60295
6.57416
6.53984
6.49955
6.45285
6.39955
6.3399
6.27487
6.20633
6.13712
6.07081
6.0108
5.95938
5.91751
5.88512
5.86166
5.84647
5.83903
5.5612
5.57012
5.58714
5.61088
5.63961
5.67169
5.70579
5.74098
5.77667
5.81262
5.84882
5.88526
5.92186
5.9584
5.9946
6.03006
6.06439
6.09737
6.12888
6.15895
6.18775
6.21552
6.24245
6.26862
6.29403
6.31858
6.34216
6.36463
6.386
6.40631
6.42562
6.44387
6.46097
6.47672
6.49087
6.50313
6.51326
6.52105
6.52629
6.52881
6.5284
6.52483
6.51781
6.50699
6.49203
6.47255
6.44814
6.41834
6.38263
6.34044
6.29116
6.23436
6.17012
6.09937
6.02413
5.9477
5.87449
5.80874
5.75312
5.70848
5.6744
5.65
5.63433
5.62668
5.35521
5.36529
5.38443
5.41094
5.44273
5.4778
5.51471
5.55242
5.59034
5.62831
5.66644
5.70485
5.74344
5.78203
5.82029
5.85773
5.89389
5.92849
5.96143
5.99274
6.02267
6.05153
6.07958
6.10691
6.1335
6.15925
6.18397
6.20749
6.22983
6.25109
6.27137
6.29063
6.30874
6.32552
6.34066
6.35383
6.36477
6.37326
6.37909
6.38209
6.38208
6.37881
6.37197
6.36118
6.34607
6.32625
6.30127
6.27062
6.2337
6.18982
6.13816
6.07801
6.00918
5.93252
5.85015
5.76587
5.68513
5.61332
5.55351
5.5063
5.47081
5.4457
5.42972
5.42196
5.15623
5.16763
5.18913
5.21872
5.2538
5.29204
5.33183
5.37207
5.41214
5.45203
5.49199
5.53228
5.57284
5.61344
5.65376
5.6932
5.73115
5.76733
5.80163
5.83408
5.86502
5.89487
5.92397
5.95241
5.98016
6.00709
6.03293
6.05745
6.08071
6.10286
6.12407
6.14431
6.16344
6.18127
6.19742
6.21151
6.22327
6.23246
6.23888
6.24239
6.2428
6.23988
6.23328
6.2226
6.20743
6.18736
6.16194
6.13059
6.09266
6.04734
5.99353
5.9302
5.85683
5.77409
5.68416
5.59129
5.50229
5.42408
5.36014
5.31065
5.27408
5.24854
5.23244
5.22466
4.9639
4.97678
5.00091
5.0339
5.07257
5.11412
5.15687
5.19964
5.24177
5.28344
5.32511
5.36722
5.40968
5.45227
5.49468
5.53613
5.57585
5.61356
5.64915
5.68263
5.71446
5.7452
5.77529
5.8048
5.83367
5.86178
5.88873
5.91421
5.9383
5.96128
5.98339
6.00458
6.02473
6.04362
6.06081
6.07583
6.08841
6.09832
6.10534
6.10935
6.11021
6.10769
6.1014
6.0909
6.07574
6.05552
6.02977
5.99787
5.95912
5.91261
5.85695
5.79068
5.71283
5.62389
5.52597
5.42364
5.32549
5.24053
5.17262
5.12121
5.08395
5.0583
5.04228
5.03458
4.77785
4.79242
4.81946
4.85622
4.8988
4.94378
4.98955
5.03485
5.07893
5.12222
5.16546
5.20931
5.25364
5.29817
5.34272
5.38622
5.42766
5.46687
5.50368
5.53807
5.57067
5.60218
5.63321
5.66375
5.69371
5.72301
5.75109
5.77746
5.80231
5.82603
5.84901
5.87115
5.89229
5.91228
5.93054
5.94649
5.95989
5.97052
5.97813
5.98266
5.98399
5.9819
5.97598
5.96572
5.95064
5.93035
5.90441
5.87209
5.83271
5.7853
5.7281
5.65917
5.57696
5.48174
5.37542
5.26264
5.15425
5.06219
4.99057
4.93773
4.90021
4.87478
4.85906
4.85155
4.59773
4.61424
4.64448
4.68544
4.73225
4.78078
4.82962
4.87746
4.92333
4.96807
5.01269
5.05824
5.10439
5.15082
5.19755
5.24318
5.2863
5.32695
5.36494
5.40011
5.43333
5.46549
5.49741
5.52896
5.55997
5.5905
5.61973
5.64692
5.67243
5.69682
5.72063
5.7437
5.76581
5.78694
5.80632
5.82319
5.83742
5.84877
5.85696
5.86199
5.86379
5.86219
5.85671
5.84675
5.8318
5.81152
5.78549
5.75289
5.71304
5.66503
5.60665
5.53543
5.44901
5.34749
5.23244
5.10801
4.98803
4.88856
4.81364
4.75995
4.72268
4.69782
4.68261
4.67538
4.4232
4.44194
4.47567
4.52131
4.57276
4.62485
4.67683
4.72721
4.7747
4.82067
4.86648
4.91369
4.96163
5.00986
5.05889
5.10674
5.15146
5.19352
5.23265
5.26845
5.30214
5.33481
5.3676
5.40014
5.43214
5.46396
5.49439
5.52232
5.54839
5.57333
5.59797
5.62195
5.645
5.66732
5.68787
5.70564
5.7207
5.73278
5.74151
5.74704
5.74933
5.74826
5.74326
5.73367
5.7189
5.69867
5.67268
5.63989
5.59973
5.55145
5.49229
5.41919
5.32873
5.22098
5.097
4.95952
4.82624
4.71913
4.6415
4.58768
4.5512
4.52726
4.51277
4.50592
4.25394
4.27529
4.31274
4.36362
4.42016
4.47577
4.53091
4.58391
4.63275
4.67973
4.72649
4.77536
4.82508
4.87497
4.92644
4.97667
5.02285
5.0663
5.10658
5.14282
5.17682
5.20983
5.2435
5.27702
5.30993
5.34313
5.37485
5.4034
5.42992
5.45528
5.48075
5.50565
5.52957
5.55315
5.57496
5.59358
5.60946
5.62228
5.63153
5.63753
5.6403
5.63981
5.63536
5.62619
5.61163
5.59149
5.56566
5.53278
5.49241
5.44421
5.3847
5.31023
5.2159
5.10206
4.9692
4.817
4.66821
4.55339
4.47389
4.42075
4.38564
4.36297
4.34939
4.34301
4.08962
4.11407
4.15537
4.21218
4.27434
4.33325
4.39163
4.44736
4.49723
4.54499
4.59237
4.64299
4.69449
4.74579
4.79993
4.85275
4.90019
4.945
4.98648
5.02294
5.05709
5.09024
5.12485
5.15936
5.19303
5.22776
5.2609
5.28992
5.31676
5.34238
5.36873
5.39455
5.41923
5.44418
5.46736
5.48674
5.50343
5.51703
5.52673
5.53318
5.53641
5.53655
5.53273
5.52404
5.50969
5.48966
5.46413
5.43121
5.39069
5.34297
5.28354
5.20834
5.11027
4.99054
4.84922
4.68033
4.51317
4.39081
4.31056
4.25903
4.22587
4.20482
4.19232
4.18648
3.92989
3.95812
4.00325
4.0668
4.13524
4.19702
4.25872
4.31739
4.36786
4.41618
4.46378
4.51632
4.56962
4.62197
4.67909
4.73482
4.78316
4.82936
4.87216
4.90855
4.94271
4.97573
5.01139
5.04693
5.08113
5.11761
5.15236
5.18163
5.20868
5.23434
5.26166
5.28843
5.31368
5.34017
5.36486
5.38486
5.40238
5.4168
5.42685
5.43374
5.43739
5.43824
5.4351
5.42695
5.41281
5.39286
5.36783
5.33488
5.29417
5.2474
5.18847
5.11332
5.01154
4.88618
4.7374
4.54944
4.36017
4.23088
4.15134
4.10244
4.07182
4.05268
4.04142
4.03618
3.77442
3.80735
3.85601
3.9273
4.00286
4.06677
4.13192
4.1939
4.24435
4.29307
4.34034
4.39511
4.45031
4.5031
4.56366
4.62276
4.67146
4.71911
4.76347
4.79937
4.83343
4.86597
4.90291
4.93954
4.9739
5.01243
5.04911
5.07829
5.10545
5.13087
5.15933
5.1871
5.21263
5.24088
5.2673
5.28767
5.30604
5.32138
5.33165
5.33896
5.34298
5.3446
5.34222
5.33468
5.32074
5.30079
5.2765
5.24353
5.20246
5.15719
5.09913
5.02503
4.9194
4.78864
4.63426
4.4244
4.20807
4.07314
3.99612
3.95094
3.92339
3.90643
3.89653
3.89195
3.62284
3.66179
3.7132
3.79352
3.87731
3.94209
4.01094
4.07683
4.1264
4.17548
4.22162
4.27916
4.33644
4.38874
4.45341
4.51653
4.56474
4.61396
4.66028
4.69513
4.72907
4.76062
4.7992
4.83706
4.87099
4.91202
4.95103
4.97965
5.00689
5.03165
5.06153
5.09039
5.11575
5.14609
5.17453
5.1949
5.21418
5.23057
5.24087
5.24861
5.25291
5.25542
5.25386
5.24701
5.23322
5.21312
5.18994
5.15688
5.11513
5.07205
5.01512
4.94339
4.83352
4.69746
4.54054
4.30541
4.05542
3.91718
3.84487
3.8045
3.78051
3.76595
3.75752
3.75362
3.47473
3.52158
3.57429
3.66532
3.75878
3.82254
3.89549
3.96621
4.01364
4.06326
4.10718
4.1683
4.22794
4.27838
4.34812
4.41614
4.4626
4.51365
4.56252
4.59552
4.62947
4.6593
4.70008
4.73937
4.77201
4.81616
4.85808
4.88543
4.91284
4.93635
4.96809
4.9982
5.02271
5.05561
5.08648
5.10628
5.12657
5.14423
5.15427
5.1625
5.16692
5.17046
5.16979
5.16374
5.15003
5.12954
5.10796
5.07472
5.03173
4.99175
4.93597
4.8684
4.75352
4.61195
4.45723
4.19282
3.90041
3.76271
3.69765
3.66314
3.64313
3.63112
3.62421
3.62103
3.32964
3.38708
3.43863
3.54254
3.64763
3.70754
3.78525
3.86214
3.90565
3.95638
3.99648
4.0624
4.12487
4.17141
4.24755
4.32174
4.36459
4.41789
4.47021
4.50019
4.53452
4.56161
4.60541
4.64645
4.67651
4.72467
4.77026
4.79533
4.82319
4.84461
4.87885
4.91045
4.93312
4.96923
5.0031
5.0215
5.04298
5.06223
5.07159
5.08043
5.08475
5.08953
5.0898
5.08468
5.07099
5.0497
5.03042
4.99688
4.95175
4.91613
4.86116
4.80019
4.67898
4.53116
4.38568
4.08722
3.74074
3.60962
3.55462
3.52689
3.51116
3.50181
3.49646
3.494
3.18702
3.25885
3.30537
3.42505
3.5444
3.59637
3.67988
3.76488
3.8019
3.85488
3.88887
3.96136
4.02738
4.06713
4.15151
4.23358
4.27016
4.32637
4.38345
4.40874
4.44421
4.46706
4.51506
4.55833
4.58397
4.63734
4.68767
4.70897
4.73789
4.75601
4.79369
4.82715
4.84654
4.88677
4.9244
4.94022
4.9632
4.98449
4.99256
5.00226
5.00615
5.01245
5.01366
5.00965
4.99591
4.97321
4.95724
4.92322
4.87463
4.84512
4.79002
4.73903
4.60951
4.45374
4.32761
3.98949
3.57349
3.45808
3.41599
3.39579
3.38452
3.37788
3.3741
3.37236
3.04619
3.1378
3.1734
3.31272
3.44984
3.48811
3.57904
3.67484
3.70169
3.759
3.78358
3.86515
3.93579
3.96465
4.05982
4.15209
4.17865
4.23881
4.30244
4.32065
4.35863
4.37509
4.42896
4.47516
4.49376
4.55402
4.61049
4.62591
4.65699
4.67007
4.71252
4.74835
4.76246
4.80809
4.8505
4.86205
4.88701
4.91096
4.91689
4.92786
4.93084
4.93905
4.94118
4.93851
4.92467
4.89965
4.88838
4.85369
4.79971
4.7788
4.72175
4.6854
4.54469
4.37787
4.28518
3.90085
3.39498
3.30864
3.28208
3.26986
3.26314
3.2592
3.25696
3.25593
2.90633
3.02521
3.04135
3.20543
3.36501
3.38161
3.48233
3.59263
3.60415
3.66916
3.67968
3.77376
3.85056
3.8629
3.97229
4.07788
4.08923
4.15488
4.22754
4.2353
4.27801
4.28502
4.34705
4.39719
4.40513
4.47456
4.539
4.54559
4.58063
4.58622
4.63527
4.67423
4.68028
4.73302
4.78157
4.78654
4.81421
4.84166
4.84424
4.85717
4.85852
4.8692
4.87214
4.8711
4.85718
4.82853
4.82386
4.78829
4.72618
4.71743
4.65528
4.64002
4.48419
4.30112
4.26109
3.82296
3.20055
3.16235
3.15321
3.14914
3.14692
3.14562
3.14488
3.14454
)
;

boundaryField
{
    left
    {
        type            zeroGradient;
    }
    right
    {
        type            zeroGradient;
    }
    interface
    {
        type            fixedValue;
        value           nonuniform List<scalar> 
64
(
2.83483
2.97289
2.97289
3.15311
3.32733
3.32733
3.43481
3.55507
3.55507
3.6267
3.6267
3.72954
3.81058
3.81058
3.92961
4.04411
4.04411
4.1137
4.19272
4.19272
4.23961
4.23961
4.3073
4.36011
4.36011
4.43586
4.50571
4.50571
4.54421
4.54421
4.59779
4.63885
4.63885
4.69644
4.74907
4.74907
4.77866
4.80844
4.80844
4.82292
4.82292
4.83528
4.83853
4.83853
4.82459
4.79312
4.79312
4.75702
4.68886
4.68886
4.62157
4.62157
4.45534
4.25983
4.25983
3.78976
3.09008
3.09008
3.09008
3.09008
3.09008
3.09008
3.09008
3.09008
)
;
    }
    bottom
    {
        type            fixedValue;
        value           uniform 10;
    }
    defaultFaces
    {
        type            empty;
    }
}


// ************************************************************************* //
