/*--------------------------------*- C++ -*----------------------------------*\
| =========                 |                                                 |
| \\      /  F ield         | OpenFOAM: The Open Source CFD Toolbox           |
|  \\    /   O peration     | Version:  5.x                                   |
|   \\  /    A nd           | Web:      www.OpenFOAM.org                      |
|    \\/     M anipulation  |                                                 |
\*---------------------------------------------------------------------------*/
FoamFile
{
    version     2.0;
    format      ascii;
    class       volScalarField;
    location    "12";
    object      gradTy;
}
// * * * * * * * * * * * * * * * * * * * * * * * * * * * * * * * * * * * * * //

dimensions      [0 -1 0 1 0 0 0];

internalField   nonuniform List<scalar> 
2048
(
-26.4237
-26.3961
-26.3417
-26.2621
-26.1593
-26.0359
-25.8946
-25.7383
-25.5698
-25.3916
-25.2061
-25.0154
-24.8216
-24.6263
-24.4309
-24.2369
-24.0453
-23.857
-23.6728
-23.4933
-23.3189
-23.15
-22.9868
-22.8295
-22.6785
-22.5339
-22.396
-22.2652
-22.1418
-22.0264
-21.9194
-21.8215
-21.7334
-21.6561
-21.5904
-21.5373
-21.498
-21.4736
-21.4654
-21.4745
-21.5023
-21.5501
-21.6189
-21.7101
-21.8245
-21.9629
-22.1257
-22.3128
-22.5236
-22.7567
-23.0097
-23.2793
-23.5613
-23.8504
-24.1406
-24.4252
-24.6976
-24.9511
-25.1796
-25.3777
-25.5412
-25.6666
-25.7515
-25.7943
-26.446
-26.4178
-26.3621
-26.2808
-26.1759
-26.0503
-25.9068
-25.7482
-25.5776
-25.3975
-25.2102
-25.018
-24.8228
-24.6263
-24.4299
-24.2349
-24.0426
-23.8537
-23.669
-23.4891
-23.3145
-23.1453
-22.9819
-22.8245
-22.6733
-22.5285
-22.3903
-22.2592
-22.1354
-22.0195
-21.912
-21.8135
-21.7248
-21.6467
-21.5801
-21.5262
-21.4859
-21.4606
-21.4513
-21.4594
-21.4862
-21.533
-21.6009
-21.6913
-21.8051
-21.9432
-22.106
-22.2937
-22.5056
-22.7405
-22.9962
-23.2693
-23.5555
-23.8495
-24.145
-24.4352
-24.7129
-24.9713
-25.2041
-25.4058
-25.572
-25.6994
-25.7855
-25.829
-26.4887
-26.4592
-26.4012
-26.3165
-26.2076
-26.0777
-25.9297
-25.7669
-25.5923
-25.4085
-25.218
-25.0228
-24.825
-24.6262
-24.4278
-24.2311
-24.0373
-23.8473
-23.6618
-23.4812
-23.3061
-23.1365
-22.9728
-22.815
-22.6634
-22.5182
-22.3796
-22.2478
-22.1234
-22.0066
-21.8981
-21.7985
-21.7085
-21.6289
-21.5608
-21.5052
-21.4631
-21.4359
-21.4247
-21.4309
-21.4557
-21.5005
-21.5667
-21.6555
-21.7681
-21.9055
-22.0684
-22.257
-22.4711
-22.7094
-22.9701
-23.2498
-23.5442
-23.8476
-24.1534
-24.4541
-24.7421
-25.01
-25.251
-25.4595
-25.6309
-25.7619
-25.8504
-25.895
-26.55
-26.5185
-26.4569
-26.3673
-26.2526
-26.1163
-25.9619
-25.793
-25.6126
-25.4237
-25.2285
-25.0293
-24.8278
-24.6258
-24.4246
-24.2255
-24.0297
-23.8381
-23.6514
-23.4699
-23.2941
-23.1241
-22.9599
-22.8017
-22.6496
-22.5038
-22.3645
-22.2319
-22.1065
-21.9886
-21.8787
-21.7775
-21.6856
-21.6041
-21.5337
-21.4756
-21.4311
-21.4012
-21.3872
-21.3906
-21.4126
-21.4548
-21.5184
-21.6049
-21.7157
-21.8519
-22.0146
-22.2044
-22.4212
-22.6643
-22.932
-23.2211
-23.5271
-23.8441
-24.1648
-24.481
-24.784
-25.0656
-25.3184
-25.5364
-25.715
-25.8512
-25.9428
-25.9889
-26.6284
-26.5944
-26.528
-26.4317
-26.3092
-26.1646
-26.002
-25.8252
-25.6376
-25.4421
-25.2412
-25.0369
-24.8309
-24.6248
-24.4201
-24.2181
-24.0199
-23.8263
-23.6381
-23.4556
-23.2791
-23.1085
-22.9438
-22.7851
-22.6325
-22.486
-22.3458
-22.2122
-22.0856
-21.9662
-21.8546
-21.7514
-21.6573
-21.5732
-21.5
-21.4389
-21.3911
-21.3578
-21.3405
-21.3403
-21.3588
-21.3974
-21.4576
-21.5411
-21.6494
-21.7839
-21.9461
-22.1369
-22.3569
-22.6057
-22.882
-23.1829
-23.5039
-23.8385
-24.1787
-24.515
-24.8376
-25.137
-25.4049
-25.6349
-25.8224
-25.9647
-26.06
-26.1079
-26.723
-26.6857
-26.6131
-26.5085
-26.3762
-26.2213
-26.0485
-25.8622
-25.666
-25.463
-25.2554
-25.0451
-24.8339
-24.6231
-24.4143
-24.2088
-24.0077
-23.8119
-23.6221
-23.4385
-23.2612
-23.0901
-22.925
-22.7658
-22.6125
-22.4652
-22.3241
-22.1893
-22.0613
-21.9403
-21.8268
-21.7213
-21.6244
-21.5372
-21.4607
-21.396
-21.3444
-21.3072
-21.2858
-21.2814
-21.2956
-21.33
-21.3861
-21.4658
-21.5708
-21.703
-21.864
-22.0556
-22.2787
-22.5337
-22.8199
-23.1348
-23.4737
-23.8299
-24.1942
-24.5555
-24.9023
-25.2234
-25.5095
-25.7536
-25.9513
-26.1003
-26.1996
-26.2493
-26.8331
-26.7918
-26.7115
-26.5965
-26.4523
-26.285
-26.1001
-25.9028
-25.6969
-25.4853
-25.2703
-25.0535
-24.8365
-24.6205
-24.4071
-24.1976
-23.9932
-23.795
-23.6035
-23.4188
-23.2409
-23.0693
-22.9039
-22.7442
-22.5902
-22.4421
-22.2999
-22.1639
-22.0344
-21.9117
-21.7959
-21.6878
-21.5879
-21.4973
-21.4169
-21.3481
-21.2922
-21.2505
-21.2244
-21.2153
-21.2246
-21.254
-21.3053
-21.3803
-21.4812
-21.6102
-21.7695
-21.9611
-22.1871
-22.4485
-22.7455
-23.076
-23.4359
-23.8175
-24.2105
-24.6019
-24.9777
-25.3245
-25.6317
-25.8916
-26.1003
-26.2562
-26.3594
-26.4108
-26.9584
-26.912
-26.8223
-26.6948
-26.5363
-26.3543
-26.1556
-25.9458
-25.7291
-25.5083
-25.2854
-25.0617
-24.8384
-24.6168
-24.3983
-24.1844
-23.9765
-23.7756
-23.5823
-23.3967
-23.2183
-23.0465
-22.8808
-22.7207
-22.5661
-22.4171
-22.2738
-22.1365
-22.0055
-21.8808
-21.7628
-21.6518
-21.5485
-21.454
-21.3694
-21.2961
-21.2354
-21.1888
-21.1575
-21.143
-21.1469
-21.1707
-21.2164
-21.2861
-21.3821
-21.5069
-21.6633
-21.8542
-22.0823
-22.3499
-22.658
-23.0058
-23.3892
-23.8003
-24.227
-24.6538
-25.0637
-25.4404
-25.7713
-26.0484
-26.2682
-26.4307
-26.5374
-26.5901
-27.0986
-27.0461
-26.945
-26.8024
-26.627
-26.4281
-26.2136
-25.99
-25.7617
-25.5313
-25.3003
-25.0694
-24.8396
-24.6119
-24.3878
-24.1691
-23.9573
-23.7537
-23.5588
-23.3724
-23.1938
-23.0221
-22.8563
-22.6959
-22.5406
-22.3906
-22.2461
-22.1075
-21.9749
-21.8484
-21.7279
-21.6139
-21.507
-21.4083
-21.319
-21.2407
-21.1749
-21.1229
-21.0861
-21.0659
-21.0638
-21.0814
-21.1209
-21.1843
-21.2744
-21.3941
-21.5466
-21.7356
-21.9648
-22.2377
-22.5569
-22.9229
-23.3323
-23.7768
-24.2427
-24.711
-25.1606
-25.5715
-25.9286
-26.2236
-26.4542
-26.6223
-26.7313
-26.7849
-27.254
-27.194
-27.0792
-26.9185
-26.7233
-26.5048
-26.2727
-26.0342
-25.7937
-25.5536
-25.3144
-25.0764
-24.8398
-24.6057
-24.3756
-24.1516
-23.9357
-23.7293
-23.5328
-23.3459
-23.1676
-22.9963
-22.8307
-22.6701
-22.5141
-22.363
-22.2173
-22.0774
-21.9433
-21.8148
-21.6919
-21.5748
-21.464
-21.3607
-21.2664
-21.1827
-21.1114
-21.0537
-21.0111
-20.9848
-20.9763
-20.9873
-21.0198
-21.0763
-21.1596
-21.273
-21.4203
-21.6059
-21.8346
-22.1117
-22.4414
-22.8262
-23.2638
-23.7459
-24.2567
-24.7733
-25.2689
-25.7185
-26.1041
-26.4171
-26.6573
-26.8293
-26.9393
-26.9928
-27.4246
-27.3557
-27.2243
-27.0424
-26.8241
-26.5833
-26.3317
-26.0772
-25.8243
-25.5745
-25.3275
-25.0825
-24.8391
-24.5982
-24.3617
-24.132
-23.9116
-23.7022
-23.5044
-23.3175
-23.1399
-22.9695
-22.8044
-22.6436
-22.4869
-22.3347
-22.1877
-22.0464
-21.9109
-21.7808
-21.6554
-21.535
-21.42
-21.3118
-21.2121
-21.1228
-21.0456
-20.982
-20.9333
-20.9007
-20.8854
-20.8892
-20.9142
-20.963
-21.0386
-21.1446
-21.2853
-21.4658
-21.6924
-21.9717
-22.3107
-22.7141
-23.1818
-23.7057
-24.2679
-24.8405
-25.3894
-25.8827
-26.2986
-26.6291
-26.8768
-27.0502
-27.1591
-27.2115
-27.6111
-27.5313
-27.3803
-27.1731
-26.928
-26.6621
-26.3891
-26.1178
-25.8525
-25.5936
-25.3394
-25.0877
-24.8376
-24.5897
-24.3461
-24.1101
-23.8848
-23.6724
-23.4736
-23.2872
-23.111
-22.942
-22.7778
-22.617
-22.4594
-22.3058
-22.1573
-22.0148
-21.8782
-21.7465
-21.6189
-21.4951
-21.3757
-21.2622
-21.1567
-21.0613
-20.978
-20.9084
-20.8535
-20.8143
-20.7921
-20.7883
-20.8052
-20.8455
-20.9126
-21.0101
-21.1428
-21.3164
-21.5384
-21.8177
-22.164
-22.5854
-23.0845
-23.6545
-24.2752
-24.9128
-25.5235
-26.0657
-26.5134
-26.8597
-27.1117
-27.2833
-27.3885
-27.4383
-27.8141
-27.7212
-27.5467
-27.3099
-27.0338
-26.7397
-26.4435
-26.1548
-25.8775
-25.6105
-25.35
-25.0922
-24.8355
-24.5802
-24.3288
-24.0857
-23.8552
-23.6398
-23.4402
-23.2551
-23.0811
-22.9143
-22.7513
-22.5905
-22.4319
-22.2766
-22.1265
-21.9828
-21.8453
-21.7125
-21.5827
-21.4555
-21.3316
-21.2124
-21.1005
-20.9988
-20.9092
-20.8334
-20.7722
-20.7265
-20.6971
-20.6854
-20.6937
-20.725
-20.7827
-20.8706
-20.9938
-21.1586
-21.3736
-21.6498
-22.0006
-22.4383
-22.9697
-23.5898
-24.2771
-24.9903
-25.6727
-26.2698
-26.7502
-27.1094
-27.3612
-27.5266
-27.625
-27.6706
-28.0344
-27.9258
-27.7235
-27.4518
-27.14
-26.8146
-26.4935
-26.187
-25.8985
-25.6248
-25.3593
-25.0963
-24.833
-24.57
-24.31
-24.059
-23.8226
-23.6042
-23.4043
-23.2212
-23.0506
-22.8867
-22.7253
-22.5645
-22.4046
-22.2472
-22.0951
-21.9505
-21.8126
-21.6791
-21.5474
-21.4168
-21.2879
-21.1626
-21.044
-20.9356
-20.8396
-20.7575
-20.6902
-20.638
-20.6012
-20.5813
-20.5806
-20.6022
-20.6499
-20.7273
-20.8395
-20.9934
-21.1986
-21.4682
-21.8197
-22.2712
-22.8348
-23.5091
-24.2716
-25.0731
-25.8394
-26.498
-27.0107
-27.3784
-27.6243
-27.7783
-27.8662
-27.9057
-28.273
-28.1458
-27.9104
-27.5978
-27.2452
-26.8851
-26.5375
-26.2131
-25.9148
-25.6363
-25.3677
-25.1002
-24.8306
-24.5594
-24.2897
-24.0296
-23.7869
-23.5653
-23.3655
-23.1856
-23.0195
-22.8597
-22.7003
-22.5395
-22.3779
-22.2176
-22.0632
-21.9178
-21.7802
-21.6466
-21.5134
-21.3794
-21.2453
-21.1132
-20.9873
-20.8719
-20.7694
-20.6812
-20.6079
-20.5492
-20.5052
-20.4768
-20.4666
-20.4781
-20.5151
-20.5812
-20.6812
-20.8222
-21.0146
-21.2734
-21.621
-22.0824
-22.6774
-23.4092
-24.2562
-25.1614
-26.0266
-26.7537
-27.2973
-27.667
-27.8997
-28.0362
-28.1093
-28.1407
-28.5312
-28.3816
-28.1074
-27.7469
-27.3476
-26.9496
-26.5741
-26.232
-25.9257
-25.645
-25.3753
-25.1044
-24.8287
-24.5489
-24.2681
-23.9973
-23.7477
-23.5229
-23.3238
-23.1484
-22.9884
-22.8337
-22.6767
-22.5157
-22.352
-22.1881
-22.0306
-21.8847
-21.7483
-21.6155
-21.481
-21.3435
-21.2041
-21.0645
-20.9306
-20.8079
-20.6989
-20.6046
-20.5256
-20.4609
-20.4097
-20.3725
-20.3524
-20.3534
-20.3794
-20.4335
-20.52
-20.6464
-20.8229
-21.0661
-21.4041
-21.8704
-22.4947
-23.2865
-24.228
-25.2552
-26.2381
-27.0414
-27.6124
-27.9754
-28.1857
-28.2977
-28.3518
-28.373
-28.8104
-28.6339
-28.3145
-27.8979
-27.4453
-27.0065
-26.6019
-26.2424
-25.9306
-25.651
-25.3829
-25.1095
-24.8278
-24.539
-24.2452
-23.9619
-23.705
-23.4768
-23.2788
-23.1094
-22.9574
-22.8094
-22.655
-22.4935
-22.3272
-22.1584
-21.9969
-21.851
-21.717
-21.5861
-21.4506
-21.3097
-21.1646
-21.0168
-20.8739
-20.7438
-20.6282
-20.5281
-20.4439
-20.3736
-20.3153
-20.2691
-20.2387
-20.2288
-20.2436
-20.2853
-20.3573
-20.4674
-20.6251
-20.8474
-21.1689
-21.6337
-22.2839
-23.137
-24.1826
-25.3545
-26.479
-27.3665
-27.9586
-28.3032
-28.4805
-28.5604
-28.5908
-28.5998
-29.1122
-28.9035
-28.5316
-28.0495
-27.5359
-27.0543
-26.6196
-26.243
-25.9289
-25.6543
-25.3912
-25.1159
-24.8282
-24.5305
-24.2212
-23.9229
-23.6583
-23.4269
-23.2301
-23.0687
-22.927
-22.7874
-22.6356
-22.4733
-22.3041
-22.1285
-21.9617
-21.8165
-21.6864
-21.5589
-21.4226
-21.2781
-21.1275
-20.9701
-20.8172
-20.6797
-20.5576
-20.4517
-20.363
-20.2877
-20.2226
-20.1672
-20.1258
-20.1047
-20.1083
-20.1375
-20.1942
-20.2868
-20.4231
-20.6187
-20.9158
-21.3707
-22.0422
-22.9561
-24.1144
-25.4588
-26.7559
-27.7355
-28.3385
-28.6497
-28.7817
-28.8214
-28.8237
-28.8184
-29.4385
-29.1907
-28.7591
-28.2002
-27.617
-27.0915
-26.6261
-26.2322
-25.9203
-25.6555
-25.4014
-25.1243
-24.8305
-24.5245
-24.1963
-23.8795
-23.6078
-23.3728
-23.1771
-23.0262
-22.8976
-22.7685
-22.6189
-22.4552
-22.283
-22.0984
-21.9241
-21.7808
-21.6566
-21.5344
-21.3973
-21.2491
-21.0931
-20.9247
-20.7601
-20.6155
-20.4872
-20.3756
-20.2832
-20.2036
-20.1322
-20.0671
-20.0142
-19.9816
-19.9743
-19.9912
-20.0316
-20.1062
-20.2193
-20.3815
-20.6452
-21.0801
-21.7675
-22.7391
-24.0158
-25.5671
-27.0779
-28.1563
-28.7543
-29.0136
-29.0865
-29.0779
-29.0479
-29.0267
-29.7913
-29.4957
-28.9978
-28.3483
-27.6851
-27.1171
-26.6206
-26.2085
-25.9042
-25.6548
-25.4148
-25.135
-24.8347
-24.5224
-24.1707
-23.8305
-23.5534
-23.3147
-23.1191
-22.9818
-22.8695
-22.7539
-22.6052
-22.4392
-22.2649
-22.0678
-21.883
-21.7434
-21.6278
-21.5135
-21.3749
-21.2226
-21.0623
-20.8807
-20.7023
-20.5515
-20.4171
-20.2997
-20.2048
-20.1219
-20.0448
-19.9694
-19.9042
-19.8596
-19.8421
-19.8474
-19.8705
-19.9272
-20.0161
-20.138
-20.3581
-20.7607
-21.4579
-22.4813
-23.8764
-25.6775
-27.4568
-28.6377
-29.2079
-29.3923
-29.3914
-29.3268
-29.2608
-29.2223
-30.1732
-29.8179
-29.2488
-28.492
-27.7359
-27.1308
-26.6026
-26.1696
-25.8805
-25.6528
-25.4336
-25.1484
-24.8405
-24.5263
-24.1443
-23.7743
-23.4956
-23.2525
-23.0549
-22.9357
-22.8431
-22.7448
-22.5948
-22.4252
-22.2511
-22.0368
-21.837
-21.7041
-21.6001
-21.4971
-21.3555
-21.1985
-21.0359
-20.838
-20.6429
-20.4878
-20.3474
-20.2237
-20.128
-20.0429
-19.9608
-19.8743
-19.7958
-19.7389
-19.7123
-19.7071
-19.7113
-19.751
-19.8168
-19.8902
-20.0559
-20.4107
-21.1126
-22.1787
-23.6822
-25.7865
-27.909
-29.19
-29.6998
-29.7825
-29.6928
-29.565
-29.4603
-29.4037
-30.5874
-30.1556
-29.5146
-28.6295
-27.7638
-27.1333
-26.5722
-26.1126
-25.8493
-25.6497
-25.4607
-25.1643
-24.8469
-24.5392
-24.1175
-23.7079
-23.4353
-23.1869
-22.9827
-22.8879
-22.8186
-22.7433
-22.5875
-22.4125
-22.2433
-22.0051
-21.7838
-21.6626
-21.5735
-21.4868
-21.3391
-21.1762
-21.0156
-20.7969
-20.5806
-20.4248
-20.2785
-20.1472
-20.0532
-19.9668
-19.8812
-19.7823
-19.6892
-19.6194
-19.5852
-19.5717
-19.5542
-19.579
-19.625
-19.6405
-19.7409
-20.0282
-20.7321
-21.8291
-23.4141
-25.8883
-28.4571
-29.8243
-30.2293
-30.1796
-29.9863
-29.7897
-29.6445
-29.5693
-31.038
-30.505
-29.7996
-28.7585
-27.7611
-27.1268
-26.5303
-26.0334
-25.8115
-25.6454
-25.5
-25.1822
-24.8519
-24.5659
-24.0904
-23.6273
-23.3746
-23.1184
-22.8999
-22.8389
-22.7961
-22.7518
-22.583
-22.3996
-22.2444
-21.9727
-21.7203
-21.6188
-21.5478
-21.4845
-21.3254
-21.1546
-21.0035
-20.7572
-20.5135
-20.3634
-20.2108
-20.0693
-19.9805
-19.894
-19.8067
-19.6937
-19.5844
-19.5005
-19.461
-19.4426
-19.3987
-19.4117
-19.4453
-19.391
-19.4159
-19.61
-20.3185
-21.4331
-23.0461
-25.9739
-29.1321
-30.552
-30.7931
-30.5777
-30.2675
-29.9982
-29.8119
-29.7182
-31.5302
-30.8593
-30.1106
-28.8769
-27.7168
-27.1162
-26.4787
-25.9261
-25.7688
-25.6389
-25.5574
-25.2008
-24.8517
-24.6131
-24.0629
-23.5262
-23.3169
-23.0486
-22.8027
-22.7899
-22.7747
-22.7743
-22.5804
-22.3842
-22.2589
-21.9395
-21.6424
-21.5734
-21.5224
-21.4933
-21.3136
-21.1318
-21.0027
-20.719
-20.4385
-20.3049
-20.1447
-19.9888
-19.9108
-19.8245
-19.7383
-19.6084
-19.4812
-19.3818
-19.3398
-19.3221
-19.2434
-19.2495
-19.2835
-19.1432
-19.0855
-19.1508
-19.8761
-20.9967
-22.5433
-26.0296
-29.977
-31.3838
-31.3851
-30.9694
-30.5317
-30.1881
-29.9613
-29.8498
-32.0715
-31.2066
-30.459
-28.9824
-27.6158
-27.1096
-26.4203
-25.7821
-25.7251
-25.6276
-25.641
-25.2178
-24.84
-24.6909
-24.0353
-23.3951
-23.2678
-22.9794
-22.6853
-22.7433
-22.7527
-22.8162
-22.5782
-22.362
-22.293
-21.9055
-21.5439
-21.5281
-21.4958
-21.5176
-21.3026
-21.1045
-21.0182
-20.6822
-20.3515
-20.2517
-20.081
-19.9036
-19.845
-19.7581
-19.6775
-19.5266
-19.3795
-19.2622
-19.2214
-19.2132
-19.0861
-19.0913
-19.147
-18.8975
-18.7564
-18.6422
-19.4111
-20.5339
-21.859
-26.0348
-31.0517
-32.3275
-31.9955
-31.3466
-30.7746
-30.3573
-30.092
-29.9639
-32.6723
-31.5279
-30.8621
-29.0727
-27.4367
-27.1207
-26.3594
-25.5885
-25.6869
-25.6063
-25.7629
-25.2298
-24.8069
-24.8138
-24.0074
-23.2206
-23.2361
-22.9138
-22.5393
-22.7034
-22.7266
-22.8851
-22.574
-22.3267
-22.3561
-21.8704
-21.4167
-21.4864
-21.4653
-21.5636
-21.2905
-21.0677
-21.0569
-20.6465
-20.2462
-20.2076
-20.0208
-19.8108
-19.7848
-19.6939
-19.6262
-19.4481
-19.2795
-19.1405
-19.1051
-19.1203
-18.9229
-18.9353
-19.0457
-18.6522
-18.4388
-18.071
-18.9321
-20.0712
-20.9311
-25.9593
-32.4383
-33.3851
-32.6101
-31.7001
-30.9921
-30.5046
-30.2037
-30.0606
-33.3475
-31.7937
-31.346
-29.1455
-27.1498
-27.1701
-26.3019
-25.3273
-25.666
-25.5653
-25.9399
-25.2317
-24.7379
-25.0026
-23.9789
-22.9835
-23.2353
-22.8555
-22.3525
-22.6775
-22.69
-22.9922
-22.5645
-22.2688
-22.4616
-21.834
-21.2492
-21.4544
-21.4259
-21.6401
-21.2747
-21.0141
-21.129
-20.6115
-20.1138
-20.1784
-19.9652
-19.7059
-19.7328
-19.6306
-19.5867
-19.3722
-19.1813
-19.015
-18.9894
-19.0502
-18.7485
-18.7776
-18.9929
-18.402
-18.1482
-17.4169
-18.4492
-19.6521
-19.6779
-25.7603
-34.2496
-34.5487
-33.2103
-32.0205
-31.1806
-30.6289
-30.2966
-30.1405
-34.1181
-31.9599
-31.9491
-29.1988
-26.7138
-27.2882
-26.2553
-24.9721
-25.6809
-25.4882
-26.1959
-25.2165
-24.6111
-25.2863
-23.9495
-22.6569
-23.2851
-22.8097
-22.1076
-22.6776
-22.632
-23.1532
-22.545
-22.1744
-22.6281
-21.7959
-21.0258
-21.4425
-21.369
-21.7599
-21.2512
-20.9327
-21.2486
-20.5764
-19.9422
-20.1728
-19.9158
-19.5827
-19.6934
-19.5654
-19.5627
-19.2977
-19.0853
-18.8837
-18.8719
-19.0122
-18.5552
-18.6119
-19.0071
-18.1357
-17.9084
-16.6499
-17.9734
-19.3446
-17.9934
-25.3773
-36.6388
-35.7944
-33.7729
-32.2989
-31.3377
-30.7301
-30.3713
-30.2042
-35.0134
-31.962
-32.7267
-29.2302
-26.0725
-27.5186
-26.229
-24.4865
-25.7609
-25.3488
-26.5643
-25.1745
-24.3963
-25.7051
-23.9182
-22.2037
-23.4134
-22.7826
-21.7802
-22.7228
-22.5353
-23.39
-22.5089
-22.0237
-22.8817
-21.7549
-20.7252
-21.4671
-21.2808
-21.9404
-21.215
-20.8086
-21.4355
-20.5402
-19.7149
-20.2031
-19.8742
-19.4324
-19.6732
-19.4939
-19.559
-19.2228
-18.9928
-18.7443
-18.7484
-19.0195
-18.3328
-18.4287
-19.1135
-17.8342
-17.7542
-15.727
-17.5148
-19.2488
-15.7414
-24.727
-39.8117
-37.0738
-34.271
-32.5274
-31.4619
-30.8085
-30.4285
-30.2529
-36.0745
-31.7088
-33.7559
-29.2374
-25.1506
-27.9221
-26.2341
-23.8198
-25.9501
-25.1068
-27.0914
-25.0935
-24.051
-26.3132
-23.8834
-21.5743
-23.6594
-22.7815
-21.3367
-22.8417
-22.3732
-23.7329
-22.448
-21.7897
-23.2572
-21.7093
-20.3191
-21.5528
-21.1402
-22.2061
-21.159
-20.6207
-21.7162
-20.501
-19.4094
-20.2869
-19.842
-19.2429
-19.682
-19.4092
-19.5823
-19.144
-18.9056
-18.594
-18.6126
-19.0907
-18.0676
-18.2142
-19.3469
-17.4658
-17.7368
-14.5886
-17.0797
-19.5073
-12.749
-23.6965
-44.0418
-38.304
-34.6766
-32.7003
-31.5528
-30.865
-30.4694
-30.2875
-37.3573
-31.0742
-35.1426
-29.2178
-23.8482
-28.581
-26.2836
-22.9036
-26.3129
-24.7025
-27.8395
-24.9575
-23.5184
-27.1825
-23.8428
-20.7031
-24.0763
-22.8155
-20.7319
-23.0762
-22.1066
-24.2231
-22.3515
-21.4357
-23.8012
-21.6561
-19.77
-21.7357
-20.9156
-22.5899
-21.0745
-20.341
-22.1265
-20.456
-18.9967
-20.4481
-19.8209
-18.9981
-19.7339
-19.3011
-19.6422
-19.0566
-18.8267
-18.43
-18.4546
-19.2508
-17.7422
-17.9488
-19.7549
-16.982
-17.9293
-13.154
-16.6677
-20.3163
-8.80018
-22.1349
-49.6875
-39.3538
-34.9631
-32.8145
-31.6114
-30.901
-30.4953
-30.3094
-38.9366
-29.8876
-37.0289
-29.1677
-22.0359
-29.605
-26.3916
-21.6465
-26.9405
-24.0499
-28.8924
-24.7464
-22.723
-28.4066
-23.7927
-19.5042
-24.7343
-22.8939
-19.9048
-23.4854
-21.6785
-24.9149
-22.2053
-20.9134
-24.5747
-21.5906
-19.0279
-22.0654
-20.5604
-23.1349
-20.9496
-19.9321
-22.7126
-20.4008
-18.4383
-20.7182
-19.8113
-18.6765
-19.849
-19.1543
-19.7514
-18.9528
-18.7603
-18.2493
-18.2602
-19.5331
-17.3348
-17.6052
-20.4017
-16.3111
-18.4336
-11.3168
-16.2664
-21.9389
-3.62805
-19.8441
-57.2128
-40.0274
-35.1108
-32.8703
-31.6396
-30.9182
-30.5076
-30.3198
)
;

boundaryField
{
    left
    {
        type            calculated;
        value           nonuniform List<scalar> 
32
(
-26.4237
-26.446
-26.4887
-26.55
-26.6284
-26.723
-26.8331
-26.9584
-27.0986
-27.254
-27.4246
-27.6111
-27.8141
-28.0344
-28.273
-28.5312
-28.8104
-29.1122
-29.4385
-29.7913
-30.1732
-30.5874
-31.038
-31.5302
-32.0715
-32.6723
-33.3475
-34.1181
-35.0134
-36.0745
-37.3573
-38.9366
)
;
    }
    right
    {
        type            calculated;
        value           nonuniform List<scalar> 
32
(
-25.7943
-25.829
-25.895
-25.9889
-26.1079
-26.2493
-26.4108
-26.5901
-26.7849
-26.9928
-27.2115
-27.4383
-27.6706
-27.9057
-28.1407
-28.373
-28.5998
-28.8184
-29.0267
-29.2223
-29.4037
-29.5693
-29.7182
-29.8498
-29.9639
-30.0606
-30.1405
-30.2042
-30.2529
-30.2875
-30.3094
-30.3198
)
;
    }
    interface
    {
        type            calculated;
        value           nonuniform List<scalar> 
64
(
-39.8111
-29.1318
-38.1173
-29.1345
-20.9839
-30.2238
-26.4621
-20.9197
-27.3339
-23.649
-29.5069
-24.6193
-22.2488
-29.1205
-23.7646
-18.8108
-25.1336
-22.9454
-19.4269
-23.7423
-21.4156
-25.3189
-22.1178
-20.6033
-25.0274
-21.554
-18.6014
-22.2741
-20.3432
-23.4537
-20.8754
-19.6902
-23.0562
-20.3699
-18.1172
-20.8849
-19.8094
-18.4935
-19.9253
-19.069
-19.8201
-18.8957
-18.7308
-18.1542
-18.1517
-19.7096
-17.1076
-17.41
-20.794
-15.9183
-18.7784
-10.2826
-16.066
-22.9911
-0.699392
-18.4884
-61.5105
-40.2411
-35.1482
-32.8839
-31.6464
-30.9223
-30.5106
-30.3222
)
;
    }
    bottom
    {
        type            calculated;
        value           nonuniform List<scalar> 
64
(
-26.4179
-26.3905
-26.3364
-26.2572
-26.1549
-26.0321
-25.8914
-25.7357
-25.5677
-25.39
-25.205
-25.0148
-24.8213
-24.6263
-24.4312
-24.2374
-24.046
-23.8578
-23.6738
-23.4944
-23.32
-23.1512
-22.988
-22.8308
-22.6799
-22.5353
-22.3975
-22.2668
-22.1435
-22.0282
-21.9213
-21.8236
-21.7357
-21.6586
-21.5931
-21.5402
-21.5012
-21.477
-21.4691
-21.4785
-21.5065
-21.5545
-21.6236
-21.715
-21.8295
-21.968
-22.1308
-22.3178
-22.5283
-22.7608
-23.0131
-23.2819
-23.5628
-23.8506
-24.1394
-24.4227
-24.6936
-24.9458
-25.1732
-25.3704
-25.5332
-25.6581
-25.7426
-25.7853
)
;
    }
    defaultFaces
    {
        type            empty;
    }
}


// ************************************************************************* //
