/*--------------------------------*- C++ -*----------------------------------*\
| =========                 |                                                 |
| \\      /  F ield         | OpenFOAM: The Open Source CFD Toolbox           |
|  \\    /   O peration     | Version:  5.x                                   |
|   \\  /    A nd           | Web:      www.OpenFOAM.org                      |
|    \\/     M anipulation  |                                                 |
\*---------------------------------------------------------------------------*/
FoamFile
{
    version     2.0;
    format      ascii;
    class       volScalarField;
    location    "12";
    object      gradTx;
}
// * * * * * * * * * * * * * * * * * * * * * * * * * * * * * * * * * * * * * //

dimensions      [0 -1 0 1 0 0 0];

internalField   nonuniform List<scalar> 
2048
(
0.00630492
0.0187341
0.0306382
0.0417194
0.0517488
0.0605771
0.0681339
0.074417
0.079476
0.0833939
0.0862704
0.0882098
0.0893141
0.0896802
0.0894005
0.0885641
0.0872579
0.0855653
0.0835643
0.0813233
0.078898
0.0763292
0.0736417
0.0708457
0.0679388
0.0649091
0.0617369
0.0583967
0.0548576
0.0510837
0.0470347
0.0426669
0.0379353
0.0327951
0.0272045
0.021126
0.0145272
0.00738207
-0.000329034
-0.00861775
-0.0174856
-0.0269203
-0.0368905
-0.0473387
-0.0581734
-0.0692599
-0.080411
-0.0913795
-0.101854
-0.111463
-0.119781
-0.126358
-0.130752
-0.132569
-0.131511
-0.127415
-0.120277
-0.110247
-0.0976151
-0.0827648
-0.0661294
-0.0481501
-0.0292469
-0.00980738
0.0187883
0.0558173
0.0912552
0.124204
0.153977
0.180134
0.202475
0.221009
0.235896
0.247396
0.255813
0.261462
0.264647
0.265653
0.264752
0.262208
0.258277
0.253209
0.247237
0.240566
0.233362
0.225748
0.217794
0.20953
0.200947
0.192006
0.18265
0.172801
0.162368
0.151245
0.139311
0.126436
0.112485
0.0973235
0.0808274
0.0628842
0.0433983
0.0222915
-0.000494938
-0.0249973
-0.0512233
-0.0791408
-0.108663
-0.139626
-0.171768
-0.204697
-0.237867
-0.270551
-0.301825
-0.33058
-0.355543
-0.375356
-0.38867
-0.394287
-0.391294
-0.379191
-0.35796
-0.328072
-0.290411
-0.246151
-0.196608
-0.143109
-0.086905
-0.0291382
0.0311399
0.092482
0.151104
0.205482
0.254469
0.297348
0.333822
0.363948
0.388037
0.406557
0.420035
0.429002
0.43396
0.435372
0.433678
0.429306
0.422677
0.414205
0.40428
0.393246
0.381382
0.368887
0.355877
0.342391
0.328408
0.31386
0.298647
0.282643
0.265698
0.247638
0.228263
0.207355
0.184689
0.16004
0.1332
0.103983
0.0722326
0.0378192
0.00064434
-0.0393569
-0.0822059
-0.127864
-0.176206
-0.226986
-0.279799
-0.334029
-0.388805
-0.442951
-0.494958
-0.542981
-0.584891
-0.618378
-0.641131
-0.651071
-0.646606
-0.626859
-0.591798
-0.542251
-0.479767
-0.406388
-0.324372
-0.235961
-0.143224
-0.0480092
0.0435994
0.129424
0.211271
0.286935
0.354791
0.413866
0.463815
0.50481
0.537378
0.562244
0.580195
0.591989
0.598319
0.599816
0.597069
0.590656
0.581162
0.569165
0.555222
0.539823
0.523365
0.506124
0.48825
0.469786
0.450685
0.430844
0.410118
0.388332
0.365282
0.340725
0.314385
0.285952
0.255106
0.221528
0.184925
0.145037
0.101648
0.0545779
0.00368867
-0.0511187
-0.109891
-0.1726
-0.239108
-0.30912
-0.382125
-0.457328
-0.533578
-0.609291
-0.682398
-0.750322
-0.810035
-0.858196
-0.891412
-0.906587
-0.901324
-0.874286
-0.825429
-0.75601
-0.668378
-0.56559
-0.450972
-0.327744
-0.198793
-0.0666107
0.0563826
0.167267
0.272718
0.369765
0.456278
0.531059
0.593788
0.644842
0.685058
0.715496
0.737244
0.751303
0.758549
0.759753
0.755632
0.7469
0.734297
0.71858
0.700483
0.68066
0.659634
0.637758
0.615208
0.592011
0.568084
0.543272
0.517384
0.490199
0.461462
0.43087
0.398063
0.362639
0.324171
0.282242
0.236466
0.186511
0.132104
0.0730194
0.00907802
-0.0598583
-0.133875
-0.212976
-0.297043
-0.385768
-0.478584
-0.574573
-0.672358
-0.770005
-0.864918
-0.95379
-1.03264
-1.09698
-1.14216
-1.16386
-1.15867
-1.12469
-1.06185
-0.971939
-0.858326
-0.725313
-0.577481
-0.419133
-0.253974
-0.0850561
0.0696945
0.206597
0.336337
0.455066
0.560112
0.650098
0.724828
0.785017
0.831936
0.867072
0.891871
0.907589
0.915265
0.915775
0.909927
0.89855
0.882537
0.862837
0.840388
0.816034
0.790436
0.764024
0.736987
0.709314
0.680859
0.651405
0.620708
0.588509
0.55451
0.518352
0.479596
0.437732
0.392219
0.342524
0.288168
0.228747
0.163933
0.0934636
0.0171206
-0.0652776
-0.153869
-0.248715
-0.349749
-0.456698
-0.568991
-0.685649
-0.80515
-0.925272
-1.04295
-1.15415
-1.2539
-1.3364
-1.39552
-1.42542
-1.42142
-1.38085
-1.30358
-1.19214
-1.05119
-0.88662
-0.704539
-0.510464
-0.308917
-0.103385
0.0837391
0.247994
0.402997
0.543873
0.667371
0.771999
0.857829
0.926081
0.978621
1.01749
1.04454
1.06129
1.06892
1.06834
1.0604
1.04602
1.02624
1.00224
0.975183
0.946145
0.915948
0.885099
0.853777
0.8219
0.78923
0.755466
0.720309
0.68347
0.64463
0.603383
0.559206
0.511471
0.459502
0.402636
0.340289
0.271988
0.197362
0.11612
0.0280141
-0.0671843
-0.16968
-0.279619
-0.397023
-0.521699
-0.653135
-0.790365
-0.931805
-1.07504
-1.21662
-1.35182
-1.4746
-1.57772
-1.65326
-1.69347
-1.69203
-1.64521
-1.55281
-1.41831
-1.24811
-1.05014
-0.832383
-0.601754
-0.363564
-0.121568
0.0987279
0.292055
0.473575
0.637201
0.779066
0.89766
0.993514
1.06857
1.12551
1.16704
1.19551
1.21269
1.21982
1.21778
1.20741
1.18965
1.16571
1.13702
1.10504
1.07112
1.03629
1.00111
0.965726
0.929947
0.893392
0.85565
0.816367
0.775246
0.731973
0.686112
0.637055
0.584034
0.52621
0.462769
0.393011
0.316396
0.232528
0.141105
0.0418613
-0.0654782
-0.1812
-0.305561
-0.438711
-0.580588
-0.730797
-0.888466
-1.05205
-1.21907
-1.38577
-1.54685
-1.69516
-1.82183
-1.9168
-1.96995
-1.97275
-1.92004
-1.8115
-1.65186
-1.44984
-1.21607
-0.960862
-0.692709
-0.41766
-0.139505
0.114887
0.33941
0.548981
0.736072
0.896167
1.02788
1.13246
1.21286
1.27278
1.31582
1.34487
1.36192
1.36817
1.36438
1.35125
1.32973
1.30119
1.26735
1.23008
1.19105
1.15151
1.11213
1.07296
1.03361
0.993522
0.952134
0.909036
0.86396
0.81664
0.766638
0.713251
0.655547
0.592485
0.523065
0.44646
0.36207
0.269497
0.168457
0.0586834
-0.0601397
-0.188395
-0.326481
-0.474717
-0.633216
-0.801762
-0.97966
-1.16552
-1.35693
-1.55002
-1.73899
-1.91564
-2.06928
-2.18731
-2.25661
-2.26573
-2.20756
-2.08148
-1.89393
-1.6568
-1.38423
-1.08945
-0.782736
-0.470765
-0.157037
0.132462
0.390742
0.63018
0.841537
1.01962
1.16339
1.27511
1.35911
1.42043
1.46375
1.49256
1.50899
1.5141
1.50835
1.49219
1.46652
1.43288
1.39338
1.35036
1.30593
1.26164
1.21822
1.17556
1.13304
1.0898
1.04509
0.998453
0.949703
0.898689
0.84501
0.787862
0.726101
0.658433
0.583631
0.500719
0.409056
0.308274
0.198145
0.0784297
-0.0512202
-0.191298
-0.342381
-0.504997
-0.679479
-0.865842
-1.06365
-1.27178
-1.48808
-1.70876
-1.92772
-2.13578
-2.32031
-2.46571
-2.55507
-2.57312
-2.50997
-2.3645
-2.14547
-1.86904
-1.55402
-1.21723
-0.870952
-0.522258
-0.173941
0.151725
0.446796
0.718212
0.954694
1.15037
1.30482
1.42177
1.50734
1.5683
1.61058
1.63836
1.65382
1.65766
1.64987
1.63049
1.60027
1.56097
1.51521
1.4659
1.41573
1.36663
1.31937
1.27364
1.22839
1.18241
1.13469
1.08474
1.03253
0.978135
0.921237
0.860915
0.795753
0.724135
0.644548
0.555843
0.457359
0.348812
0.230079
0.100987
-0.038834
-0.190006
-0.353321
-0.529564
-0.719325
-0.922888
-1.14014
-1.37038
-1.61187
-1.86119
-2.11222
-2.35499
-2.57483
-2.75265
-2.86685
-2.89709
-2.82959
-2.66236
-2.40724
-2.08628
-1.72442
-1.34295
-0.956202
-0.571358
-0.189945
0.17298
0.508399
0.81421
1.0767
1.28935
1.45274
1.57263
1.65742
1.71601
1.75589
1.78195
1.79624
1.79887
1.78911
1.76641
1.73124
1.68566
1.6329
1.57667
1.52037
1.4664
1.41559
1.36726
1.31982
1.27155
1.22113
1.16802
1.11248
1.05495
0.995288
0.932409
0.864542
0.789658
0.705884
0.611863
0.506952
0.391023
0.264119
0.126185
-0.0231507
-0.184662
-0.359411
-0.548485
-0.75276
-0.972809
-1.2089
-1.46085
-1.7276
-2.00637
-2.29145
-2.57237
-2.83243
-3.04856
-3.19338
-3.23996
-3.16897
-2.97691
-2.67982
-2.30785
-1.89401
-1.46494
-1.03708
-0.61715
-0.204733
0.196565
0.576462
0.919406
1.20879
1.43748
1.60765
1.72775
1.80904
1.86304
1.89913
1.92289
1.93604
1.93774
1.92628
1.90023
1.8597
1.80711
1.74653
1.68261
1.61971
1.56084
1.50684
1.45651
1.40751
1.35747
1.30462
1.2484
1.18954
1.12907
1.06709
1.00232
0.932492
0.855066
0.767706
0.668802
0.557784
0.434781
0.300082
0.153808
-0.00438796
-0.175459
-0.360804
-0.561877
-0.779855
-1.01559
-1.26974
-1.5428
-1.83455
-2.14326
-2.46412
-2.78668
-3.09236
-3.35358
-3.53602
-3.60418
-3.53094
-3.31018
-2.96364
-2.53267
-2.06088
-1.58123
-1.11197
-0.658616
-0.217962
0.22286
0.652
1.03515
1.35225
1.59568
1.76995
1.88706
1.96175
2.0087
2.03958
2.06068
2.07296
2.07425
2.06157
2.0323
1.98596
1.9255
1.85613
1.78364
1.71358
1.64977
1.59306
1.54147
1.49165
1.44041
1.38541
1.32602
1.26369
1.20038
1.13655
1.0706
0.999618
0.920423
0.830089
0.726676
0.609783
0.479933
0.337747
0.183593
0.0171953
-0.162621
-0.357688
-0.569903
-0.800743
-1.05128
-1.32259
-1.61587
-1.93202
-2.27073
-2.62876
-2.99641
-3.35349
-3.66754
-3.89599
-3.99247
-3.91881
-3.66444
-3.25893
-2.75921
-2.22268
-1.68949
-1.17909
-0.694675
-0.229274
0.252292
0.736127
1.16291
1.5085
1.76485
1.93993
2.05037
2.11495
2.15216
2.17643
2.19472
2.20673
2.20841
2.19523
2.163
2.11035
2.04103
1.96174
1.87962
1.80171
1.73296
1.67419
1.62226
1.57249
1.52071
1.4638
1.40101
1.33486
1.26869
1.20352
1.1372
1.06593
0.985802
0.893126
0.785505
0.662859
0.5263
0.376858
0.215242
0.0413045
-0.146401
-0.350273
-0.572762
-0.815624
-1.08005
-1.36743
-1.67983
-2.0194
-2.38762
-2.78371
-3.19969
-3.61433
-3.98991
-4.27434
-4.40777
-4.33644
-4.04229
-3.56567
-2.98536
-2.37654
-1.78713
-1.23655
-0.72424
-0.238318
0.285343
0.830067
1.30428
1.67902
1.94585
2.11776
2.21738
2.26792
2.29239
2.3087
2.32439
2.3371
2.34022
2.32755
2.29282
2.23324
2.15386
2.0634
1.97041
1.88383
1.81017
1.75014
1.69901
1.65026
1.59871
1.54016
1.4735
1.40291
1.33379
1.26783
1.20205
1.13144
1.05129
0.956941
0.845315
0.716903
0.573686
0.417138
0.24842
0.0676151
-0.127067
-0.33878
-0.570677
-0.824755
-1.10213
-1.4044
-1.73458
-2.09618
-2.49281
-2.92719
-3.3944
-3.87299
-4.31973
-4.67185
-4.85334
-4.78849
-4.44676
-3.88351
-3.20836
-2.51909
-1.87131
-1.28245
-0.74627
-0.24477
0.322562
0.935146
1.46098
1.86541
2.13945
2.30345
2.38771
2.41984
2.42826
2.43533
2.44902
2.46384
2.46968
2.45886
2.42234
2.35503
2.26415
2.16116
2.05584
1.95956
1.88104
1.82085
1.77189
1.72524
1.6748
1.61493
1.54368
1.46767
1.39536
1.32928
1.26512
1.19614
1.11698
1.0217
0.906139
0.771787
0.621882
0.458289
0.282761
0.0957755
-0.104895
-0.323425
-0.563888
-0.828448
-1.11785
-1.43372
-1.78013
-2.16202
-2.58524
-3.05729
-3.57813
-4.12723
-4.65559
-5.08888
-5.33268
-5.28066
-4.88145
-4.21165
-3.42467
-2.64643
-1.93906
-1.31496
-0.759837
-0.248354
0.364588
1.05278
1.63483
2.06944
2.34634
2.49678
2.56089
2.56981
2.55846
2.5551
2.56799
2.5868
2.59677
2.5895
2.55228
2.47616
2.37201
2.2551
2.13575
2.02847
1.94519
1.88625
1.84113
1.79768
1.74944
1.68869
1.61173
1.52887
1.453
1.38767
1.32638
1.26003
1.18298
1.08764
0.968019
0.827346
0.670677
0.499999
0.317864
0.12541
-0.0801613
-0.304405
-0.552629
-0.827067
-1.12766
-1.45571
-1.81667
-2.21682
-2.66396
-3.17205
-3.74823
-4.37446
-4.99556
-5.52514
-5.84955
-5.81995
-5.35064
-4.5486
-3.62979
-2.75418
-1.98738
-1.3324
-0.764181
-0.248858
0.412185
1.18447
1.82773
2.29307
2.56705
2.69726
2.73648
2.71688
2.68151
2.6667
2.68068
2.70599
2.72141
2.71985
2.68358
2.59705
2.47747
2.34538
2.20999
2.09003
2.00214
1.94629
1.90703
1.86783
1.82307
1.76215
1.67787
1.58613
1.50622
1.44277
1.38587
1.32306
1.24941
1.15508
1.031
0.883368
0.719871
0.541958
0.353299
0.15612
-0.0531331
-0.28188
-0.537123
-0.821016
-1.13208
-1.4708
-1.84454
-2.26071
-2.72823
-3.26949
-3.90184
-4.6118
-5.3372
-5.97942
-6.40784
-6.41517
-5.85947
-4.89194
-3.81812
-2.83754
-2.01338
-1.3334
-0.758769
-0.246156
0.466312
1.33174
2.04162
2.53856
2.80188
2.90403
2.91411
2.86012
2.79578
2.76866
2.78656
2.82161
2.84341
2.85024
2.81744
2.71813
2.58038
2.43226
2.27842
2.14359
2.05129
2.00096
1.97004
1.93582
1.89615
1.83626
1.74235
1.63893
1.55439
1.49438
1.44373
1.38512
1.31635
1.22449
1.09512
0.939564
0.769299
0.583858
0.388591
0.187483
-0.0240641
-0.255958
-0.517557
-0.810737
-1.13173
-1.47943
-1.86417
-2.2942
-2.77749
-3.3476
-4.03591
-4.83621
-5.67766
-6.44919
-7.01133
-7.07746
-6.41415
-5.23783
-3.9828
-2.8914
-2.01439
-1.31692
-0.743339
-0.240215
0.528233
1.49609
2.27835
2.80864
3.05081
3.11568
3.09367
2.99867
2.89943
2.85935
2.88523
2.93417
2.96234
2.98092
2.95551
2.83973
2.68036
2.5162
2.34098
2.18838
2.09195
2.05031
2.0308
2.00167
1.96909
1.91228
1.80545
1.68657
1.59675
1.54231
1.50028
1.446
1.38384
1.29654
1.1604
0.995527
0.818861
0.625411
0.423223
0.219052
0.00680951
-0.226678
-0.494071
-0.796701
-1.12735
-1.48208
-1.87609
-2.31818
-2.81146
-3.40442
-4.14717
-5.04458
-6.0138
-6.93008
-7.66344
-7.82108
-7.02214
-5.5805
-4.11554
-2.91048
-1.98821
-1.28244
-0.717929
-0.231101
0.599699
1.67891
2.53957
3.10674
3.31337
3.33008
3.27546
3.13174
2.99037
2.93695
2.97639
3.04468
3.0774
3.11197
3.10003
2.96203
2.77662
2.598
2.39769
2.22344
2.12325
2.09443
2.09023
2.06511
2.04219
1.99188
1.86746
1.72811
1.63236
1.58644
1.55604
1.5053
1.45186
1.37219
1.22679
1.05068
0.868579
0.666357
0.456613
0.250355
0.0392695
-0.193992
-0.466739
-0.779404
-1.11984
-1.47919
-1.88084
-2.33403
-2.83017
-3.43804
-4.23218
-5.23391
-6.34256
-7.41522
-8.36663
-8.66444
-7.69241
-5.9114
-4.20653
-2.88963
-1.93325
-1.22993
-0.682889
-0.218981
0.683235
1.88136
2.82647
3.43739
3.58847
3.54413
3.46057
3.2587
3.0662
2.99942
3.05992
3.15486
3.18719
3.24316
3.25418
3.08498
2.86782
2.67897
2.44862
2.2476
2.14417
2.13352
2.14972
2.1255
2.11555
2.07736
1.92864
1.76232
1.66013
1.62668
1.61193
1.56236
1.52021
1.45284
1.29415
1.10417
0.918669
0.706464
0.488103
0.280897
0.0731121
-0.157743
-0.435555
-0.759352
-1.11026
-1.47107
-1.87886
-2.34376
-2.83393
-3.44664
-4.28723
-5.40145
-6.6615
-7.89448
-9.12171
-9.63148
-8.43566
-6.21821
-4.24449
-2.8241
-1.84868
-1.15996
-0.638869
-0.204111
0.782583
2.10422
3.13947
3.80675
3.87413
3.75335
3.65126
3.37901
3.12419
3.04444
3.13581
3.26745
3.28945
3.37381
3.42242
3.2081
2.95176
2.76119
2.49392
2.25942
2.15344
2.1678
2.21127
2.1816
2.18896
2.17188
1.98917
1.78762
1.67873
1.663
1.66942
1.61605
1.58849
1.54051
1.36219
1.15481
0.969661
0.745533
0.516925
0.310168
0.10814
-0.117652
-0.400418
-0.73704
-1.09995
-1.45788
-1.87037
-2.35014
-2.82336
-3.42852
-4.30823
-5.54479
-6.96961
-8.35345
-9.92672
-10.7534
-9.26452
-6.48341
-4.21682
-2.71
-1.73467
-1.07366
-0.586793
-0.186822
0.903333
2.34761
3.47768
4.22339
4.16719
3.95144
3.8516
3.49223
3.16113
3.0694
3.20412
3.38672
3.38064
3.50253
3.61109
3.33028
3.02507
2.84792
2.53378
2.25713
2.14959
2.1975
2.27789
2.23134
2.26175
2.27976
2.04903
1.80202
1.68669
1.6954
1.73071
1.66468
1.65594
1.63811
1.43032
1.20088
1.02255
0.783371
0.542178
0.337656
0.144145
-0.0732931
-0.361123
-0.712923
-1.09061
-1.43949
-1.85514
-2.35694
-2.7993
-3.38216
-4.29058
-5.66196
-7.26859
-8.77231
-10.7755
-12.0711
-10.1938
-6.68262
-4.11002
-2.54468
-1.59241
-0.972728
-0.527806
-0.167505
1.05384
2.61074
3.83826
4.69934
4.46285
4.12966
4.06828
3.59776
3.17331
3.07138
3.26482
3.51902
3.45547
3.6269
3.82916
3.44947
3.0828
2.94411
2.56827
2.23858
2.13087
2.22277
2.35387
2.27148
2.33254
2.40695
2.10783
1.80306
1.68231
1.72383
1.79914
1.70564
1.72131
1.74981
1.49757
1.24001
1.07902
0.819757
0.562782
0.362874
0.180884
-0.0240719
-0.317363
-0.687355
-1.08447
-1.41545
-1.83224
-2.36919
-2.76271
-3.30635
-4.22894
-5.75125
-7.56444
-9.12456
-11.6555
-13.638
-11.2403
-6.78237
-3.91051
-2.32732
-1.42422
-0.859311
-0.463217
-0.146587
1.24646
2.89147
4.21548
5.25151
4.75414
4.27606
4.31165
3.69459
3.15643
3.04715
3.3175
3.67362
3.50625
3.74311
4.08914
3.5623
3.11784
3.05705
2.59716
2.20122
2.09533
2.24349
2.44542
2.29718
2.39904
2.56158
2.16453
1.78777
1.66379
1.74805
1.87952
1.73516
1.78268
1.88142
1.56233
1.26889
1.14171
0.854361
0.577443
0.3854
0.21804
0.0308016
-0.268737
-0.660503
-1.08443
-1.38487
-1.79972
-2.39359
-2.71446
-3.20036
-4.11696
-5.81092
-7.86972
-9.37558
-12.5455
-15.5236
-12.4233
-6.73753
-3.60578
-2.05934
-1.23348
-0.73593
-0.394426
-0.12451
1.49921
3.18588
4.59947
5.9035
5.03113
4.37452
4.59714
3.78082
3.10562
2.99329
3.36093
3.8638
3.52213
3.8454
4.40832
3.66352
3.12032
3.19731
2.6196
2.14203
2.04081
2.25897
2.5613
2.30155
2.4577
2.75465
2.21707
1.7527
1.62927
1.76741
1.97871
1.74789
1.83721
2.04105
1.62218
1.28306
1.21464
0.886622
0.584605
0.404941
0.25517
0.0923474
-0.214783
-0.63222
-1.09437
-1.34638
-1.75415
-2.439
-2.65497
-3.06418
-3.94704
-5.83849
-8.20636
-9.48108
-13.4121
-17.8182
-13.7635
-6.48816
-3.18621
-1.74482
-1.02454
-0.605328
-0.322857
-0.101708
1.83788
3.4876
4.97477
6.68789
5.28005
4.40367
4.94695
3.85283
3.01542
2.90631
3.39248
4.1081
3.48816
3.9255
4.8102
3.74541
3.07684
3.37983
2.63365
2.0576
1.96507
2.26758
2.71371
2.275
2.50338
3.00092
2.26186
1.69395
1.57694
1.78056
2.10629
1.73641
1.88088
2.23971
1.6735
1.27662
1.30358
0.915569
0.582414
0.421409
0.291632
0.161861
-0.155038
-0.601861
-1.11941
-1.29804
-1.69009
-2.5171
-2.58381
-2.89894
-3.70997
-5.82962
-8.60909
-9.38558
-14.2057
-20.638
-15.2832
-5.95593
-2.64744
-1.39074
-0.802482
-0.470328
-0.249883
-0.078593
2.29872
3.78711
5.31838
7.64896
5.48216
4.33557
5.39216
3.90433
2.87992
2.78288
3.40714
4.43201
3.3842
3.97184
5.3263
3.79691
2.96957
3.6253
2.63557
1.94416
1.86594
2.26612
2.91931
2.20454
2.52883
3.31996
2.29305
1.60727
1.50526
1.78492
2.27535
1.69069
1.90814
2.4922
1.71111
1.24181
1.41672
0.939567
0.56869
0.435038
0.326486
0.240974
-0.0891255
-0.568041
-1.16624
-1.23737
-1.59943
-2.64318
-2.49897
-2.7074
-3.3948
-5.77654
-9.12962
-9.02087
-14.8556
-24.1314
-17.005
-5.04007
-1.99351
-1.00696
-0.572819
-0.333679
-0.176777
-0.0555348
2.9316
4.07087
5.59753
8.84605
5.61235
4.13424
5.9752
3.92493
2.69301
2.62026
3.39639
4.8699
3.18367
3.96874
5.99811
3.80274
2.77529
3.96174
2.61895
1.79776
1.74158
2.24912
3.20054
2.07294
2.52427
3.73736
2.30171
1.48826
1.41316
1.77612
2.50354
1.5974
1.91152
2.81801
1.72779
1.16872
1.56525
0.955976
0.54091
0.446508
0.358377
0.331733
-0.0169013
-0.528316
-1.2436
-1.16137
-1.47059
-2.83721
-2.39605
-2.49462
-2.98866
-5.66571
-9.8414
-8.30468
-15.2643
-28.4859
-18.9506
-3.6129
-1.24082
-0.605809
-0.341144
-0.197923
-0.104663
-0.0328557
3.80387
4.32031
5.76714
10.3572
5.63759
3.75407
6.75272
3.89835
2.44874
2.41676
3.34669
5.46729
2.85221
3.89542
6.87935
3.74227
2.46433
4.42644
2.57353
1.61449
1.5908
2.2078
3.58707
1.85788
2.4768
4.28615
2.27471
1.33268
1.30038
1.74715
2.81416
1.43924
1.88125
3.24241
1.7137
1.04482
1.76418
0.960726
0.49623
0.457108
0.38538
0.436708
0.0613601
-0.47879
-1.36264
-1.06654
-1.2876
-3.12496
-2.26713
-2.2688
-2.47687
-5.47501
-10.845
-7.13948
-15.3011
-33.9366
-21.1392
-1.51515
-0.422852
-0.201266
-0.112736
-0.0652795
-0.0344905
-0.0108235
)
;

boundaryField
{
    left
    {
        type            calculated;
        value           uniform 0;
    }
    right
    {
        type            calculated;
        value           uniform 0;
    }
    interface
    {
        type            calculated;
        value           nonuniform List<scalar> 
64
(
3.80387
4.32031
5.76714
10.3572
5.63759
3.75407
6.75272
3.89835
2.44874
2.41676
3.34669
5.46729
2.85221
3.89542
6.87935
3.74227
2.46433
4.42644
2.57353
1.61449
1.5908
2.2078
3.58707
1.85788
2.4768
4.28615
2.27471
1.33268
1.30038
1.74715
2.81416
1.43924
1.88125
3.24241
1.7137
1.04482
1.76418
0.960726
0.49623
0.457108
0.38538
0.436708
0.0613601
-0.47879
-1.36264
-1.06654
-1.2876
-3.12496
-2.26713
-2.2688
-2.47687
-5.47501
-10.845
-7.13948
-15.3011
-33.9366
-21.1392
-1.51515
-0.422852
-0.201266
-0.112736
-0.0652795
-0.0344905
-0.0108235
)
;
    }
    bottom
    {
        type            calculated;
        value           nonuniform List<scalar> 
64
(
0.00630492
0.0187341
0.0306382
0.0417194
0.0517488
0.0605771
0.0681339
0.074417
0.079476
0.0833939
0.0862704
0.0882098
0.0893141
0.0896802
0.0894005
0.0885641
0.0872579
0.0855653
0.0835643
0.0813233
0.078898
0.0763292
0.0736417
0.0708457
0.0679388
0.0649091
0.0617369
0.0583967
0.0548576
0.0510837
0.0470347
0.0426669
0.0379353
0.0327951
0.0272045
0.021126
0.0145272
0.00738207
-0.000329034
-0.00861775
-0.0174856
-0.0269203
-0.0368905
-0.0473387
-0.0581734
-0.0692599
-0.080411
-0.0913795
-0.101854
-0.111463
-0.119781
-0.126358
-0.130752
-0.132569
-0.131511
-0.127415
-0.120277
-0.110247
-0.0976151
-0.0827648
-0.0661294
-0.0481501
-0.0292469
-0.00980738
)
;
    }
    defaultFaces
    {
        type            empty;
    }
}


// ************************************************************************* //
