/*--------------------------------*- C++ -*----------------------------------*\
| =========                 |                                                 |
| \\      /  F ield         | OpenFOAM: The Open Source CFD Toolbox           |
|  \\    /   O peration     | Version:  5.x                                   |
|   \\  /    A nd           | Web:      www.OpenFOAM.org                      |
|    \\/     M anipulation  |                                                 |
\*---------------------------------------------------------------------------*/
FoamFile
{
    version     2.0;
    format      ascii;
    class       volScalarField;
    location    "3.3";
    object      gradTy;
}
// * * * * * * * * * * * * * * * * * * * * * * * * * * * * * * * * * * * * * //

dimensions      [0 -1 0 1 0 0 0];

internalField   nonuniform List<scalar> 
3200
(
18.2261
8.62263
11.7131
8.30069
9.73561
8.02965
8.78177
7.78419
8.23125
7.59364
7.86757
7.51089
7.71999
7.31245
7.52323
7.13572
7.33349
6.97744
7.15797
6.83619
6.99849
6.71125
6.85554
6.60167
6.72911
6.50582
6.6197
6.42059
6.53536
6.36647
6.23129
6.31845
6.19986
6.25757
6.16528
6.20999
6.13588
6.17185
6.11162
6.14087
6.09173
6.11557
6.07553
6.09489
6.06248
6.07799
6.05227
6.06426
6.04496
6.05323
6.042
6.04824
6.03646
6.04196
6.0328
6.03653
6.03142
6.03254
6.03308
6.03045
6.03917
6.03081
6.05224
6.03435
6.07731
6.04135
6.1253
6.04707
6.22196
5.99977
6.29194
7.10613
6.42017
7.94309
6.77823
9.88816
9.11896
9.00132
8.97704
8.97181
16.9877
9.73737
11.316
8.76396
9.53328
8.25926
8.66193
7.9162
8.15442
7.67737
7.82364
7.5574
7.66884
7.36352
7.47487
7.18458
7.28915
7.02246
7.11794
6.87694
6.96279
6.74766
6.824
6.63387
6.70133
6.53413
6.59458
6.44566
6.50789
6.3702
6.25613
6.30403
6.21545
6.24622
6.17714
6.20085
6.14536
6.16442
6.11931
6.1348
6.09801
6.11063
6.08064
6.09089
6.06662
6.07483
6.05557
6.06191
6.04746
6.05185
6.04346
6.04678
6.03795
6.04084
6.03398
6.03594
6.03211
6.03269
6.03308
6.03167
6.03818
6.03371
6.04972
6.04015
6.07223
6.05288
6.11546
6.07265
6.20215
6.07507
6.35028
6.99104
6.6216
7.76081
7.15497
9.49559
9.09289
8.99759
8.97627
8.9716
16.0393
10.4989
11.0841
9.09435
9.41266
8.42179
8.58802
8.00883
8.10619
7.73616
7.79619
7.58879
7.63434
7.39792
7.44257
7.21765
7.25965
7.05298
7.09137
6.9046
6.93913
6.7724
6.80312
6.65577
6.68294
6.55333
6.57783
6.46229
6.48841
6.37297
6.27449
6.29506
6.22627
6.23886
6.18529
6.19488
6.15186
6.15955
6.12458
6.13083
6.10231
6.10739
6.08415
6.08828
6.06946
6.07277
6.05784
6.06039
6.04919
6.05098
6.04445
6.0458
6.03897
6.04012
6.03481
6.03559
6.03262
6.03284
6.03316
6.03256
6.03763
6.03578
6.04823
6.04428
6.06921
6.06114
6.10983
6.09132
6.19259
6.13428
6.39399
6.91635
6.76269
7.64833
7.41384
9.21276
9.05453
8.99089
8.97484
8.9712
15.3125
11.0155
10.9553
9.33242
9.34442
8.53803
8.54392
8.07441
8.07666
7.77774
7.77944
7.61006
7.61112
7.42108
7.42105
7.24003
7.2401
7.07371
7.07381
6.92341
6.92352
6.78925
6.78936
6.67068
6.67081
6.56637
6.56668
6.47326
6.4746
6.37506
6.28809
6.28966
6.23384
6.23415
6.19092
6.19101
6.15633
6.15639
6.12821
6.12824
6.10526
6.10529
6.08656
6.08658
6.07142
6.07144
6.05941
6.05942
6.05041
6.05044
6.04512
6.04515
6.03966
6.03965
6.03539
6.03538
6.033
6.03299
6.03326
6.03323
6.03735
6.03729
6.04739
6.04725
6.06751
6.06712
6.1069
6.10521
6.18942
6.18077
6.4272
6.86871
6.8622
7.58066
7.59137
9.00821
9.01238
8.98229
8.97291
8.97065
14.7575
11.3626
10.8889
9.5051
9.30891
8.62179
8.51884
8.12112
8.05918
7.8073
7.76953
7.62452
7.59555
7.43664
7.40677
7.25518
7.22721
7.08777
7.06227
6.9362
6.91329
6.80072
6.78036
6.68084
6.66287
6.57522
6.55928
6.48043
6.46482
6.37666
6.29815
6.28656
6.23916
6.23117
6.19481
6.18854
6.15941
6.15435
6.1307
6.12658
6.10729
6.10393
6.08822
6.08549
6.07278
6.07059
6.06051
6.05881
6.05127
6.05011
6.04559
6.04472
6.04014
6.03936
6.0358
6.03526
6.03329
6.03312
6.03338
6.03374
6.03724
6.03839
6.04696
6.04941
6.06664
6.07149
6.10562
6.11566
6.18997
6.21705
6.45261
6.83898
6.93271
7.5413
7.71267
8.86018
8.9716
8.97286
8.9707
8.97001
14.3384
11.5928
10.859
9.63028
9.29305
8.68219
8.50556
8.15441
8.0493
7.8283
7.76392
7.63435
7.58518
7.44704
7.39737
7.26538
7.21878
7.09728
7.05475
6.94487
6.90664
6.80851
6.77452
6.68774
6.65772
6.5812
6.5544
6.48508
6.45795
6.37787
6.30553
6.2849
6.2429
6.22934
6.1975
6.18698
6.16154
6.15306
6.13242
6.12553
6.10869
6.10308
6.08936
6.0848
6.07371
6.07005
6.06126
6.05844
6.05187
6.04993
6.0459
6.04443
6.04047
6.03918
6.03609
6.03521
6.03351
6.03324
6.0335
6.03412
6.03723
6.03919
6.04677
6.05097
6.06627
6.07469
6.1053
6.12354
6.1924
6.245
6.47199
6.82096
6.98263
7.51943
7.79491
8.75358
8.93523
8.96356
8.96843
8.96935
14.0292
11.7426
10.8488
9.7198
9.28814
8.72522
8.49926
8.17785
8.04406
7.84304
7.76092
7.64095
7.57837
7.4539
7.39126
7.27217
7.21335
7.10363
7.04993
6.95068
6.90239
6.81373
6.7708
6.69237
6.65443
6.5852
6.55122
6.48804
6.4532
6.37877
6.31084
6.28409
6.24551
6.22823
6.19934
6.18601
6.16298
6.15226
6.13358
6.12487
6.10964
6.10254
6.09014
6.08437
6.07434
6.06972
6.06178
6.05822
6.05229
6.04982
6.04611
6.04425
6.04069
6.03906
6.03629
6.03519
6.03367
6.03334
6.0336
6.0344
6.03726
6.03977
6.04672
6.05209
6.06616
6.07701
6.10548
6.1294
6.19549
6.26597
6.48648
6.81044
7.01755
7.50801
7.84983
8.67807
8.905
8.95521
8.96632
8.96873
13.8113
11.8366
10.8481
9.78144
9.28848
8.75477
8.49679
8.1938
8.04151
7.85302
7.75944
7.64527
7.57403
7.45829
7.38741
7.27654
7.20996
7.10775
7.04693
6.95444
6.89975
6.81713
6.7685
6.69538
6.6524
6.58779
6.54921
6.48986
6.45003
6.37941
6.31451
6.28376
6.24727
6.2276
6.20056
6.18544
6.16393
6.15178
6.13435
6.12447
6.11026
6.10222
6.09065
6.08412
6.07476
6.06953
6.06212
6.05809
6.05257
6.04976
6.04625
6.04414
6.04084
6.039
6.03643
6.03518
6.03378
6.03342
6.03369
6.0346
6.0373
6.04017
6.04673
6.05287
6.06619
6.07862
6.10584
6.13357
6.19839
6.28094
6.49684
6.80458
7.04113
7.50254
7.8853
8.6266
8.88183
8.94842
8.96455
8.9682
13.6725
11.8912
10.8505
9.82013
9.29046
8.7733
8.49611
8.20372
8.04041
7.85922
7.75878
7.64787
7.57148
7.46089
7.38516
7.27915
7.20799
7.11021
7.0452
6.9567
6.89824
6.81916
6.76717
6.69719
6.65122
6.58933
6.54804
6.49091
6.44809
6.37982
6.31682
6.28365
6.24836
6.22725
6.2013
6.18512
6.1645
6.15151
6.13481
6.12425
6.11064
6.10204
6.09096
6.08397
6.07501
6.06942
6.06233
6.05802
6.05274
6.04974
6.04634
6.04407
6.04093
6.03896
6.03651
6.03518
6.03386
6.03347
6.03374
6.03472
6.03735
6.04042
6.04676
6.05336
6.06626
6.07964
6.10618
6.13626
6.20059
6.29058
6.50352
6.80158
7.05572
7.50021
7.90642
8.59459
8.86621
8.94365
8.96329
8.96782
13.605
11.9162
10.8525
9.8388
9.29194
8.78224
8.49605
8.20848
8.04003
7.86218
7.75855
7.6491
7.5703
7.4621
7.38413
7.28037
7.20709
7.11136
7.04441
6.95776
6.89755
6.82012
6.76657
6.69803
6.65069
6.59005
6.54749
6.49138
6.44717
6.38002
6.31793
6.28363
6.24887
6.22711
6.20165
6.18497
6.16478
6.15139
6.13503
6.12415
6.11082
6.10196
6.0911
6.08391
6.07513
6.06937
6.06243
6.05799
6.05282
6.04973
6.04638
6.04404
6.04097
6.03895
6.03655
6.03519
6.03389
6.0335
6.03377
6.03479
6.03737
6.04054
6.04679
6.05359
6.0663
6.08014
6.10638
6.13758
6.20177
6.2953
6.5068
6.80033
7.06269
7.49941
7.91626
8.57923
8.85836
8.94119
8.96263
8.96762
-13.6678
-11.8655
-10.6383
-9.30076
-8.49119
-7.60014
-7.03873
-6.38758
-5.97312
-5.49185
-5.19899
-4.87415
-4.63721
-4.30975
-4.07492
-3.76448
-3.54764
-3.26786
-3.07469
-2.82808
-2.65869
-2.44344
-2.29584
-2.10853
-1.97975
-1.81552
-1.70028
-1.54819
-1.42746
-1.24263
-1.06978
-0.97292
-0.872592
-0.808646
-0.732342
-0.681507
-0.618733
-0.576437
-0.523724
-0.488095
-0.443578
-0.413483
-0.375894
-0.350547
-0.318997
-0.297889
-0.271899
-0.254904
-0.23463
-0.222146
-0.208111
-0.197806
-0.183494
-0.173214
-0.159606
-0.150104
-0.137853
-0.129412
-0.118666
-0.111325
-0.102067
-0.0958271
-0.0881009
-0.0831387
-0.0774587
-0.0747594
-0.0736314
-0.0778177
-0.0932315
-0.128378
-0.220838
-0.369805
-0.526587
-0.816332
-1.12177
-1.63499
-1.85208
-1.91659
-1.93329
-1.93717
-13.7399
-11.8425
-10.6428
-9.27966
-8.49447
-7.58697
-7.04234
-6.37813
-5.9758
-5.48432
-5.20029
-4.87065
-4.64085
-4.30606
-4.07796
-3.76075
-3.55017
-3.26441
-3.07685
-2.82501
-2.66053
-2.44075
-2.29745
-2.1062
-1.98118
-1.81357
-1.70177
-1.54695
-1.43003
-1.24216
-1.06675
-0.973068
-0.871146
-0.809149
-0.731332
-0.681993
-0.617922
-0.576862
-0.523048
-0.488458
-0.443007
-0.41379
-0.375411
-0.3508
-0.318585
-0.29809
-0.271544
-0.25504
-0.234323
-0.222213
-0.207966
-0.19797
-0.183336
-0.173351
-0.159445
-0.150217
-0.137703
-0.129507
-0.118532
-0.111405
-0.101949
-0.0958888
-0.0879925
-0.0831694
-0.0773414
-0.0746982
-0.0734204
-0.0773701
-0.0924434
-0.126087
-0.218578
-0.369493
-0.521269
-0.815703
-1.11346
-1.64684
-1.85818
-1.9185
-1.9338
-1.93733
-13.8879
-11.7916
-10.6538
-9.23545
-8.50265
-7.5593
-7.05074
-6.35822
-5.98208
-5.46852
-5.20342
-4.86318
-4.6487
-4.29812
-4.08458
-3.75278
-3.55573
-3.25705
-3.08158
-2.81845
-2.66461
-2.43501
-2.30098
-2.10123
-1.98433
-1.80941
-1.70499
-1.5442
-1.43546
-1.2412
-1.06047
-0.973555
-0.868112
-0.810294
-0.729192
-0.683076
-0.616198
-0.577804
-0.521611
-0.489262
-0.441795
-0.414469
-0.374383
-0.351365
-0.31771
-0.298538
-0.270793
-0.255349
-0.233677
-0.222369
-0.207655
-0.198325
-0.182997
-0.173648
-0.159101
-0.150466
-0.137385
-0.129717
-0.118248
-0.11158
-0.101697
-0.0960266
-0.0877634
-0.0832424
-0.0770986
-0.0745843
-0.0730019
-0.0764789
-0.0909138
-0.121443
-0.213982
-0.369146
-0.510244
-0.814941
-1.09572
-1.67156
-1.87032
-1.92221
-1.93478
-1.93762
-14.1198
-11.7024
-10.676
-9.16385
-8.51928
-7.51426
-7.06653
-6.32568
-5.99386
-5.4428
-5.20958
-4.85069
-4.66201
-4.28471
-4.09595
-3.73942
-3.56537
-3.24478
-3.08984
-2.80754
-2.67173
-2.42546
-2.30716
-2.09297
-1.98981
-1.80243
-1.71047
-1.53938
-1.44432
-1.23972
-1.05044
-0.974795
-0.863184
-0.812381
-0.725661
-0.685
-0.613344
-0.579467
-0.519227
-0.490679
-0.439784
-0.415666
-0.372679
-0.352361
-0.316262
-0.299335
-0.269556
-0.255913
-0.232621
-0.222667
-0.207134
-0.198923
-0.182423
-0.174158
-0.158524
-0.150896
-0.136853
-0.130082
-0.117775
-0.111887
-0.10128
-0.0962706
-0.0873871
-0.0833827
-0.0767126
-0.074435
-0.0723828
-0.075151
-0.0887418
-0.114319
-0.206882
-0.369363
-0.492674
-0.815135
-1.06618
-1.71137
-1.88834
-1.92749
-1.93615
-1.93802
-14.4484
-11.5576
-10.7177
-9.05756
-8.55035
-7.44695
-7.09406
-6.27679
-6.01444
-5.40438
-5.22079
-4.8314
-4.68289
-4.26378
-4.11404
-3.71879
-3.58088
-3.22589
-3.10321
-2.79079
-2.68328
-2.41081
-2.31718
-2.08027
-1.99868
-1.79166
-1.71914
-1.53154
-1.45757
-1.23763
-1.03587
-0.977484
-0.855834
-0.815914
-0.720298
-0.688172
-0.608988
-0.582193
-0.515585
-0.492997
-0.436709
-0.417625
-0.370075
-0.353995
-0.314053
-0.300652
-0.267678
-0.256869
-0.231037
-0.223193
-0.206324
-0.199858
-0.181524
-0.174966
-0.157631
-0.151586
-0.136034
-0.130672
-0.117048
-0.112385
-0.100642
-0.0966721
-0.086818
-0.0836317
-0.0761531
-0.0742785
-0.0715726
-0.0733918
-0.0860916
-0.104517
-0.196986
-0.371146
-0.467139
-0.818185
-1.02087
-1.7699
-1.91186
-1.93398
-1.93778
-1.9385
-14.8926
-11.3308
-10.7922
-8.90517
-8.60528
-7.34964
-7.14018
-6.20572
-6.04893
-5.34893
-5.24024
-4.80251
-4.71461
-4.23209
-4.14198
-3.68788
-3.60509
-3.19773
-3.12419
-2.76585
-2.70145
-2.38902
-2.33296
-2.06138
-2.01258
-1.77551
-1.73242
-1.51916
-1.47667
-1.23483
-1.01559
-0.982714
-0.845225
-0.821685
-0.712404
-0.693236
-0.602544
-0.586519
-0.510189
-0.496672
-0.432154
-0.420729
-0.366219
-0.356589
-0.310789
-0.302757
-0.26492
-0.25843
-0.228738
-0.224084
-0.205104
-0.201272
-0.180159
-0.17621
-0.15629
-0.15266
-0.134811
-0.131595
-0.115965
-0.11317
-0.099695
-0.0973116
-0.0859845
-0.0840547
-0.0753714
-0.0741572
-0.0705831
-0.0711988
-0.0832138
-0.0917544
-0.183822
-0.376056
-0.431401
-0.827169
-0.953709
-1.85271
-1.94017
-1.94121
-1.93954
-1.939
-15.4793
-10.983
-10.9207
-8.68932
-8.69846
-7.21049
-7.21531
-6.10356
-6.10518
-5.26983
-5.27287
-4.75963
-4.76213
-4.18472
-4.18448
-3.64213
-3.64231
-3.15623
-3.15657
-2.72918
-2.72955
-2.35699
-2.35737
-2.0336
-2.03402
-1.75162
-1.75252
-1.49997
-1.50376
-1.23113
-0.987857
-0.992139
-0.830067
-0.830895
-0.700916
-0.701169
-0.593123
-0.593266
-0.502289
-0.502393
-0.425482
-0.425564
-0.360574
-0.360637
-0.30602
-0.306061
-0.260913
-0.260925
-0.225443
-0.225554
-0.203281
-0.203382
-0.17811
-0.178097
-0.154302
-0.154307
-0.133006
-0.133018
-0.114373
-0.114385
-0.0983074
-0.0983113
-0.0847775
-0.08475
-0.0742929
-0.0741322
-0.0694277
-0.0685515
-0.0804763
-0.0756518
-0.166653
-0.386442
-0.382046
-0.84692
-0.855646
-1.96798
-1.97194
-1.94854
-1.94124
-1.93948
-16.2459
-10.458
-11.1359
-8.38386
-8.85154
-7.01166
-7.33513
-5.95689
-6.19492
-5.15722
-5.32618
-4.69614
-4.83286
-4.11428
-4.24869
-3.5747
-3.69898
-3.09529
-3.20608
-2.6754
-2.77259
-2.31006
-2.39475
-1.99286
-2.06678
-1.71642
-1.78277
-1.47053
-1.54192
-1.22627
-0.950235
-1.00823
-0.808404
-0.845347
-0.684227
-0.713444
-0.579382
-0.603666
-0.490753
-0.511203
-0.415737
-0.433008
-0.352334
-0.366878
-0.29907
-0.311178
-0.255105
-0.264845
-0.220728
-0.227924
-0.200569
-0.206511
-0.175056
-0.180939
-0.151365
-0.15681
-0.130351
-0.135191
-0.112037
-0.116246
-0.0962792
-0.0998551
-0.0830325
-0.0858647
-0.0728046
-0.0742908
-0.0681208
-0.0653936
-0.0784101
-0.0557174
-0.144334
-0.405795
-0.31392
-0.884917
-0.713438
-2.12758
-2.0048
-1.95523
-1.94273
-1.93989
-17.2441
-9.67426
-11.4884
-7.94964
-9.09694
-6.72631
-7.52304
-5.74558
-6.33571
-4.99636
-5.41145
-4.602
-4.93782
-4.00974
-4.34526
-3.47535
-3.7848
-3.00579
-3.28126
-2.59653
-2.83803
-2.24125
-2.45162
-1.9331
-2.11654
-1.66455
-1.82818
-1.42576
-1.59557
-1.21984
-0.899261
-1.03464
-0.77728
-0.867731
-0.659933
-0.732258
-0.559316
-0.619562
-0.473891
-0.524657
-0.40149
-0.444377
-0.340291
-0.37642
-0.28893
-0.319027
-0.24667
-0.270924
-0.213967
-0.23168
-0.196529
-0.211141
-0.170512
-0.185203
-0.147031
-0.160592
-0.126449
-0.138487
-0.108609
-0.119078
-0.0933118
-0.102217
-0.0805037
-0.0876173
-0.0707363
-0.0747575
-0.0666779
-0.0616076
-0.0777735
-0.0313318
-0.115101
-0.439282
-0.219279
-0.952613
-0.507803
-2.34866
-2.03474
-1.96043
-1.94382
-1.94018
-18.545
-8.51514
-12.0549
-7.3279
-9.483
-6.31419
-7.81385
-5.43951
-6.55362
-4.76526
-5.54565
-4.46199
-5.09327
-3.85459
-4.48997
-3.32877
-3.91409
-2.87404
-3.39479
-2.48055
-2.93694
-2.14011
-2.53759
-1.84521
-2.19166
-1.58802
-1.89618
-1.35806
-1.671
-1.21117
-0.83001
-1.07672
-0.732206
-0.902009
-0.624401
-0.76085
-0.529891
-0.643665
-0.449142
-0.545041
-0.380575
-0.4616
-0.322616
-0.390883
-0.274064
-0.330954
-0.234351
-0.280232
-0.2042
-0.237533
-0.190482
-0.217964
-0.163741
-0.191567
-0.140614
-0.166269
-0.120686
-0.143448
-0.103557
-0.123348
-0.0889478
-0.105795
-0.0768131
-0.0903214
-0.0678247
-0.0757011
-0.0651084
-0.0569662
-0.0796364
-0.00173323
-0.0762483
-0.494536
-0.0865048
-1.06744
-0.210745
-2.65594
-2.05509
-1.96334
-1.94441
-1.94034
18.545
8.51515
12.0549
7.32791
9.48301
6.3142
7.81386
5.43951
6.55362
4.76526
5.54566
4.46199
5.09328
3.8546
4.48998
3.32877
3.91409
2.87405
3.3948
2.48055
2.93694
2.14011
2.53759
1.84521
2.19166
1.58802
1.89618
1.35806
1.671
1.21117
0.830007
1.07672
0.732204
0.902009
0.624399
0.76085
0.529889
0.643664
0.44914
0.54504
0.380573
0.461599
0.322614
0.390883
0.274062
0.330954
0.23435
0.280232
0.204199
0.237533
0.190481
0.217964
0.16374
0.191568
0.140614
0.16627
0.120686
0.143449
0.103557
0.123348
0.0889476
0.105796
0.0768129
0.0903223
0.0678242
0.0757022
0.0651071
0.0569683
0.0796322
0.00174079
0.0762428
0.494481
0.0864948
1.06733
0.210711
2.65571
2.05491
1.96316
1.94424
1.94017
17.2441
9.67429
11.4884
7.94966
9.09697
6.72633
7.52307
5.74561
6.33574
4.99638
5.41148
4.60202
4.93784
4.00976
4.34527
3.47537
3.78482
3.0058
3.28128
2.59655
2.83804
2.24127
2.45163
1.93311
2.11655
1.66457
1.82819
1.42578
1.59558
1.21985
0.899269
1.03465
0.777287
0.867739
0.65994
0.732266
0.559322
0.619569
0.473896
0.524664
0.401495
0.444383
0.340296
0.376425
0.288934
0.319032
0.246674
0.270928
0.21397
0.231684
0.196533
0.211145
0.170516
0.185207
0.147035
0.160596
0.126452
0.138491
0.108612
0.119081
0.0933141
0.10222
0.0805056
0.0876198
0.0707378
0.0747597
0.0666783
0.0616098
0.077771
0.0313359
0.115091
0.439234
0.219255
0.952513
0.507743
2.34845
2.03455
1.96026
1.94365
1.94001
16.246
10.458
11.136
8.3839
8.85158
7.0117
7.33517
5.95693
6.19496
5.15725
5.32621
4.69617
4.83289
4.11431
4.24872
3.57473
3.69901
3.09532
3.20611
2.67543
2.77261
2.31008
2.39478
1.99288
2.06681
1.71644
1.78279
1.47055
1.54194
1.22629
0.95025
1.00824
0.808418
0.845362
0.68424
0.713457
0.579394
0.603679
0.490764
0.511215
0.415747
0.433019
0.352343
0.366888
0.299078
0.311186
0.255113
0.264853
0.220736
0.227931
0.200576
0.206519
0.175063
0.180946
0.151371
0.156816
0.130357
0.135197
0.112042
0.116251
0.0962835
0.0998596
0.0830363
0.0858686
0.0728076
0.0742941
0.0681227
0.0653962
0.0784088
0.055719
0.144322
0.405752
0.313886
0.884825
0.71336
2.12739
2.00462
1.95506
1.94255
1.93972
15.4794
10.9831
10.9207
8.68936
8.6985
7.21054
7.21536
6.1036
6.10522
5.26987
5.27291
4.75967
4.76216
4.18476
4.18452
3.64216
3.64234
3.15626
3.1566
2.72921
2.72958
2.35702
2.35739
2.03362
2.03404
1.75165
1.75254
1.49999
1.50378
1.23115
0.987876
0.992158
0.830085
0.830912
0.700931
0.701185
0.593137
0.593281
0.502302
0.502407
0.425494
0.425576
0.360585
0.360648
0.30603
0.306071
0.260923
0.260934
0.225451
0.225563
0.20329
0.20339
0.178118
0.178105
0.154309
0.154314
0.133012
0.133025
0.114379
0.114391
0.0983125
0.0983164
0.0847819
0.0847544
0.0742966
0.0741358
0.0694301
0.0685539
0.0804754
0.0756512
0.16664
0.386401
0.382006
0.846832
0.855557
1.9678
1.97176
1.94837
1.94107
1.93931
14.8926
11.3308
10.7922
8.90522
8.60532
7.34968
7.14022
6.20576
6.04898
5.34897
5.24028
4.80254
4.71464
4.23213
4.14201
3.68791
3.60513
3.19776
3.12422
2.76589
2.70148
2.38905
2.33299
2.06141
2.0126
1.77554
1.73245
1.51919
1.47669
1.23485
1.01561
0.982734
0.845243
0.821703
0.712421
0.693252
0.60256
0.586534
0.510203
0.496686
0.432167
0.420742
0.366231
0.356601
0.3108
0.302768
0.26493
0.25844
0.228747
0.224093
0.205112
0.201281
0.180167
0.176218
0.156298
0.152668
0.134818
0.131602
0.115972
0.113176
0.0997005
0.0973169
0.0859893
0.0840593
0.0753753
0.0741609
0.0705857
0.071201
0.0832129
0.091752
0.183807
0.376017
0.431356
0.827083
0.953613
1.85254
1.94
1.94104
1.93936
1.93883
14.4484
11.5576
10.7177
9.0576
8.55039
7.447
7.0941
6.27683
6.01448
5.40442
5.22083
4.83144
4.68293
4.26382
4.11408
3.71883
3.58091
3.22592
3.10325
2.79082
2.68331
2.41084
2.31721
2.0803
1.99871
1.79168
1.71916
1.53156
1.45759
1.23765
1.0359
0.977504
0.855853
0.815932
0.720315
0.688189
0.609004
0.582208
0.515599
0.493012
0.436723
0.417638
0.370087
0.354006
0.314064
0.300662
0.267689
0.256879
0.231046
0.223202
0.206333
0.199867
0.181533
0.174975
0.157639
0.151594
0.136041
0.130678
0.117054
0.112392
0.100647
0.0966775
0.0868229
0.0836364
0.0761572
0.0742822
0.0715753
0.0733937
0.0860907
0.104513
0.196969
0.371108
0.467091
0.818102
1.02077
1.76973
1.91169
1.93381
1.9376
1.93832
14.1198
11.7024
10.6761
9.16389
8.51933
7.51431
7.06657
6.32572
5.9939
5.44284
5.20962
4.85072
4.66205
4.28475
4.09598
3.73946
3.5654
3.24481
3.08988
2.80758
2.67176
2.42549
2.30719
2.093
1.98984
1.80246
1.7105
1.53941
1.44434
1.23974
1.05046
0.974815
0.863203
0.812399
0.725678
0.685017
0.61336
0.579482
0.519242
0.490693
0.439797
0.415679
0.372691
0.352373
0.316273
0.299346
0.269566
0.255923
0.23263
0.222676
0.207143
0.198932
0.182432
0.174166
0.158532
0.150903
0.13686
0.130089
0.117781
0.111893
0.101286
0.096276
0.0873921
0.0833873
0.0767168
0.0744387
0.0723856
0.0751527
0.0887406
0.114314
0.206865
0.369326
0.492624
0.815053
1.06608
1.71121
1.88816
1.92731
1.93597
1.93784
13.8879
11.7916
10.6538
9.2355
8.5027
7.55934
7.05079
6.35826
5.98212
5.46856
5.20346
4.86321
4.64874
4.29815
4.08462
3.75281
3.55576
3.25708
3.08161
2.81849
2.66464
2.43504
2.30101
2.10126
1.98436
1.80943
1.70501
1.54422
1.43548
1.24122
1.06049
0.973575
0.868131
0.810312
0.729208
0.683093
0.616214
0.577819
0.521625
0.489276
0.441808
0.414482
0.374395
0.351376
0.317721
0.298548
0.270803
0.255359
0.233686
0.222378
0.207664
0.198333
0.183006
0.173656
0.159108
0.150473
0.137392
0.129724
0.118254
0.111586
0.101703
0.0960319
0.0877683
0.0832471
0.0771027
0.0745879
0.0730046
0.0764805
0.0909125
0.121437
0.213965
0.36911
0.510192
0.81486
1.09562
1.67141
1.87015
1.92203
1.9346
1.93744
13.7399
11.8425
10.6428
9.2797
8.49451
7.58701
7.04238
6.37817
5.97584
5.48436
5.20032
4.87069
4.64088
4.30609
4.07799
3.76079
3.55021
3.26444
3.07688
2.82504
2.66056
2.44077
2.29747
2.10622
1.98121
1.8136
1.70179
1.54697
1.43005
1.24218
1.06677
0.973086
0.871163
0.809166
0.731348
0.682008
0.617936
0.576876
0.523062
0.488471
0.44302
0.413802
0.375422
0.350811
0.318596
0.2981
0.271554
0.255049
0.234332
0.222221
0.207974
0.197979
0.183344
0.173358
0.159452
0.150225
0.13771
0.129514
0.118538
0.111411
0.101954
0.095894
0.0879973
0.0831739
0.0773454
0.0747017
0.073423
0.0773714
0.092442
0.126081
0.21856
0.369457
0.521217
0.815623
1.11335
1.64669
1.85801
1.91833
1.93362
1.93715
13.6678
11.8655
10.6384
9.3008
8.49123
7.60018
7.03877
6.38762
5.97315
5.49188
5.19903
4.87419
4.63724
4.30978
4.07495
3.76451
3.54767
3.26789
3.07472
2.82811
2.65871
2.44346
2.29587
2.10855
1.97978
1.81554
1.7003
1.54821
1.42748
1.24265
1.0698
0.972937
0.872608
0.808662
0.732357
0.681522
0.618747
0.576451
0.523737
0.488108
0.443589
0.413495
0.375905
0.350557
0.319007
0.297899
0.271908
0.254913
0.234639
0.222154
0.208118
0.197814
0.183501
0.173221
0.159613
0.150111
0.137859
0.129418
0.118671
0.111331
0.102072
0.095832
0.0881055
0.083143
0.0774625
0.0747627
0.0736339
0.077819
0.0932299
0.128372
0.22082
0.36977
0.526535
0.816251
1.12167
1.63484
1.85191
1.91642
1.93311
1.93699
-13.6085
-11.9212
-10.8593
-9.84926
-9.30654
-8.80475
-8.5276
-8.25732
-8.10733
-7.95926
-7.85721
-7.72219
-7.6271
-7.50324
-7.41685
-7.30529
-7.22771
-7.12778
-7.05843
-6.96931
-6.90764
-6.82864
-6.77414
-6.70453
-6.65652
-6.59512
-6.55206
-6.49535
-6.45069
-6.38291
-6.32026
-6.28567
-6.25063
-6.22868
-6.20303
-6.18623
-6.16588
-6.1524
-6.13591
-6.12496
-6.11153
-6.1026
-6.09167
-6.08443
-6.07559
-6.06979
-6.0628
-6.05833
-6.05313
-6.05001
-6.04664
-6.04429
-6.04119
-6.03915
-6.03674
-6.03536
-6.03404
-6.03364
-6.0339
-6.0349
-6.03747
-6.04064
-6.04687
-6.05367
-6.06637
-6.0802
-6.10643
-6.13763
-6.20181
-6.29534
-6.50684
-6.80036
-7.06271
-7.49943
-7.91627
-8.57924
-8.85836
-8.9412
-8.96263
-8.96762
-13.676
-11.8962
-10.8572
-9.83058
-9.3049
-8.79577
-8.52733
-8.25251
-8.10726
-7.95742
-7.85853
-7.7206
-7.62825
-7.50174
-7.41786
-7.30394
-7.22861
-7.12656
-7.05922
-6.96821
-6.90833
-6.82766
-6.77474
-6.70367
-6.65706
-6.59438
-6.55261
-6.49487
-6.45162
-6.38271
-6.31914
-6.28569
-6.2501
-6.22883
-6.20267
-6.18637
-6.1656
-6.15252
-6.13569
-6.12506
-6.11135
-6.10268
-6.09152
-6.08449
-6.07547
-6.06984
-6.0627
-6.05836
-6.05305
-6.05002
-6.0466
-6.04432
-6.04115
-6.03917
-6.0367
-6.03535
-6.03401
-6.03361
-6.03387
-6.03484
-6.03745
-6.04051
-6.04685
-6.05343
-6.06632
-6.07971
-6.10623
-6.13631
-6.20064
-6.29062
-6.50356
-6.80161
-7.05574
-7.50022
-7.90643
-8.59459
-8.86621
-8.94365
-8.96329
-8.96782
-13.8147
-11.8415
-10.8547
-9.79185
-9.30261
-8.77717
-8.52732
-8.24252
-8.10738
-7.95355
-7.86142
-7.71718
-7.63078
-7.49854
-7.42007
-7.30104
-7.23057
-7.12395
-7.06096
-6.96587
-6.90986
-6.82557
-6.77607
-6.70183
-6.65824
-6.59282
-6.55379
-6.49381
-6.45357
-6.38229
-6.31682
-6.28579
-6.24901
-6.22918
-6.20193
-6.18669
-6.16502
-6.15279
-6.13522
-6.12528
-6.11097
-6.10287
-6.09121
-6.08464
-6.07522
-6.06995
-6.06249
-6.05843
-6.05287
-6.05005
-6.04651
-6.04438
-6.04106
-6.0392
-6.03661
-6.03535
-6.03393
-6.03356
-6.03381
-6.03471
-6.03741
-6.04026
-6.04682
-6.05294
-6.06626
-6.07869
-6.10589
-6.13363
-6.19844
-6.28098
-6.49687
-6.80461
-7.04115
-7.50255
-7.88531
-8.62661
-8.88183
-8.94842
-8.96456
-8.9682
-14.0323
-11.7474
-10.8552
-9.73019
-9.30178
-8.74755
-8.52871
-8.22655
-8.10824
-7.94721
-7.86639
-7.71146
-7.63513
-7.4932
-7.4239
-7.2962
-7.23399
-7.1196
-7.06399
-6.96197
-6.91252
-6.82209
-6.7784
-6.69876
-6.6603
-6.59019
-6.55582
-6.49196
-6.45677
-6.38164
-6.31312
-6.28613
-6.24724
-6.22982
-6.2007
-6.18727
-6.16406
-6.15327
-6.13445
-6.12568
-6.11034
-6.10319
-6.0907
-6.08489
-6.07479
-6.07014
-6.06215
-6.05856
-6.05259
-6.0501
-6.04637
-6.0445
-6.04091
-6.03927
-6.03647
-6.03536
-6.03382
-6.03348
-6.03373
-6.03451
-6.03736
-6.03986
-6.0468
-6.05217
-6.06623
-6.07707
-6.10553
-6.12945
-6.19553
-6.26601
-6.48651
-6.81046
-7.01757
-7.50802
-7.84984
-8.67807
-8.905
-8.95521
-8.96632
-8.96873
-14.3413
-11.5977
-10.865
-9.64067
-9.30598
-8.70451
-8.53344
-8.20323
-8.11082
-7.93767
-7.87433
-7.70259
-7.64212
-7.48495
-7.43008
-7.28874
-7.23949
-7.11289
-7.06887
-6.95596
-6.91682
-6.81675
-6.78216
-6.69405
-6.66362
-6.58614
-6.55903
-6.48896
-6.46156
-6.38073
-6.30775
-6.28694
-6.24461
-6.23093
-6.19885
-6.18824
-6.16261
-6.15408
-6.13328
-6.12634
-6.10938
-6.10373
-6.08992
-6.08533
-6.07415
-6.07047
-6.06162
-6.05878
-6.05217
-6.05021
-6.04616
-6.04468
-6.04069
-6.03938
-6.03627
-6.03538
-6.03366
-6.03338
-6.03362
-6.03423
-6.03733
-6.03928
-6.04685
-6.05105
-6.06633
-6.07476
-6.10535
-6.1236
-6.19245
-6.24504
-6.47202
-6.82099
-6.98266
-7.51944
-7.79492
-8.75359
-8.93524
-8.96357
-8.96843
-8.96936
-14.7601
-11.3674
-10.8945
-9.51557
-9.32085
-8.64426
-8.54454
-8.1704
-8.11663
-7.92373
-7.88662
-7.68928
-7.65298
-7.47261
-7.43972
-7.2776
-7.24809
-7.10289
-7.07651
-6.94701
-6.92355
-6.80879
-6.78807
-6.68704
-6.66882
-6.58008
-6.56395
-6.48426
-6.4685
-6.3795
-6.3003
-6.28862
-6.24083
-6.23278
-6.19614
-6.18981
-6.16047
-6.15538
-6.13155
-6.1274
-6.10798
-6.10459
-6.08877
-6.08602
-6.07322
-6.07101
-6.06086
-6.05916
-6.05156
-6.0504
-6.04584
-6.04496
-6.04036
-6.03957
-6.03598
-6.03544
-6.03344
-6.03327
-6.0335
-6.03385
-6.03734
-6.03848
-6.04704
-6.04948
-6.06671
-6.07155
-6.10567
-6.11572
-6.19001
-6.2171
-6.45264
-6.83901
-6.93274
-7.54132
-7.71268
-8.86018
-8.9716
-8.97286
-8.9707
-8.97002
-15.3146
-11.0204
-10.9602
-9.34311
-9.35501
-8.56095
-8.56662
-8.12476
-8.12801
-7.90358
-7.90531
-7.66952
-7.6696
-7.45438
-7.45452
-7.26116
-7.26132
-7.08814
-7.08828
-6.93382
-6.93395
-6.79706
-6.79718
-6.67671
-6.67685
-6.57111
-6.57142
-6.47701
-6.47836
-6.37789
-6.29016
-6.29174
-6.23546
-6.23577
-6.19221
-6.19231
-6.15737
-6.15742
-6.12904
-6.12908
-6.10593
-6.10596
-6.0871
-6.08712
-6.07185
-6.07187
-6.05976
-6.05977
-6.0507
-6.05073
-6.04538
-6.0454
-6.03987
-6.03986
-6.03556
-6.03555
-6.03315
-6.03313
-6.03338
-6.03335
-6.03745
-6.03739
-6.04747
-6.04733
-6.06758
-6.06718
-6.10695
-6.10526
-6.18947
-6.18081
-6.42724
-6.86873
-6.86222
-7.58068
-7.59139
-9.00822
-9.01238
-8.98229
-8.97292
-8.97065
-16.0409
-10.5041
-11.0882
-9.1055
-9.4214
-8.44564
-8.60661
-8.06132
-8.1485
-7.87437
-7.93351
-7.64034
-7.69483
-7.42753
-7.47708
-7.23698
-7.28149
-7.06645
-7.10624
-6.91444
-6.94982
-6.77986
-6.81113
-6.66156
-6.68911
-6.5579
-6.58268
-6.46592
-6.4923
-6.37576
-6.27643
-6.29718
-6.22784
-6.24052
-6.18654
-6.19621
-6.15287
-6.16061
-6.12539
-6.13168
-6.10295
-6.10808
-6.08467
-6.08883
-6.06988
-6.07321
-6.05818
-6.06074
-6.04947
-6.05127
-6.0447
-6.04605
-6.03917
-6.04034
-6.03498
-6.03576
-6.03276
-6.03299
-6.03327
-6.03268
-6.03772
-6.03588
-6.0483
-6.04436
-6.06928
-6.0612
-6.10989
-6.09138
-6.19264
-6.13433
-6.39403
-6.91637
-6.76271
-7.64835
-7.41385
-9.21276
-9.05453
-8.99089
-8.97484
-8.9712
-16.9886
-9.74288
-11.3189
-8.77594
-9.53947
-8.28488
-8.67485
-7.97258
-8.18345
-7.83184
-7.9758
-7.59725
-7.73294
-7.38801
-7.51121
-7.20142
-7.31204
-7.03458
-7.13346
-6.88598
-6.97391
-6.75461
-6.8323
-6.63932
-6.70773
-6.53845
-6.59961
-6.44911
-6.51195
-6.37295
-6.25791
-6.30622
-6.21693
-6.24794
-6.17833
-6.20222
-6.14632
-6.16551
-6.12008
-6.13568
-6.09862
-6.11134
-6.08114
-6.09146
-6.06702
-6.07529
-6.05589
-6.06227
-6.04772
-6.05215
-6.0437
-6.04704
-6.03815
-6.04107
-6.03414
-6.03613
-6.03225
-6.03284
-6.03319
-6.03179
-6.03827
-6.03381
-6.0498
-6.04023
-6.07229
-6.05295
-6.11551
-6.0727
-6.20219
-6.07512
-6.35031
-6.99106
-6.62163
-7.76082
-7.15498
-9.49559
-9.09289
-8.99759
-8.97628
-8.9716
-18.2262
-8.6288
-11.7143
-8.31411
-9.73825
-8.05831
-8.78676
-7.84731
-8.24088
-7.76948
-8.03898
-7.53358
-7.79027
-7.32975
-7.56266
-7.14904
-7.3581
-6.98764
-7.17452
-6.8441
-7.01028
-6.71747
-6.86431
-6.60662
-6.73584
-6.50978
-6.62499
-6.42376
-6.53968
-6.36918
-6.23285
-6.32076
-6.2012
-6.25938
-6.16637
-6.21143
-6.13676
-6.173
-6.11233
-6.14179
-6.0923
-6.11631
-6.07599
-6.09548
-6.06285
-6.07847
-6.05257
-6.06464
-6.04521
-6.05354
-6.04223
-6.04851
-6.03665
-6.04219
-6.03296
-6.03672
-6.03155
-6.0327
-6.03319
-6.03058
-6.03925
-6.03092
-6.05231
-6.03444
-6.07737
-6.04143
-6.12535
-6.04713
-6.222
-5.99982
-6.29197
-7.10615
-6.4202
-7.9431
-6.77825
-9.88816
-9.11896
-9.00133
-8.97704
-8.97181
)
;

boundaryField
{
    F1_1
    {
        type            calculated;
        value           nonuniform List<scalar> 
80
(
18.9277
7.96104
11.9624
8.02975
9.86159
7.89495
8.85557
7.70649
8.27829
7.54438
7.89453
7.4831
7.75054
7.28193
7.55221
7.10657
7.3601
6.9506
7.18201
6.81192
7.01994
6.68957
6.87449
6.5825
6.74581
6.48894
6.63477
6.40552
6.55143
6.36433
6.217
6.32731
6.19063
6.26444
6.15824
6.21551
6.13025
6.17634
6.10704
6.14453
6.088
6.11855
6.07249
6.0973
6.06002
6.0799
6.05032
6.06568
6.04349
6.05408
6.04113
6.04911
6.03558
6.04263
6.0321
6.03689
6.03103
6.03247
6.03311
6.02975
6.0398
6.02912
6.05381
6.03096
6.08047
6.03462
6.13151
6.03224
6.23501
5.95761
6.25849
7.17577
6.30156
8.05544
6.55499
10.1165
9.12759
9.00232
8.97723
8.97186
)
;
    }
    F1_2
    {
        type            calculated;
        value           nonuniform List<scalar> 
80
(
-19.2814
-7.8245
-12.4032
-6.96134
-9.71841
-6.0704
-7.99017
-5.25826
-6.68574
-4.62885
-5.62751
-4.37821
-5.18604
-3.76189
-4.57673
-3.24137
-3.99174
-2.79556
-3.46304
-2.41149
-2.99642
-2.07988
-2.58928
-1.79286
-2.2368
-1.54238
-1.93694
-1.31734
-1.71507
-1.20616
-0.790089
-1.10248
-0.705504
-0.922709
-0.603277
-0.778071
-0.512381