/*--------------------------------*- C++ -*----------------------------------*\
| =========                 |                                                 |
| \\      /  F ield         | OpenFOAM: The Open Source CFD Toolbox           |
|  \\    /   O peration     | Version:  5.x                                   |
|   \\  /    A nd           | Web:      www.OpenFOAM.org                      |
|    \\/     M anipulation  |                                                 |
\*---------------------------------------------------------------------------*/
FoamFile
{
    version     2.0;
    format      ascii;
    class       volScalarField;
    location    "3.3";
    object      T;
}
// * * * * * * * * * * * * * * * * * * * * * * * * * * * * * * * * * * * * * //

dimensions      [0 0 0 1 0 0 0];

internalField   nonuniform List<scalar> 
3200
(
2.08684
2.43764
2.45765
2.60228
2.61144
2.68359
2.6884
2.7301
2.73296
2.75934
2.76109
2.77632
2.77766
2.79427
2.79562
2.81147
2.81273
2.82731
2.82846
2.84164
2.84268
2.85445
2.85537
2.86578
2.86659
2.87576
2.87649
2.88475
2.88548
2.89425
2.90195
2.9025
2.90748
2.90785
2.91165
2.91194
2.91499
2.91522
2.91769
2.91788
2.91989
2.92005
2.92169
2.92181
2.92314
2.92324
2.9243
2.92437
2.92516
2.92521
2.92569
2.92573
2.92621
2.92624
2.92661
2.92664
2.92684
2.92685
2.92682
2.92681
2.92644
2.92638
2.92549
2.92537
2.92356
2.92333
2.91973
2.91924
2.91133
2.90994
2.88748
2.84829
2.84392
2.78024
2.77274
2.65361
2.64867
2.64804
2.64792
2.64789
2.26209
2.53048
2.57229
2.688
2.70753
2.76524
2.77547
2.80872
2.8148
2.83577
2.8395
2.85171
2.85456
2.8677
2.87057
2.88311
2.8858
2.89735
2.8998
2.91025
2.91245
2.92178
2.92374
2.93199
2.93372
2.94099
2.94254
2.94911
2.95067
2.95794
2.9644
2.96559
2.96957
2.97035
2.97338
2.97398
2.9764
2.97689
2.97885
2.97925
2.98085
2.98117
2.98248
2.98274
2.98379
2.984
2.98484
2.985
2.98563
2.98574
2.98612
2.9862
2.98658
2.98666
2.98695
2.987
2.98716
2.98718
2.98715
2.98712
2.98682
2.98671
2.98599
2.98575
2.9843
2.98381
2.98093
2.97986
2.97342
2.97036
2.95073
2.91865
2.9093
2.85855
2.84275
2.75021
2.73977
2.73805
2.73768
2.73761
2.4266
2.63239
2.68397
2.77756
2.8021
2.84878
2.86163
2.88843
2.89605
2.91289
2.91757
2.92747
2.93104
2.94154
2.94512
2.95516
2.95852
2.96776
2.97082
2.97918
2.98194
2.9894
2.99185
2.99845
3.00062
3.00644
3.00838
3.01367
3.01564
3.02165
3.02707
3.02858
3.03179
3.03277
3.0352
3.03596
3.03789
3.0385
3.04008
3.04057
3.04185
3.04226
3.0433
3.04363
3.04448
3.04474
3.04541
3.04561
3.04611
3.04625
3.04656
3.04666
3.04697
3.04706
3.04729
3.04736
3.04749
3.0475
3.04748
3.04744
3.0472
3.04706
3.04648
3.04617
3.04501
3.04439
3.04204
3.04069
3.03537
3.03144
3.01448
2.98811
2.97635
2.93546
2.91584
2.84352
2.83053
2.82799
2.82744
2.82732
2.58287
2.74046
2.79397
2.86988
2.89579
2.93367
2.94724
2.9689
2.97693
2.99049
2.99542
3.00349
3.00724
3.01566
3.01942
3.02747
3.03099
3.03841
3.04163
3.04834
3.05123
3.05723
3.0598
3.0651
3.06738
3.07205
3.07409
3.07835
3.08044
3.08539
3.08989
3.0915
3.09409
3.09513
3.09708
3.09788
3.09944
3.10008
3.10134
3.10187
3.10289
3.10332
3.10416
3.1045
3.10518
3.10546
3.106
3.10621
3.10661
3.10676
3.10701
3.10712
3.10736
3.10746
3.10765
3.10771
3.10781
3.10783
3.10782
3.10777
3.10758
3.10743
3.10696
3.10663
3.10569
3.10504
3.10312
3.10168
3.09727
3.09305
3.07861
3.05698
3.04456
3.01151
2.99103
2.93447
2.92086
2.91786
2.91718
2.91703
2.73285
2.8527
2.90307
2.96421
2.98899
3.01954
3.03251
3.04991
3.05758
3.06844
3.07315
3.07967
3.08326
3.08996
3.09354
3.09996
3.10332
3.10923
3.1123
3.11765
3.12041
3.12519
3.12764
3.13187
3.13404
3.13777
3.13971
3.14313
3.14513
3.14915
3.15283
3.15437
3.15646
3.15745
3.15901
3.15978
3.16102
3.16163
3.16264
3.16314
3.16396
3.16436
3.16503
3.16536
3.1659
3.16617
3.1666
3.1668
3.16712
3.16726
3.16746
3.16757
3.16776
3.16785
3.168
3.16806
3.16815
3.16816
3.16815
3.1681
3.16795
3.1678
3.16743
3.16712
3.16636
3.16573
3.16418
3.1628
3.15916
3.15506
3.14303
3.12548
3.11359
3.08707
3.06766
3.02369
3.01077
3.00764
3.0069
3.00673
2.87802
2.96771
3.01175
3.05998
3.08197
3.10611
3.11761
3.13132
3.13811
3.14664
3.15081
3.15598
3.15915
3.16439
3.16755
3.17257
3.17554
3.18017
3.18288
3.18706
3.1895
3.19324
3.19541
3.19872
3.20063
3.20356
3.20528
3.20796
3.20974
3.21293
3.21586
3.21723
3.21888
3.21975
3.22098
3.22165
3.22263
3.22317
3.22396
3.2244
3.22504
3.2254
3.22592
3.22621
3.22664
3.22687
3.22721
3.22739
3.22764
3.22776
3.22792
3.22801
3.22816
3.22824
3.22836
3.22842
3.22848
3.2285
3.22848
3.22844
3.22832
3.22819
3.2279
3.22762
3.22702
3.22647
3.22523
3.224
3.22107
3.21739
3.20766
3.19376
3.18321
3.16234
3.14528
3.11167
3.10029
3.09732
3.0966
3.09643
3.01962
3.08455
3.12025
3.15681
3.17485
3.19318
3.20262
3.213
3.21857
3.22501
3.22843
3.23236
3.23496
3.2389
3.24149
3.24527
3.24769
3.25118
3.25339
3.25655
3.25854
3.26136
3.26313
3.26562
3.26719
3.26939
3.2708
3.27283
3.27429
3.27671
3.27894
3.28007
3.28132
3.28204
3.28296
3.28352
3.28425
3.28469
3.28529
3.28565
3.28613
3.28643
3.28682
3.28706
3.28738
3.28757
3.28782
3.28797
3.28816
3.28826
3.28838
3.28846
3.28857
3.28864
3.28872
3.28877
3.28882
3.28883
3.28882
3.28879
3.28869
3.28859
3.28836
3.28814
3.28768
3.28723
3.28629
3.28527
3.28301
3.27996
3.27247
3.2619
3.25325
3.23746
3.22356
3.19876
3.18948
3.18691
3.18627
3.18612
3.15861
3.20256
3.22872
3.25438
3.26773
3.28061
3.2876
3.29488
3.29899
3.3035
3.30603
3.3088
3.31072
3.31347
3.31538
3.31801
3.31981
3.32224
3.32387
3.32608
3.32755
3.32951
3.33082
3.33257
3.33372
3.33526
3.3363
3.33772
3.3388
3.3405
3.34207
3.34291
3.34379
3.34432
3.34497
3.34537
3.34589
3.34621
3.34663
3.34689
3.34723
3.34745
3.34773
3.3479
3.34812
3.34826
3.34844
3.34855
3.34868
3.34876
3.34884
3.3489
3.34898
3.34903
3.34909
3.34912
3.34915
3.34916
3.34916
3.34913
3.34907
3.34899
3.34883
3.34866
3.34834
3.34801
3.34734
3.34659
3.34498
3.34271
3.33739
3.32997
3.32356
3.3125
3.30228
3.28523
3.27839
3.27642
3.27592
3.27581
3.29584
3.32129
3.33722
3.35244
3.36062
3.36828
3.37256
3.37688
3.3794
3.38207
3.38362
3.38527
3.38644
3.38807
3.38924
3.3908
3.39189
3.39333
3.39433
3.39563
3.39654
3.3977
3.3985
3.39953
3.40024
3.40115
3.40179
3.40263
3.40329
3.4043
3.40523
3.40575
3.40627
3.40659
3.40698
3.40723
3.40753
3.40773
3.40797
3.40814
3.40834
3.40847
3.40863
3.40874
3.40887
3.40896
3.40906
3.40913
3.40921
3.40925
3.4093
3.40934
3.40939
3.40942
3.40945
3.40947
3.40949
3.4095
3.40949
3.40948
3.40944
3.40939
3.4093
3.4092
3.40901
3.4088
3.4084
3.40794
3.40698
3.40558
3.4024
3.39799
3.39407
3.38751
3.38127
3.37129
3.36711
3.36588
3.36556
3.36549
3.43206
3.44039
3.44573
3.45078
3.45354
3.45608
3.45752
3.45895
3.4598
3.46069
3.46121
3.46175
3.46215
3.46269
3.46308
3.4636
3.46397
3.46444
3.46478
3.46521
3.46551
3.4659
3.46617
3.46651
3.46675
3.46705
3.46726
3.46754
3.46777
3.4681
3.46841
3.46858
3.46875
3.46886
3.46899
3.46908
3.46918
3.46924
3.46932
3.46938
3.46945
3.46949
3.46954
3.46958
3.46962
3.46965
3.46969
3.46971
3.46974
3.46975
3.46977
3.46978
3.4698
3.46981
3.46982
3.46982
3.46983
3.46983
3.46983
3.46983
3.46981
3.4698
3.46977
3.46973
3.46967
3.4696
3.46947
3.46931
3.46899
3.46852
3.46746
3.466
3.46468
3.4625
3.46041
3.45712
3.45572
3.4553
3.45519
3.45516
3.43175
3.44065
3.44681
3.45347
3.45755
3.46198
3.46481
3.46805
3.47014
3.47253
3.47401
3.47563
3.47682
3.47845
3.47963
3.48117
3.48226
3.48366
3.48463
3.48586
3.48671
3.48778
3.48852
3.48945
3.4901
3.49092
3.4915
3.49226
3.49287
3.49379
3.49465
3.49514
3.49564
3.49596
3.49634
3.49659
3.49691
3.49712
3.49738
3.49756
3.49778
3.49793
3.49812
3.49825
3.4984
3.49851
3.49864
3.49873
3.49883
3.49889
3.49896
3.49901
3.49908
3.49913
3.4992
3.49925
3.49931
3.49935
3.49941
3.49944
3.49949
3.49952
3.49956
3.49958
3.49961
3.49963
3.49963
3.49961
3.49953
3.49936
3.49889
3.49815
3.49736
3.49592
3.49438
3.49184
3.49075
3.49042
3.49033
3.49031
3.29489
3.32205
3.34042
3.36051
3.37263
3.38601
3.39441
3.4042
3.4104
3.41763
3.42201
3.42689
3.43044
3.43536
3.43887
3.44354
3.44678
3.45099
3.45388
3.45758
3.46012
3.46335
3.46556
3.46837
3.4703
3.47277
3.47449
3.47678
3.47859
3.48136
3.48396
3.48541
3.48691
3.48787
3.48902
3.48978
3.49072
3.49135
3.49214
3.49268
3.49335
3.4938
3.49436
3.49474
3.49522
3.49553
3.49592
3.49618
3.49648
3.49667
3.49688
3.49703
3.49725
3.4974
3.49761
3.49775
3.49793
3.49806
3.49822
3.49833
3.49847
3.49856
3.49868
3.49875
3.49884
3.49888
3.4989
3.49883
3.4986
3.49808
3.49669
3.49445
3.49211
3.48776
3.48318
3.47546
3.47221
3.47125
3.471
3.47094
3.15695
3.2038
3.23396
3.26788
3.28766
3.31024
3.32396
3.34049
3.35062
3.36285
3.37
3.37821
3.384
3.39233
3.39807
3.40596
3.41126
3.41837
3.42309
3.42936
3.4335
3.43896
3.44257
3.44733
3.45048
3.45465
3.45747
3.46132
3.46427
3.46894
3.47331
3.47567
3.47821
3.47977
3.48171
3.48295
3.48455
3.48558
3.48692
3.48779
3.48892
3.48966
3.49061
3.49123
3.49203
3.49255
3.49321
3.49362
3.49414
3.49445
3.4948
3.49505
3.49542
3.49567
3.49601
3.49625
3.49656
3.49676
3.49704
3.49722
3.49745
3.4976
3.4978
3.49792
3.49807
3.49813
3.49816
3.49806
3.49768
3.49683
3.49452
3.49076
3.48694
3.4796
3.47211
3.4589
3.45358
3.45205
3.45166
3.45157
3.01714
3.08621
3.12734
3.17581
3.20258
3.23483
3.2534
3.27703
3.29076
3.30826
3.31795
3.32963
3.33746
3.3494
3.35718
3.36848
3.37567
3.38585
3.39225
3.40121
3.40683
3.41465
3.41954
3.42635
3.43062
3.43658
3.44039
3.44589
3.44988
3.45654
3.46275
3.46593
3.46955
3.47166
3.47443
3.47612
3.4784
3.4798
3.48171
3.48289
3.48451
3.48551
3.48687
3.48771
3.48886
3.48956
3.49051
3.49107
3.49181
3.49222
3.49273
3.49307
3.49359
3.49393
3.49442
3.49474
3.49518
3.49546
3.49586
3.4961
3.49644
3.49664
3.49692
3.49709
3.4973
3.49739
3.49744
3.4973
3.49678
3.49565
3.49241
3.48707
3.4819
3.47146
3.46127
3.44203
3.4348
3.4328
3.4323
3.43219
2.87456
2.96975
3.02044
3.0846
3.11727
3.15996
3.18263
3.21397
3.23074
3.25399
3.26581
3.2812
3.29076
3.30663
3.31615
3.33117
3.33995
3.35347
3.3613
3.3732
3.38006
3.39046
3.39643
3.40547
3.41068
3.4186
3.42326
3.43053
3.43538
3.44415
3.4523
3.45618
3.46095
3.46353
3.4672
3.46925
3.47228
3.47399
3.47654
3.47798
3.48013
3.48134
3.48316
3.48418
3.48571
3.48656
3.48782
3.48851
3.48949
3.48999
3.49066
3.49107
3.49177
3.49218
3.49284
3.49323
3.49382
3.49416
3.49468
3.49498
3.49542
3.49568
3.49605
3.49625
3.49653
3.49664
3.49672
3.49656
3.49591
3.49455
3.49038
3.48337
3.47708
3.4633
3.45079
3.42468
3.41582
3.4135
3.41294
3.41281
2.72817
2.85506
2.91299
2.99465
3.03157
3.08589
3.11152
3.1515
3.17047
3.20017
3.21353
3.233
3.24381
3.26412
3.2749
3.29411
3.30405
3.32133
3.33018
3.3454
3.35316
3.36644
3.3732
3.38474
3.39064
3.40075
3.40601
3.41526
3.42072
3.43178
3.44203
3.44639
3.45243
3.45535
3.46003
3.46235
3.46622
3.46815
3.4714
3.47303
3.47578
3.47716
3.47947
3.48063
3.48258
3.48355
3.48515
3.48593
3.48719
3.48776
3.4886
3.48907
3.48996
3.49043
3.49127
3.49171
3.49246
3.49285
3.49351
3.49385
3.49442
3.49471
3.49519
3.49542
3.49577
3.4959
3.496
3.49584
3.49506
3.49356
3.48847
3.47965
3.47256
3.45509
3.44085
3.40663
3.39657
3.39412
3.39355
3.39342
2.57671
2.74313
2.80459
2.9065
2.94517
3.01297
3.03983
3.08986
3.10977
3.14701
3.161
3.18515
3.19647
3.22199
3.23331
3.25741
3.26785
3.28952
3.29881
3.31789
3.32603
3.34267
3.34977
3.36424
3.37043
3.38309
3.38861
3.40015
3.40585
3.41945
3.43199
3.43652
3.44404
3.44709
3.45295
3.45539
3.46023
3.46226
3.46633
3.46804
3.47148
3.47293
3.47583
3.47705
3.47949
3.48051
3.48252
3.48334
3.48491
3.48551
3.48656
3.48705
3.48816
3.48866
3.48972
3.49017
3.49112
3.49153
3.49236
3.49271
3.49343
3.49373
3.49433
3.49457
3.49502
3.49516
3.4953
3.49514
3.49424
3.49271
3.48671
3.47585
3.46845
3.44676
3.43171
3.38762
3.37701
3.37468
3.37414
3.37403
2.41858
2.6354
2.69458
2.82087
2.8576
2.94168
2.96721
3.02943
3.04837
3.09478
3.10807
3.13781
3.14856
3.18043
3.19121
3.22126
3.2312
3.2582
3.26705
3.29081
3.29857
3.3193
3.32605
3.34407
3.34996
3.36572
3.37096
3.38526
3.39065
3.40716
3.42227
3.42654
3.43583
3.43873
3.44601
3.44833
3.45435
3.45629
3.46136
3.46299
3.46727
3.46864
3.47226
3.47342
3.47646
3.47743
3.47993
3.48071
3.48268
3.48325
3.48453
3.485
3.4864
3.48687
3.48819
3.48862
3.4898
3.49019
3.49123
3.49156
3.49246
3.49274
3.49349
3.49372
3.49429
3.49442
3.49462
3.49446
3.49345
3.49204
3.48514
3.47192
3.46492
3.43816
3.42374
3.36727
3.35713
3.35515
3.35472
3.35463
2.25179
2.53397
2.58187
2.73882
2.76814
2.87273
2.89313
2.97072
2.98587
3.04387
3.05448
3.09123
3.09981
3.1397
3.14834
3.18592
3.19387
3.22761
3.23469
3.26438
3.27058
3.29647
3.30188
3.32439
3.3291
3.34876
3.35295
3.37074
3.37501
3.39493
3.41299
3.41636
3.42788
3.43019
3.43926
3.44112
3.44864
3.45019
3.45652
3.45782
3.46317
3.46427
3.46879
3.46971
3.47351
3.47428
3.47742
3.47804
3.4805
3.48095
3.48254
3.48292
3.48466
3.48504
3.48669
3.48704
3.48852
3.48883
3.49012
3.49039
3.49151
3.49173
3.49267
3.49285
3.49357
3.49367
3.49394
3.49383
3.49268
3.4916
3.48382
3.46774
3.46218
3.42906
3.41745
3.34507
3.33692
3.33557
3.33529
3.33523
2.0737
2.44192
2.46481
2.66188
2.67566
2.80715
2.81675
2.91451
2.92165
2.99485
2.99984
3.04577
3.04981
3.10023
3.10431
3.15176
3.15551
3.19809
3.20142
3.23888
3.24181
3.27447
3.27702
3.30541
3.30763
3.33242
3.3344
3.35675
3.35874
3.38277
3.40429
3.40585
3.42029
3.42137
3.43281
3.43368
3.44317
3.4439
3.45188
3.45249
3.45924
3.45976
3.46546
3.46589
3.47068
3.47105
3.475
3.47529
3.4784
3.47861
3.4806
3.48078
3.48298
3.48316
3.48524
3.48541
3.48727
3.48742
3.48905
3.48918
3.49059
3.4907
3.49188
3.49197
3.49287
3.49292
3.49328
3.49323
3.4919
3.49142
3.48284
3.46313
3.46053
3.4191
3.41358
3.3203
3.31643
3.31595
3.31585
3.31583
2.0737
2.44191
2.46481
2.66187
2.67566
2.80715
2.81675
2.91451
2.92165
2.99485
2.99984
3.04576
3.0498
3.10023
3.1043
3.15175
3.15551
3.19808
3.20142
3.23888
3.24181
3.27447
3.27702
3.30541
3.30763
3.33242
3.3344
3.35675
3.35874
3.38276
3.40429
3.40585
3.42029
3.42137
3.43281
3.43368
3.44317
3.4439
3.45188
3.45249
3.45924
3.45976
3.46545
3.46589
3.47068
3.47105
3.475
3.47529
3.4784
3.47861
3.4806
3.48078
3.48298
3.48316
3.48524
3.48541
3.48727
3.48742
3.48905
3.48918
3.49059
3.4907
3.49188
3.49197
3.49287
3.49292
3.49328
3.49323
3.4919
3.49142
3.48284
3.46314
3.46054
3.41911
3.41359
3.32031
3.31645
3.31596
3.31586
3.31584
2.25178
2.53397
2.58187
2.73882
2.76813
2.87273
2.89312
2.97072
2.98586
3.04386
3.05448
3.09122
3.09981
3.1397
3.14833
3.18592
3.19387
3.22761
3.23469
3.26438
3.27058
3.29647
3.30187
3.32438
3.32909
3.34876
3.35295
3.37074
3.37501
3.39492
3.41299
3.41636
3.42787
3.43018
3.43926
3.44112
3.44864
3.45019
3.45652
3.45782
3.46317
3.46427
3.46879
3.46971
3.47351
3.47428
3.47742
3.47804
3.4805
3.48095
3.48254
3.48292
3.48466
3.48504
3.48669
3.48704
3.48852
3.48882
3.49012
3.49039
3.49151
3.49173
3.49267
3.49285
3.49357
3.49367
3.49394
3.49383
3.49268
3.4916
3.48382
3.46774
3.46218
3.42907
3.41745
3.34508
3.33693
3.33559
3.3353
3.33524
2.41858
2.6354
2.69457
2.82086
2.8576
2.94168
2.96721
3.02942
3.04836
3.09477
3.10807
3.1378
3.14856
3.18042
3.19121
3.22126
3.2312
3.2582
3.26705
3.29081
3.29857
3.31929
3.32605
3.34407
3.34996
3.36571
3.37096
3.38526
3.39065
3.40716
3.42227
3.42654
3.43583
3.43873
3.44601
3.44833
3.45435
3.45629
3.46135
3.46298
3.46727
3.46864
3.47226
3.47342
3.47646
3.47743
3.47993
3.48071
3.48268
3.48324
3.48453
3.485
3.48639
3.48687
3.48818
3.48862
3.4898
3.49019
3.49123
3.49156
3.49246
3.49274
3.49349
3.49372
3.49429
3.49442
3.49462
3.49446
3.49345
3.49205
3.48514
3.47192
3.46492
3.43816
3.42375
3.36728
3.35714
3.35517
3.35474
3.35464
2.5767
2.74313
2.80459
2.90649
2.94516
3.01296
3.03983
3.08986
3.10976
3.14701
3.161
3.18515
3.19647
3.22199
3.23331
3.25741
3.26785
3.28952
3.29881
3.31789
3.32603
3.34267
3.34977
3.36424
3.37043
3.38309
3.38861
3.40015
3.40584
3.41945
3.43199
3.43652
3.44404
3.44709
3.45295
3.45539
3.46023
3.46226
3.46633
3.46804
3.47148
3.47293
3.47583
3.47705
3.47949
3.48051
3.48252
3.48334
3.48491
3.48551
3.48655
3.48705
3.48816
3.48866
3.48972
3.49017
3.49112
3.49153
3.49236
3.49271
3.49343
3.49373
3.49433
3.49457
3.49502
3.49516
3.4953
3.49514
3.49424
3.49271
3.48671
3.47585
3.46846
3.44676
3.43172
3.38763
3.37702
3.37469
3.37416
3.37404
2.72817
2.85506
2.91299
2.99465
3.03157
3.08589
3.11152
3.1515
3.17047
3.20017
3.21353
3.233
3.2438
3.26412
3.2749
3.2941
3.30405
3.32133
3.33018
3.3454
3.35316
3.36643
3.3732
3.38474
3.39064
3.40075
3.40601
3.41526
3.42072
3.43178
3.44203
3.44638
3.45243
3.45534
3.46003
3.46235
3.46622
3.46815
3.4714
3.47303
3.47578
3.47715
3.47947
3.48063
3.48258
3.48355
3.48515
3.48593
3.48719
3.48776
3.4886
3.48907
3.48996
3.49043
3.49127
3.49171
3.49246
3.49285
3.49351
3.49385
3.49442
3.49471
3.49519
3.49542
3.49577
3.4959
3.496
3.49584
3.49506
3.49356
3.48847
3.47965
3.47256
3.4551
3.44086
3.40664
3.39658
3.39413
3.39356
3.39343
2.87456
2.96975
3.02044
3.0846
3.11727
3.15996
3.18263
3.21397
3.23074
3.25399
3.26581
3.2812
3.29076
3.30663
3.31615
3.33117
3.33995
3.35347
3.36129
3.3732
3.38006
3.39045
3.39643
3.40547
3.41068
3.4186
3.42325
3.43053
3.43538
3.44415
3.4523
3.45618
3.46095
3.46353
3.4672
3.46925
3.47228
3.47399
3.47653
3.47798
3.48013
3.48134
3.48316
3.48418
3.48571
3.48656
3.48782
3.48851
3.48949
3.48999
3.49066
3.49107
3.49177
3.49218
3.49284
3.49323
3.49382
3.49416
3.49468
3.49498
3.49542
3.49568
3.49605
3.49625
3.49653
3.49664
3.49672
3.49656
3.49591
3.49455
3.49038
3.48338
3.47708
3.4633
3.45079
3.42468
3.41582
3.41351
3.41294
3.41282
3.01714
3.08621
3.12734
3.1758
3.20257
3.23483
3.2534
3.27703
3.29076
3.30826
3.31794
3.32963
3.33746
3.34939
3.35718
3.36848
3.37567
3.38584
3.39224
3.40121
3.40682
3.41465
3.41954
3.42635
3.43061
3.43658
3.44039
3.44589
3.44988
3.45654
3.46275
3.46593
3.46955
3.47166
3.47443
3.47611
3.4784
3.4798
3.48171
3.48289
3.48451
3.48551
3.48687
3.48771
3.48886
3.48956
3.49051
3.49107
3.49181
3.49222
3.49273
3.49307
3.49359
3.49393
3.49442
3.49474
3.49518
3.49546
3.49586
3.4961
3.49644
3.49664
3.49692
3.49709
3.4973
3.49739
3.49744
3.4973
3.49678
3.49565
3.49241
3.48707
3.4819
3.47146
3.46127
3.44203
3.43481
3.43281
3.43231
3.4322
3.15695
3.2038
3.23396
3.26788
3.28766
3.31024
3.32396
3.34049
3.35062
3.36284
3.37
3.37821
3.384
3.39232
3.39807
3.40596
3.41126
3.41837
3.42309
3.42935
3.4335
3.43896
3.44257
3.44733
3.45048
3.45465
3.45746
3.46132
3.46426
3.46894
3.47331
3.47567
3.47821
3.47977
3.48171
3.48295
3.48455
3.48558
3.48692
3.48779
3.48892
3.48966
3.49061
3.49123
3.49203
3.49255
3.49321
3.49362
3.49414
3.49444
3.4948
3.49505
3.49542
3.49567
3.49601
3.49625
3.49656
3.49676
3.49704
3.49722
3.49745
3.4976
3.4978
3.49792
3.49807
3.49813
3.49816
3.49806
3.49768
3.49683
3.49452
3.49076
3.48694
3.47961
3.47211
3.45891
3.45359
3.45205
3.45166
3.45157
3.29489
3.32204
3.34042
3.36051
3.37263
3.38601
3.39441
3.4042
3.4104
3.41763
3.42201
3.42689
3.43044
3.43536
3.43887
3.44354
3.44678
3.45099
3.45388
3.45758
3.46012
3.46335
3.46556
3.46837
3.4703
3.47277
3.47449
3.47678
3.47858
3.48136
3.48396
3.48541
3.48691
3.48787
3.48902
3.48978
3.49072
3.49135
3.49214
3.49268
3.49335
3.4938
3.49436
3.49474
3.49522
3.49553
3.49592
3.49618
3.49648
3.49667
3.49688
3.49703
3.49725
3.4974
3.49761
3.49775
3.49793
3.49806
3.49822
3.49833
3.49847
3.49856
3.49868
3.49875
3.49884
3.49888
3.4989
3.49883
3.4986
3.49808
3.49669
3.49445
3.49211
3.48776
3.48319
3.47546
3.47221
3.47125
3.471
3.47094
3.43175
3.44065
3.44681
3.45347
3.45755
3.46198
3.46481
3.46805
3.47014
3.47253
3.47401
3.47562
3.47682
3.47845
3.47963
3.48117
3.48226
3.48366
3.48463
3.48586
3.48671
3.48778
3.48852
3.48945
3.4901
3.49092
3.4915
3.49226
3.49287
3.49379
3.49465
3.49514
3.49564
3.49596
3.49634
3.49659
3.49691
3.49712
3.49738
3.49756
3.49778
3.49793
3.49812
3.49825
3.4984
3.49851
3.49864
3.49873
3.49883
3.49889
3.49896
3.49901
3.49908
3.49913
3.4992
3.49925
3.49931
3.49935
3.49941
3.49944
3.49949
3.49952
3.49956
3.49958
3.49961
3.49963
3.49963
3.49961
3.49953
3.49936
3.49889
3.49815
3.49736
3.49592
3.49438
3.49184
3.49075
3.49042
3.49034
3.49032
3.43204
3.44036
3.4457
3.45073
3.45346
3.45597
3.45736
3.45871
3.45946
3.4602
3.46072
3.46139
3.46187
3.46248
3.46292
3.46347
3.46386
3.46436
3.46471
3.46515
3.46546
3.46586
3.46613
3.46648
3.46672
3.46702
3.46724
3.46752
3.46775
3.46809
3.4684
3.46857
3.46875
3.46886
3.46898
3.46907
3.46917
3.46924
3.46932
3.46938
3.46944
3.46949
3.46954
3.46958
3.46962
3.46965
3.46969
3.46971
3.46973
3.46975
3.46977
3.46978
3.46979
3.4698
3.46982
3.46982
3.46983
3.46983
3.46983
3.46983
3.46981
3.4698
3.46977
3.46973
3.46967
3.4696
3.46947
3.46931
3.46899
3.46852
3.46746
3.466
3.46468
3.4625
3.46041
3.45712
3.45572
3.4553
3.45519
3.45516
3.29579
3.32121
3.33711
3.35228
3.3604
3.36794
3.37209
3.37615
3.37839
3.38061
3.38214
3.38417
3.38559
3.38745
3.38875
3.39042
3.39158
3.39308
3.39412
3.39546
3.39638
3.39757
3.39839
3.39943
3.40015
3.40107
3.40172
3.40257
3.40324
3.40426
3.4052
3.40571
3.40624
3.40657
3.40696
3.40721
3.40751
3.40771
3.40796
3.40813
3.40833
3.40846
3.40863
3.40873
3.40887
3.40895
3.40906
3.40913
3.4092
3.40925
3.4093
3.40934
3.40938
3.40941
3.40945
3.40947
3.40949
3.4095
3.40949
3.40948
3.40944
3.40939
3.4093
3.4092
3.409
3.4088
3.4084
3.40794
3.40697
3.40558
3.4024
3.39799
3.39407
3.38751
3.38127
3.37129
3.36711
3.36588
3.36556
3.36549
3.15852
3.20244
3.22856
3.25412
3.26737
3.28005
3.28681
3.29366
3.29732
3.30105
3.30354
3.30698
3.3093
3.31245
3.31456
3.31739
3.31929
3.32183
3.32352
3.32579
3.3273
3.3293
3.33064
3.3324
3.33358
3.33514
3.33619
3.33763
3.33872
3.34043
3.34201
3.34286
3.34374
3.34428
3.34493
3.34534
3.34586
3.34619
3.34661
3.34687
3.34722
3.34743
3.34771
3.34789
3.34811
3.34825
3.34843
3.34854
3.34867
3.34875
3.34883
3.34889
3.34897
3.34902
3.34908
3.34912
3.34915
3.34916
3.34915
3.34913
3.34906
3.34899
3.34883
3.34866
3.34834
3.348
3.34734
3.34658
3.34498
3.34271
3.33739
3.32997
3.32356
3.3125
3.30228
3.28523
3.27839
3.27642
3.27592
3.27581
3.0195
3.08438
3.12002
3.15645
3.17435
3.1924
3.20154
3.2113
3.21624
3.22154
3.22491
3.22983
3.23298
3.23748
3.24034
3.2444
3.24697
3.25061
3.2529
3.25614
3.25819
3.26106
3.26287
3.2654
3.26699
3.26922
3.27064
3.27269
3.27417
3.27661
3.27886
3.28
3.28126
3.28199
3.28292
3.28347
3.28421
3.28466
3.28526
3.28562
3.28611
3.2864
3.2868
3.28704
3.28736
3.28755
3.28781
3.28796
3.28815
3.28825
3.28837
3.28845
3.28856
3.28863
3.28872
3.28876
3.28881
3.28882
3.28882
3.28878
3.28869
3.28859
3.28836
3.28814
3.28768
3.28722
3.28629
3.28526
3.28301
3.27996
3.27246
3.2619
3.25324
3.23746
3.22356
3.19876
3.18948
3.18691
3.18627
3.18612
2.87787
2.96749
3.01145
3.05952
3.08133
3.1051
3.11624
3.12913
3.13515
3.14211
3.14622
3.15275
3.1566
3.16258
3.16608
3.17147
3.17461
3.17944
3.18224
3.18655
3.18905
3.19286
3.19507
3.19843
3.20037
3.20333
3.20507
3.20779
3.20958
3.2128
3.21575
3.21714
3.2188
3.21968
3.22092
3.2216
3.22258
3.22312
3.22392
3.22436
3.22501
3.22537
3.2259
3.22619
3.22662
3.22685
3.22719
3.22737
3.22762
3.22775
3.22791
3.228
3.22815
3.22824
3.22835
3.22841
3.22847
3.22849
3.22848
3.22844
3.22832
3.22819
3.22789
3.22762
3.22702
3.22646
3.22523
3.22399
3.22107
3.21738
3.20766
3.19376
3.18321
3.16234
3.14528
3.11167
3.10029
3.09732
3.0966
3.09643
2.73267
2.85243
2.90272
2.96363
2.98823
3.01831
3.03087
3.04723
3.05403
3.06279
3.06743
3.07577
3.08013
3.08778
3.09174
3.09863
3.10218
3.10835
3.11153
3.11703
3.11985
3.12473
3.12722
3.13152
3.13371
3.13749
3.13946
3.14291
3.14494
3.149
3.15271
3.15426
3.15637
3.15737
3.15894
3.15971
3.16096
3.16158
3.16259
3.16309
3.16392
3.16433
3.165
3.16533
3.16588
3.16614
3.16658
3.16678
3.1671
3.16724
3.16745
3.16755
3.16775
3.16784
3.16799
3.16806
3.16814
3.16816
3.16814
3.1681
3.16794
3.1678
3.16742
3.16712
3.16635
3.16573
3.16418
3.16279
3.15916
3.15506
3.14302
3.12548
3.11359
3.08707
3.06766
3.02369
3.01077
3.00764
3.0069
3.00673
2.58267
2.74014
2.79356
2.8692
2.89491
2.93221
2.94535
2.96572
2.97282
2.98363
2.98848
2.99896
3.00354
3.01313
3.01729
3.02592
3.02965
3.03738
3.04071
3.04761
3.05057
3.05668
3.05931
3.06469
3.06699
3.07173
3.07379
3.0781
3.08021
3.08521
3.08975
3.09136
3.09398
3.09503
3.09699
3.0978
3.09937
3.10001
3.10129
3.10181
3.10285
3.10328
3.10412
3.10447
3.10515
3.10543
3.10597
3.10619
3.10659
3.10674
3.10699
3.1071
3.10735
3.10744
3.10763
3.1077
3.1078
3.10782
3.10781
3.10776
3.10757
3.10742
3.10695
3.10663
3.10568
3.10503
3.10312
3.10168
3.09727
3.09304
3.07861
3.05698
3.04456
3.01151
2.99103
2.93447
2.92086
2.91786
2.91718
2.91703
2.42638
2.63202
2.68352
2.77677
2.80113
2.84709
2.85954
2.88474
2.89147
2.90472
2.90932
2.92238
2.92674
2.9387
2.94265
2.9534
2.95696
2.96659
2.96976
2.97835
2.98117
2.98878
2.99128
2.99798
3.00018
3.00607
3.00803
3.01337
3.01537
3.02144
3.0269
3.02843
3.03166
3.03265
3.0351
3.03586
3.03781
3.03843
3.04001
3.04051
3.0418
3.04221
3.04326
3.04359
3.04444
3.04471
3.04538
3.04559
3.04609
3.04623
3.04654
3.04665
3.04695
3.04704
3.04728
3.04734
3.04747
3.04749
3.04748
3.04743
3.04719
3.04705
3.04647
3.04617
3.045
3.04439
3.04204
3.04069
3.03537
3.03144
3.01448
2.98811
2.97635
2.93545
2.91584
2.84352
2.83053
2.82799
2.82744
2.82732
2.26185
2.53006
2.5718
2.68709
2.70649
2.7633
2.77322
2.80449
2.80985
2.82615
2.82981
2.84615
2.84964
2.86458
2.86775
2.88118
2.88402
2.89605
2.89859
2.90932
2.91158
2.92109
2.92308
2.93146
2.93321
2.94057
2.94214
2.94878
2.95036
2.95769
2.96422
2.96542
2.96943
2.97022
2.97326
2.97388
2.97631
2.9768
2.97878
2.97918
2.98079
2.98112
2.98243
2.98269
2.98375
2.98397
2.98481
2.98497
2.9856
2.98571
2.9861
2.98618
2.98656
2.98664
2.98693
2.98699
2.98715
2.98716
2.98714
2.98711
2.98682
2.9867
2.98599
2.98574
2.9843
2.98381
2.98092
2.97985
2.97341
2.97036
2.95073
2.91865
2.9093
2.85855
2.84275
2.75021
2.73977
2.73804
2.73768
2.73761
2.0866
2.43716
2.45714
2.60125
2.61034
2.68139
2.68604
2.72528
2.7278
2.74808
2.7498
2.77044
2.77208
2.79094
2.79243
2.80938
2.81071
2.82589
2.82709
2.84063
2.84169
2.85369
2.85463
2.86519
2.86602
2.8753
2.87604
2.88439
2.88513
2.89398
2.90174
2.9023
2.90732
2.90769
2.91153
2.91182
2.91489
2.91512
2.91761
2.9178
2.91983
2.91998
2.92164
2.92176
2.9231
2.9232
2.92426
2.92434
2.92513
2.92519
2.92567
2.92571
2.92619
2.92622
2.9266
2.92662
2.92683
2.92684
2.92681
2.92679
2.92643
2.92638
2.92548
2.92536
2.92356
2.92333
2.91973
2.91923
2.91132
2.90994
2.88747
2.84829
2.84391
2.78024
2.77274
2.65361
2.64867
2.64804
2.64792
2.64789
)
;

boundaryField
{
    F1_1
    {
        type            fixedValue;
        value           nonuniform List<scalar> 
80
(
1.9922
2.39783
2.39783
2.56213
2.56213
2.64411
2.64411
2.69157
2.69157
2.72162
2.72162
2.73891
2.73891
2.75786
2.75786
2.77593
2.77593
2.79255
2.79255
2.80758
2.80758
2.821
2.821
2.83286
2.83286
2.84331
2.84331
2.85272
2.85272
2.86243
2.87086
2.87086
2.87652
2.87652
2.88086
2.88086
2.88433
2.88433
2.88715
2.88715
2.88945
2.88945
2.89133
2.89133
2.89284
2.89284
2.89404
2.89404
2.89494
2.89494
2.89548
2.89548
2.89603
2.89603
2.89645
2.89645
2.89669
2.89669
2.89666
2.89666
2.89624
2.89624
2.89522
2.89522
2.89316
2.89316
2.88908
2.88908
2.88015
2.88015
2.85618
2.81241
2.81241
2.73996
2.73996
2.60303
2.60303
2.60303
2.60303
2.60303
)
;
    }
    F1_2
    {
        type            fixedValue;
        value           nonuniform List<scalar> 
80
(
1.97728
2.40278
2.40278
2.62706
2.62706
2.77679
2.77679
2.88821
2.88821
2.97169
2.97169
3.02386
3.02386
3.08141
3.08141
3.13554
3.13554
3.1841
3.1841
3.22682
3.22682
3.26406
3.26406
3.29644
3.29644
3.3247
3.3247
3.35015
3.35015
3.37673
3.40033
3.40033
3.41675
3.41675
3.42979
3.42979
3.4406
3.4406
3.4497
3.4497
3.45739
3.45739
3.46389
3.46389
3.46935
3.46935
3.47386
3.47386
3.4774
3.4774
3.47967
3.47967
3.48218
3.48218
3.48456
3.48456
3.48669
3.48669
3.48855
3.48855
3.49016
3.49016
3.49151
3.49151
3.49254
3.49254
3.49296
3.49296
3.49149
3.49149
3.48257
3.46049
3.46049
3.41341
3.41341
3.30613
3.30613
3.30613
3.30613
3.30613
)
;
    }
    F1_3
    {
        type            fixedValue;
        value           nonuniform List<scalar> 
80
(
1.97728
2.40278
2.40278
2.62705
2.62705
2.77678
2.77678
2.88821
2.88821
2.97169
2.97169
3.02386
3.02386
3.08141
3.08141
3.13554
3.13554
3.1841
3.1841
3.22681
3.22681
3.26406
3.26406
3.29643
3.29643
3.3247
3.3247
3.35015
3.35015
3.37672
3.40033
3.40033
3.41675
3.41675
3.42979
3.42979
3.4406
3.4406
3.4497
3.4497
3.45739
3.45739
3.46389
3.46389
3.46935
3.46935
3.47386
3.47386
3.4774
3.4774
3.47966
3.47966
3.48218
3.48218
3.48456
3.48456
3.48669
3.48669
3.48855
3.48855
3.49016
3.49016
3.49151
3.49151
3.49254
3.49254
3.49296
3.49296
3.49149
3.49149
3.48257
3.46049
3.46049
3.41342
3.41342
3.30614
3.30614
3.30614
3.30614
3.30614
)
;
    }
    F1_4
    {
        type            fixedValue;
        value           nonuniform List<scalar> 
80
(
1.99196
2.39732
2.39732
2.56103
2.56103
2.64176
2.64176
2.68641
2.68641
2.70942
2.70942
2.73296
2.73296
2.75446
2.75446
2.77378
2.77378
2.79109
2.79109
2.80653
2.80653
2.82021
2.82021
2.83226
2.83226
2.84284
2.84284
2.85235
2.85235
2.86214
2.87065
2.87065
2.87636
2.87636
2.88073
2.88073
2.88423
2.88423
2.88707
2.88707
2.88939
2.88939
2.89127
2.89127
2.8928
2.8928
2.89401
2.89401
2.89491
2.89491
2.89546
2.89546
2.89601
2.89601
2.89644
2.89644
2.89667
2.89667
2.89665
2.89665
2.89623
2.89623
2.89521
2.89521
2.89315
2.89315
2.88907
2.88907
2.88015
2.88015
2.85618
2.81241
2.81241
2.73996
2.73996
2.60303
2.60303
2.60303
2.60303
2.60303
)
;
    }
    F2_1
    {
        type            fixedValue;
        value           uniform 3.5;
    }
    F2_2
    {
        type            fixedValue;
        value           uniform 3.5;
    }
    F2_3
    {
        type            fixedValue;
        value           uniform 3.5;
    }
    F2_4
    {
        type            fixedValue;
        value           uniform 3.5;
    }
    defaultFaces
    {
        type            empty;
    }
}


// ************************************************************************* //
