/*--------------------------------*- C++ -*----------------------------------*\
| =========                 |                                                 |
| \\      /  F ield         | OpenFOAM: The Open Source CFD Toolbox           |
|  \\    /   O peration     | Version:  5.x                                   |
|   \\  /    A nd           | Web:      www.OpenFOAM.org                      |
|    \\/     M anipulation  |                                                 |
\*---------------------------------------------------------------------------*/
FoamFile
{
    version     2.0;
    format      ascii;
    class       volScalarField;
    location    "8";
    object      gradTx;
}
// * * * * * * * * * * * * * * * * * * * * * * * * * * * * * * * * * * * * * //

dimensions      [0 -1 0 1 0 0 0];

internalField   nonuniform List<scalar> 
3200
(
45.2115
3.71174
1.64867
1.54013
0.814939
0.771353
0.466726
0.44727
0.293827
0.282721
0.170835
0.166692
0.180697
0.180846
0.173155
0.172313
0.159532
0.158415
0.14429
0.143107
0.12882
0.127651
0.113846
0.112751
0.10021
0.0993224
0.0901464
0.0901401
0.0950695
0.16474
0.0824914
0.0552502
0.053422
0.0416741
0.0408469
0.0332496
0.0326908
0.0269742
0.0265447
0.0219866
0.0216401
0.0179015
0.017614
0.0144665
0.0142194
0.0114517
0.0112246
0.00856258
0.00832389
0.00520175
0.00507098
0.00507015
0.00502255
0.0039578
0.00384476
0.00219455
0.00202912
-0.00027708
-0.000514464
-0.0038718
-0.00423414
-0.00950016
-0.0101053
-0.0191779
-0.0203259
-0.0381854
-0.0408583
-0.0840564
-0.092981
-0.238834
-0.617562
-0.43641
-0.681919
-0.713293
-1.2687
-1.24307
-0.0558166
-0.00753226
-0.00152604
-52.9456
47.8959
3.10511
1.57724
1.35446
0.774048
0.680996
0.436317
0.394717
0.271787
0.248194
0.160332
0.151487
0.160987
0.161195
0.155216
0.153442
0.14336
0.140996
0.129818
0.127311
0.115997
0.113518
0.102588
0.100269
0.0903632
0.0884995
0.081427
0.0815773
0.0883609
0.137357
0.0765924
0.0516106
0.0475393
0.0380073
0.0362335
0.0301768
0.0289883
0.0244481
0.0235361
0.0199195
0.0191842
0.0162185
0.0156082
0.0131113
0.0125868
0.01039
0.00990795
0.00779347
0.00728968
0.00485299
0.00457514
0.00452981
0.00442582
0.00358534
0.00334577
0.00203711
0.00168586
-0.000146703
-0.000651301
-0.00332282
-0.00409389
-0.00829179
-0.00958204
-0.0168398
-0.0192984
-0.0337006
-0.0394906
-0.0750776
-0.0950031
-0.227179
-0.51794
-0.415031
-0.602317
-0.666911
-1.08545
-1.03178
-0.121891
-0.0209056
-0.00438816
-54.7418
50.5636
2.57634
1.45361
1.1831
0.713663
0.596705
0.397786
0.345416
0.245774
0.216238
0.146669
0.135548
0.141649
0.141791
0.13711
0.134904
0.12688
0.12393
0.114999
0.111868
0.102821
0.0997232
0.0909864
0.0880911
0.0801952
0.0778849
0.0724186
0.0727491
0.0799637
0.114364
0.0692621
0.0471345
0.041875
0.0340302
0.0317914
0.0269093
0.0254199
0.0217768
0.0206357
0.0177372
0.0168174
0.0144412
0.013678
0.0116771
0.011021
0.00925971
0.00865653
0.00695992
0.00633277
0.00441787
0.00406999
0.0039918
0.00385854
0.00318883
0.00288953
0.00184137
0.00140185
-6.94521e-05
-0.000701469
-0.00284986
-0.00381657
-0.00719973
-0.00882009
-0.0146936
-0.0177932
-0.0295602
-0.036931
-0.0667252
-0.0925352
-0.20918
-0.434064
-0.382045
-0.527623
-0.606373
-0.921085
-0.854741
-0.15561
-0.0309003
-0.0067339
-56.5378
53.2106
2.11314
1.29588
1.01969
0.639179
0.515692
0.353392
0.298007
0.216956
0.185883
0.130667
0.118921
0.12255
0.12258
0.118904
0.116599
0.110197
0.107103
0.0999479
0.0966606
0.0894066
0.086154
0.0791506
0.0761129
0.0698037
0.0673966
0.0631782
0.0636456
0.0704791
0.0945512
0.0610127
0.0419836
0.0363141
0.0298289
0.027455
0.0235061
0.0219376
0.0190055
0.0178055
0.0154756
0.0145088
0.0125994
0.0117972
0.0101891
0.00949942
0.00808308
0.00744883
0.00608357
0.00542736
0.00392005
0.00355405
0.00345598
0.0033127
0.00277749
0.00246324
0.00162127
0.00115909
-2.57803e-05
-0.000690989
-0.00242417
-0.0034426
-0.00617819
-0.00788802
-0.0126585
-0.0159413
-0.0255957
-0.0334745
-0.0585322
-0.086434
-0.186851
-0.361265
-0.341154
-0.455602
-0.536395
-0.771966
-0.703014
-0.166351
-0.0368733
-0.00833401
-58.3336
55.8363
1.70405
1.11651
0.860461
0.554414
0.436232
0.304722
0.251625
0.186139
0.156494
0.112927
0.101678
0.103594
0.103518
0.100643
0.0984576
0.0933817
0.0904386
0.0847422
0.0816121
0.0758322
0.0727348
0.0671562
0.0642656
0.0592561
0.0569807
0.0537505
0.0542873
0.0603049
0.0770429
0.052183
0.0362983
0.0307858
0.025463
0.0231816
0.0200077
0.0185098
0.0161648
0.0150206
0.0131596
0.0122379
0.0107132
0.00994858
0.00866442
0.0080069
0.00687516
0.00627036
0.00517885
0.00455599
0.00337657
0.00302737
0.00292196
0.00278254
0.00235731
0.00205805
0.00138598
0.000945238
-2.9019e-06
-0.000637797
-0.00202707
-0.00299994
-0.00519768
-0.00683353
-0.0106828
-0.0138345
-0.0217022
-0.0293309
-0.0502255
-0.0774322
-0.161563
-0.296248
-0.294882
-0.384927
-0.460227
-0.635028
-0.569996
-0.160805
-0.0388088
-0.00906548
-60.1291
58.4417
1.33864
0.923887
0.703228
0.462135
0.357304
0.252915
0.205737
0.153889
0.127662
0.093894
0.0839092
0.084718
0.0845675
0.0823551
0.0804318
0.076481
0.0738843
0.0694338
0.0666697
0.0621504
0.0594149
0.0550543
0.052503
0.0485991
0.0466029
0.044172
0.0447098
0.0497019
0.0611984
0.0429942
0.0301982
0.0252499
0.0209755
0.0189438
0.0164421
0.0151159
0.0132761
0.0122643
0.0108059
0.00999118
0.00879669
0.00812077
0.00711463
0.00653333
0.00564614
0.00511135
0.00425537
0.00370686
0.00279988
0.00249094
0.00238929
0.00226379
0.00193208
0.00166776
0.00114142
0.000751674
7.44085e-06
-0.000554435
-0.00164664
-0.0025083
-0.00423965
-0.00569051
-0.00873502
-0.011539
-0.0178183
-0.0246566
-0.0416663
-0.0661534
-0.134252
-0.236672
-0.244953
-0.314842
-0.380079
-0.507683
-0.450745
-0.143772
-0.0370541
-0.00890338
-61.9244
61.0295
1.00745
0.723497
0.546813
0.364404
0.278359
0.19882
0.160037
0.120613
0.0991314
0.0739097
0.0657083
0.0658804
0.0656995
0.0640554
0.0624871
0.0595262
0.0574042
0.054058
0.0517974
0.0483972
0.0461599
0.0428799
0.0407944
0.0378658
0.0362426
0.0344748
0.0349542
0.0388387
0.046542
0.033589
0.0237841
0.019687
0.0163982
0.0147249
0.0128296
0.0117425
0.0103542
0.0095258
0.00842645
0.00775959
0.00685939
0.00630615
0.00554782
0.00507199
0.00440302
0.00396517
0.00331958
0.00287207
0.00219925
0.00194621
0.00185758
0.00175329
0.00150415
0.00128795
0.000891396
0.000572283
1.04845e-05
-0.000449864
-0.00127543
-0.00198187
-0.00329285
-0.00448374
-0.00679687
-0.00910462
-0.013912
-0.0195755
-0.032808
-0.0531303
-0.105569
-0.180862
-0.192559
-0.244944
-0.297437
-0.38772
-0.341495
-0.118728
-0.0321568
-0.00790549
-63.7193
63.603
0.701911
0.518815
0.390626
0.262819
0.199154
0.143094
0.114363
0.0866205
0.0707505
0.0532446
0.0471725
0.0470569
0.04689
0.0457526
0.0445981
0.0425378
0.040973
0.0386387
0.0369708
0.0345975
0.0329466
0.0306578
0.0291196
0.0270803
0.0258879
0.0246876
0.0250623
0.0278226
0.0327117
0.0240579
0.0171416
0.0140917
0.0117564
0.0105148
0.00918469
0.00838117
0.00740996
0.00679816
0.0060297
0.00553732
0.0049082
0.00449972
0.00396971
0.00361836
0.00315064
0.0028273
0.00237586
0.00204628
0.00158183
0.0013949
0.00132648
0.00124858
0.00107489
0.000915351
0.000638268
0.000402595
9.46646e-06
-0.000330688
-0.000908995
-0.00143126
-0.00235085
-0.00323208
-0.00485894
-0.00657021
-0.00997143
-0.0141916
-0.0236661
-0.0388224
-0.0759718
-0.127595
-0.138539
-0.175041
-0.213282
-0.273218
-0.239306
-0.0882368
-0.0247667
-0.00619474
-65.514
66.1661
0.414175
0.311938
0.234425
0.158669
0.119645
0.0862755
0.0686484
0.0521526
0.0424349
0.0321221
0.0283984
0.0282355
0.0281193
0.0274506
0.0267453
0.0255295
0.0245726
0.0231928
0.0221723
0.020769
0.0197589
0.0184056
0.0174648
0.0162608
0.0155336
0.0148375
0.0150749
0.0167214
0.0194232
0.0144572
0.0103445
0.0084679
0.00707072
0.00630817
0.00551872
0.00502651
0.00445131
0.00407677
0.0036219
0.00332052
0.00294817
0.00269815
0.00238445
0.00216938
0.00189248
0.00169454
0.00142727
0.00122588
0.000953305
0.000838845
0.000795757
0.000747699
0.000645065
0.000547448
0.000383481
0.000239203
6.32674e-06
-0.000201988
-0.0005448
-0.000864755
-0.00141039
-0.0019506
-0.00291763
-0.0039682
-0.00599815
-0.00859757
-0.014297
-0.0236349
-0.0457955
-0.0759562
-0.0834958
-0.105068
-0.128261
-0.162469
-0.141804
-0.0542414
-0.0155807
-0.00394233
-67.3085
68.7227
0.136907
0.104072
0.0781524
0.0530492
0.039909
0.0288271
0.022889
0.0174136
0.0141431
0.0107361
0.00948194
0.00941221
0.00937071
0.00914997
0.00891289
0.0085109
0.00818906
0.00773243
0.00738915
0.00692465
0.00658485
0.00613696
0.00582051
0.00542233
0.0051781
0.00494994
0.00503118
0.00557803
0.00644129
0.00482247
0.00345792
0.00282487
0.00235968
0.00210266
0.00184086
0.00167517
0.00148463
0.0013586
0.00120796
0.00110655
0.000983246
0.00089912
0.000795237
0.000722869
0.000631162
0.000564555
0.000476034
0.000408333
0.000318454
0.000279933
0.000265232
0.000248997
0.000215037
0.000182197
0.000127904
7.93533e-05
2.20296e-06
-6.7909e-05
-0.000181521
-0.000289228
-0.000470142
-0.000652055
-0.000972985
-0.00132701
-0.00200208
-0.00287953
-0.00478232
-0.00793447
-0.0152993
-0.025222
-0.0278915
-0.0350311
-0.0427982
-0.0539157
-0.046978
-0.01829
-0.00531375
-0.00135231
-69.1028
68.7146
0.150884
0.128426
0.107467
0.0852102
0.0726953
0.0607371
0.0533354
0.0448801
0.0387609
0.0310043
0.0281932
0.0283065
0.0282049
0.0273715
0.0264737
0.0249582
0.0237717
0.0221279
0.0209346
0.0193785
0.0182832
0.0168967
0.0159512
0.0148064
0.0141299
0.0135401
0.0138385
0.0155179
0.018105
0.0137281
0.010071
0.00839172
0.00718055
0.00651424
0.00583563
0.00540253
0.0048983
0.00456003
0.00414886
0.00386754
0.00351912
0.00327712
0.00297218
0.00275489
0.0024723
0.00225961
0.00196588
0.00173007
0.00140758
0.00129482
0.00131267
0.00131449
0.00128179
0.00124322
0.00117543
0.00112128
0.00104493
0.000988261
0.00091233
0.000855504
0.000777393
0.00071189
0.000608756
0.000494664
0.000268638
-7.47823e-05
-0.000892021
-0.00243081
-0.00621741
-0.0117857
-0.0150698
-0.0220556
-0.0294905
-0.0404348
-0.0360482
-0.014088
-0.00409767
-0.00104319
-69.8075
66.1414
0.45602
0.385217
0.322453
0.255241
0.218064
0.182029
0.160048
0.134547
0.116348
0.0928152
0.0844625
0.084928
0.0846439
0.082117
0.0794458
0.0748615
0.0713334
0.0663658
0.0628183
0.0581172
0.0548613
0.0506725
0.0478615
0.0444006
0.0423862
0.0405849
0.0414601
0.0465173
0.0545936
0.0411556
0.0301339
0.0251564
0.0215199
0.0195432
0.0174971
0.0162104
0.0146883
0.013683
0.0124414
0.0116053
0.0105531
0.0098339
0.00891304
0.00826729
0.00741411
0.00678207
0.00589534
0.00519369
0.00421435
0.00387925
0.00393866
0.00394486
0.00384559
0.00373085
0.00352574
0.00336473
0.00313401
0.00296556
0.00273623
0.00256737
0.00233168
0.00213718
0.00182671
0.00148847
0.000810615
-0.00020539
-0.0026472
-0.00720251
-0.018581
-0.0354484
-0.0450613
-0.0661488
-0.0883312
-0.121918
-0.108847
-0.0417851
-0.0120156
-0.00304122
-69.4223
63.5608
0.771349
0.641687
0.537617
0.42407
0.363386
0.302759
0.266902
0.223921
0.194149
0.154019
0.140379
0.141579
0.141173
0.136868
0.132494
0.124723
0.118953
0.110547
0.104748
0.0967981
0.0914768
0.0843931
0.0797978
0.0739369
0.070634
0.0675226
0.0689146
0.077396
0.0919428
0.0684865
0.049955
0.0418676
0.0357928
0.032575
0.0291282
0.0270278
0.0244576
0.0228155
0.0207177
0.0193518
0.0175738
0.0163988
0.0148429
0.013788
0.0123471
0.0113147
0.00981741
0.00866844
0.00699536
0.00644791
0.00656678
0.00657946
0.00641004
0.0062221
0.0058743
0.00561099
0.00522061
0.0049453
0.00455772
0.00428192
0.00388432
0.00356712
0.00304579
0.00249588
0.00136613
-0.000278955
-0.00431782
-0.0117013
-0.0307249
-0.0594013
-0.0745937
-0.110198
-0.146716
-0.205267
-0.183806
-0.0679905
-0.0191017
-0.00477898
-69.0371
60.9682
1.10395
0.897133
0.753161
0.590785
0.508706
0.422498
0.374041
0.312768
0.272364
0.214163
0.195702
0.198295
0.197857
0.191622
0.185679
0.174504
0.166678
0.154624
0.146764
0.135374
0.128163
0.118014
0.111785
0.103371
0.0988741
0.0942803
0.0960855
0.108032
0.130812
0.0956205
0.0693585
0.0584982
0.0499515
0.045616
0.0407055
0.037864
0.0341898
0.0319662
0.0289648
0.0271147
0.0245704
0.0229789
0.0207528
0.0193242
0.0172638
0.015866
0.0137256
0.0121642
0.00973138
0.00898994
0.00919918
0.00922137
0.00897524
0.00871976
0.0082195
0.00786235
0.00730263
0.00692956
0.00637477
0.00600135
0.00543377
0.00500524
0.00426602
0.00352649
0.00194227
-0.000256749
-0.00585463
-0.0157344
-0.0424828
-0.0838934
-0.10331
-0.154211
-0.204219
-0.291816
-0.26254
-0.0915188
-0.0248051
-0.00609912
-68.6517
58.359
1.4613
1.15007
0.96944
0.754288
0.654192
0.540727
0.481692
0.400779
0.351291
0.272717
0.250183
0.255132
0.254774
0.246365
0.239073
0.224151
0.214571
0.198533
0.188922
0.173783
0.164966
0.151479
0.143859
0.132648
0.127118
0.120782
0.122851
0.138235
0.172001
0.122397
0.088146
0.0750364
0.0639419
0.0586801
0.0522001
0.0487336
0.0438641
0.0411481
0.0371659
0.0349055
0.031529
0.0295845
0.0266308
0.0248857
0.022154
0.0204471
0.0176106
0.0156948
0.0123998
0.011494
0.0118391
0.011874
0.0115409
0.0112273
0.010559
0.0101218
0.00937722
0.00892111
0.00818458
0.00772859
0.00697769
0.00645582
0.0054863
0.00459092
0.00254303
-9.85601e-05
-0.00722014
-0.0190927
-0.053654
-0.109265
-0.130766
-0.198259
-0.260218
-0.38304
-0.346942
-0.110875
-0.0285883
-0.0068695
-68.2661
55.7295
1.8514
1.39777
1.1871
0.913188
0.800212
0.656779
0.590219
0.487534
0.431381
0.32903
0.303565
0.312182
0.312013
0.301063
0.292772
0.273584
0.262724
0.242185
0.2313
0.211938
0.201957
0.184709
0.176078
0.161699
0.155395
0.146948
0.149084
0.167703
0.216524
0.14856
0.106088
0.0914942
0.077699
0.071793
0.0635742
0.0596594
0.0534523
0.0503807
0.0452982
0.042741
0.0384304
0.0362305
0.0324606
0.0304868
0.0270033
0.0250734
0.0214589
0.0192806
0.0149726
0.013948
0.0144914
0.0145415
0.0141057
0.013749
0.0128893
0.0123937
0.0114403
0.0109239
0.00998321
0.00946765
0.00851248
0.00792433
0.00670364
0.00570148
0.00316758
0.000238865
-0.00839557
-0.0215434
-0.0639832
-0.136001
-0.156383
-0.242529
-0.313783
-0.480621
-0.439344
-0.12408
-0.0299487
-0.00699514
-67.8803
53.0769
2.28286
1.63576
1.40729
1.06565
0.947451
0.769755
0.700191
0.572427
0.51332
0.382268
0.355583
0.369583
0.369683
0.355654
0.346907
0.322684
0.311264
0.285451
0.274018
0.249719
0.239238
0.217594
0.208526
0.190426
0.183757
0.17269
0.174657
0.195963
0.265719
0.173704
0.122915
0.10792
0.0911407
0.0849985
0.0747763
0.070677
0.0629152
0.0596939
0.0533296
0.0506467
0.0452474
0.0429394
0.0382186
0.0361483
0.0317905
0.0297671
0.0252498
0.0229517
0.0174142
0.0163393
0.0171636
0.0172284
0.0166675
0.0162909
0.0152051
0.0146839
0.013486
0.0129437
0.0117649
0.0112243
0.0100326
0.00941819
0.00791228
0.00687335
0.00380796
0.000804564
-0.0093904
-0.0228224
-0.0731291
-0.164803
-0.179369
-0.287394
-0.363524
-0.586526
-0.542705
-0.128439
-0.028462
-0.00643126
-67.4943
50.3996
2.76483
1.85701
1.63201
1.20918
1.09707
0.878407
0.81249
0.654574
0.598136
0.43133
0.405974
0.42754
0.427918
0.410035
0.401662
0.371273
0.360379
0.328142
0.31725
0.286947
0.276966
0.249976
0.241336
0.218696
0.212296
0.197912
0.199458
0.222285
0.321385
0.197198
0.13831
0.124417
0.104157
0.0983674
0.0857337
0.0818412
0.0721966
0.0691329
0.0612139
0.0586613
0.0519409
0.0497449
0.0438707
0.0419014
0.0364844
0.0345607
0.028952
0.0267525
0.0196773
0.0186548
0.0198662
0.0199404
0.0192219
0.0188612
0.0174984
0.0170012
0.0155054
0.0149891
0.0135211
0.0130071
0.0115297
0.0109478
0.00910229
0.00812633
0.00444591
0.00165798
-0.0102557
-0.0226263
-0.0806203
-0.196688
-0.198616
-0.333535
-0.40739
-0.703105
-0.660883
-0.120227
-0.0238574
-0.00519688
-67.108
47.6986
3.30681
2.05094
1.86464
1.34027
1.25095
0.980948
0.92847
0.732662
0.687367
0.474735
0.454488
0.486344
0.486884
0.464035
0.457297
0.419082
0.410348
0.369979
0.361259
0.323363
0.315375
0.281625
0.274705
0.246317
0.241153
0.222496
0.223407
0.245556
0.385983
0.218081
0.151906
0.14117
0.116595
0.11201
0.0963415
0.0932356
0.0812149
0.0787663
0.0688836
0.0668426
0.0584535
0.0566976
0.0493667
0.0477925
0.0410387
0.0395018
0.0325179
0.0307483
0.0216984
0.0208809
0.0226143
0.0226842
0.0217621
0.0214716
0.0197571
0.0193585
0.0174858
0.0170726
0.0152392
0.0148285
0.0129911
0.0125279
0.0102576
0.00948754
0.00504822
0.00287648
-0.0111026
-0.0206052
-0.0857883
-0.233139
-0.212543
-0.382118
-0.442382
-0.8332
-0.798999
-0.0942428
-0.0161445
-0.00338677
-66.7216
44.9783
3.91822
2.20209
2.11079
1.45397
1.41206
1.07479
1.05018
0.804729
0.783292
0.510445
0.500918
0.546401
0.546786
0.51739
0.514191
0.465711
0.461583
0.410551
0.406435
0.358582
0.354814
0.312201
0.308934
0.273009
0.270551
0.246298
0.246507
0.264097
0.462915
0.234896
0.163284
0.158476
0.128233
0.126096
0.106447
0.104987
0.0898505
0.0886972
0.0762398
0.075278
0.064701
0.0638735
0.0546325
0.053891
0.0453844
0.0446608
0.0358753
0.0350355
0.0233903
0.0230051
0.025429
0.0254677
0.0242772
0.0241391
0.0219633
0.0217748
0.0194079
0.0192129
0.0169004
0.016707
0.0143975
0.0141804
0.0113529
0.0109956
0.00555988
0.00456735
-0.0121286
-0.0163568
-0.0876694
-0.276308
-0.218864
-0.435074
-0.464151
-0.980296
-0.963937
-0.0431925
-0.00581796
-0.00117784
-66.3351
44.9783
3.91822
2.20209
2.11079
1.45397
1.41206
1.07479
1.05018
0.804729
0.783292
0.510445
0.500918
0.546401
0.546786
0.51739
0.514191
0.465711
0.461583
0.410551
0.406436
0.358583
0.354814
0.312201
0.308934
0.27301
0.270552
0.246298
0.246507
0.264098
0.462916
0.234896
0.163285
0.158476
0.128233
0.126097
0.106447
0.104987
0.0898508
0.0886974
0.0762401
0.0752783
0.0647012
0.0638737
0.0546327
0.0538911
0.0453846
0.044661
0.0358754
0.0350356
0.0233904
0.0230052
0.0254291
0.0254678
0.0242773
0.0241392
0.0219634
0.021775
0.019408
0.019213
0.0169005
0.0167072
0.0143976
0.0141805
0.011353
0.0109957
0.00555999
0.00456746
-0.0121285
-0.0163567
-0.0876695
-0.276309
-0.218864
-0.435075
-0.464152
-0.980297
-0.963939
-0.0431926
-0.00581797
-0.00117785
-66.3351
47.6985
3.30681
2.05094
1.86464
1.34027
1.25095
0.980948
0.92847
0.732662
0.687367
0.474735
0.454488
0.486344
0.486884
0.464035
0.457297
0.419082
0.410349
0.369979
0.361259
0.323363
0.315375
0.281625
0.274706
0.246318
0.241154
0.222496
0.223407
0.245557
0.385984
0.218082
0.151906
0.14117
0.116595
0.11201
0.0963418
0.0932359
0.0812152
0.0787665
0.0688838
0.0668428
0.0584537
0.0566978
0.0493669
0.0477927
0.0410388
0.0395019
0.032518
0.0307484
0.0216985
0.020881
0.0226144
0.0226843
0.0217622
0.0214717
0.0197572
0.0193586
0.0174859
0.0170727
0.0152393
0.0148286
0.0129912
0.012528
0.0102577
0.00948764
0.00504832
0.00287659
-0.0111025
-0.0206051
-0.0857883
-0.23314
-0.212544
-0.382119
-0.442383
-0.833201
-0.799
-0.0942429
-0.0161445
-0.00338676
-66.7216
50.3996
2.76482
1.85701
1.63201
1.20918
1.09707
0.878407
0.81249
0.654574
0.598136
0.43133
0.405974
0.42754
0.427918
0.410035
0.401662
0.371273
0.360379
0.328142
0.31725
0.286948
0.276966
0.249977
0.241336
0.218697
0.212296
0.197912
0.199458
0.222285
0.321386
0.197199
0.138311
0.124418
0.104157
0.0983676
0.0857339
0.0818414
0.0721969
0.0691331
0.0612141
0.0586615
0.0519411
0.049745
0.0438708
0.0419016
0.0364845
0.0345608
0.0289521
0.0267526
0.0196774
0.0186549
0.0198662
0.0199405
0.019222
0.0188613
0.0174985
0.0170013
0.0155055
0.0149892
0.0135212
0.0130072
0.0115298
0.0109478
0.00910238
0.00812642
0.004446
0.00165807
-0.0102556
-0.0226263
-0.0806203
-0.196689
-0.198616
-0.333536
-0.407391
-0.703106
-0.660884
-0.120227
-0.0238574
-0.00519684
-67.108
53.0769
2.28286
1.63576
1.40729
1.06565
0.94745
0.769755
0.700191
0.572427
0.51332
0.382268
0.355583
0.369583
0.369683
0.355654
0.346908
0.322685
0.311264
0.285451
0.274018
0.249719
0.239238
0.217594
0.208526
0.190426
0.183757
0.172691
0.174658
0.195963
0.26572
0.173704
0.122915
0.10792
0.0911409
0.0849987
0.0747766
0.0706772
0.0629154
0.0596941
0.0533298
0.0506469
0.0452476
0.0429395
0.0382187
0.0361484
0.0317906
0.0297672
0.0252499
0.0229518
0.0174143
0.0163394
0.0171637
0.0172285
0.0166676
0.0162909
0.0152052
0.0146839
0.013486
0.0129438
0.011765
0.0112244
0.0100327
0.00941827
0.00791236
0.00687343
0.00380804
0.000804642
-0.00939033
-0.0228224
-0.0731292
-0.164803
-0.179369
-0.287395
-0.363525
-0.586527
-0.542706
-0.128439
-0.028462
-0.00643119
-67.4943
55.7295
1.8514
1.39777
1.1871
0.913188
0.800212
0.656778
0.590219
0.487534
0.431381
0.32903
0.303565
0.312182
0.312013
0.301063
0.292772
0.273584
0.262724
0.242185
0.2313
0.211939
0.201957
0.184709
0.176078
0.161699
0.155395
0.146948
0.149084
0.167703
0.216525
0.148561
0.106088
0.0914944
0.0776992
0.0717932
0.0635744
0.0596596
0.0534525
0.0503809
0.0452984
0.0427412
0.0384305
0.0362306
0.0324607
0.0304869
0.0270034
0.0250735
0.021459
0.0192807
0.0149727
0.013948
0.0144915
0.0145415
0.0141058
0.013749
0.0128894
0.0123937
0.0114404
0.010924
0.00998329
0.00946772
0.00851255
0.0079244
0.00670371
0.00570155
0.00316765
0.000238928
-0.00839552
-0.0215434
-0.0639833
-0.136002
-0.156383
-0.24253
-0.313784
-0.480622
-0.439345
-0.12408
-0.0299487
-0.00699504
-67.8803
58.359
1.4613
1.15007
0.96944
0.754287
0.654192
0.540727
0.481692
0.400779
0.351291
0.272717
0.250183
0.255132
0.254774
0.246365
0.239073
0.224151
0.214572
0.198533
0.188922
0.173783
0.164967
0.151479
0.143859
0.132648
0.127118
0.120782
0.122851
0.138235
0.172001
0.122398
0.0881463
0.0750366
0.063942
0.0586802
0.0522002
0.0487337
0.0438642
0.0411482
0.037166
0.0349056
0.0315291
0.0295846
0.0266309
0.0248858
0.0221541
0.0204472
0.0176107
0.0156949
0.0123998
0.011494
0.0118391
0.0118741
0.0115409
0.0112273
0.0105591
0.0101219
0.00937728
0.00892117
0.00818464
0.00772865
0.00697775
0.00645587
0.00548635
0.00459097
0.00254309
-9.85116e-05
-0.00722011
-0.0190927
-0.0536541
-0.109265
-0.130766
-0.19826
-0.260219
-0.383041
-0.346943
-0.110875
-0.0285883
-0.0068694
-68.2661
60.9682
1.10395
0.897133
0.75316
0.590785
0.508706
0.422498
0.374041
0.312768
0.272364
0.214163
0.195702
0.198295
0.197857
0.191622
0.185679
0.174504
0.166678
0.154624
0.146764
0.135374
0.128163
0.118014
0.111785
0.103371
0.0988743
0.0942804
0.0960856
0.108032
0.130813
0.0956207
0.0693587
0.0584984
0.0499516
0.0456161
0.0407056
0.0378641
0.0341899
0.0319663
0.0289649
0.0271148
0.0245705
0.022979
0.0207529
0.0193243
0.0172638
0.0158661
0.0137256
0.0121642
0.00973142
0.00898997
0.00919921
0.00922141
0.00897528
0.0087198
0.00821954
0.00786239
0.00730268
0.0069296
0.00637481
0.0060014
0.00543382
0.00500528
0.00426606
0.00352653
0.00194231
-0.000256714
-0.00585461
-0.0157344
-0.0424828
-0.0838936
-0.10331
-0.154211
-0.204219
-0.291816
-0.26254
-0.091519
-0.0248051
-0.00609902
-68.6517
63.5608
0.771348
0.641687
0.537617
0.42407
0.363386
0.302759
0.266902
0.223921
0.194149
0.154019
0.140379
0.141579
0.141173
0.136868
0.132494
0.124723
0.118953
0.110547
0.104748
0.0967982
0.0914769
0.0843932
0.0797979
0.0739369
0.070634
0.0675227
0.0689147
0.0773961
0.091943
0.0684867
0.0499552
0.0418677
0.0357929
0.0325751
0.0291283
0.0270279
0.0244576
0.0228155
0.0207178
0.0193518
0.0175739
0.0163988
0.014843
0.0137881
0.0123471
0.0113148
0.00981745
0.00866847
0.00699539
0.00644793
0.00656681
0.00657949
0.00641006
0.00622213
0.00587433
0.00561102
0.00522065
0.00494533
0.00455776
0.00428195
0.00388435
0.00356715
0.00304582
0.0024959
0.00136615
-0.000278933
-0.00431781
-0.0117013
-0.030725
-0.0594014
-0.0745939
-0.110198
-0.146716
-0.205267
-0.183807
-0.0679906
-0.0191017
-0.0047789
-69.0371
66.1414
0.456019
0.385217
0.322453
0.255241
0.218064
0.182029
0.160048
0.134547
0.116348
0.0928152
0.0844625
0.084928
0.084644
0.082117
0.0794458
0.0748615
0.0713334
0.0663658
0.0628184
0.0581173
0.0548614
0.0506725
0.0478615
0.0444006
0.0423862
0.0405849
0.0414602
0.0465174
0.0545937
0.0411557
0.030134
0.0251565
0.0215199
0.0195433
0.0174971
0.0162105
0.0146883
0.013683
0.0124414
0.0116053
0.0105532
0.00983393
0.00891307
0.00826732
0.00741414
0.00678209
0.00589536
0.00519372
0.00421437
0.00387926
0.00393867
0.00394488
0.00384561
0.00373086
0.00352575
0.00336475
0.00313403
0.00296558
0.00273625
0.00256739
0.00233169
0.0021372
0.00182673
0.00148849
0.00081063
-0.000205378
-0.00264719
-0.00720252
-0.018581
-0.0354485
-0.0450614
-0.0661489
-0.0883314
-0.121918
-0.108848
-0.0417852
-0.0120156
-0.00304116
-69.4223
68.7146
0.150883
0.128426
0.107467
0.0852102
0.0726953
0.0607371
0.0533354
0.0448801
0.0387609
0.0310043
0.0281932
0.0283065
0.0282049
0.0273715
0.0264737
0.0249582
0.0237717
0.0221279
0.0209346
0.0193786
0.0182832
0.0168967
0.0159512
0.0148064
0.0141299
0.0135402
0.0138385
0.0155179
0.018105
0.0137282
0.010071
0.00839174
0.00718056
0.00651425
0.00583565
0.00540254
0.00489831
0.00456004
0.00414887
0.00386755
0.00351913
0.00327714
0.00297219
0.0027549
0.00247231
0.00225961
0.00196589
0.00173008
0.00140758
0.00129483
0.00131267
0.0013145
0.00128179
0.00124323
0.00117543
0.00112129
0.00104494
0.000988267
0.000912336
0.00085551
0.000777398
0.000711896
0.000608762
0.000494669
0.000268643
-7.47787e-05
-0.00089202
-0.00243081
-0.00621743
-0.0117857
-0.0150698
-0.0220556
-0.0294906
-0.0404349
-0.0360482
-0.014088
-0.00409767
-0.00104316
-69.8074
68.7223
0.136739
0.103793
0.077759
0.0524419
0.0390532
0.0275026
0.0210891
0.0150023
0.0125849
0.011923
0.011573
0.0110198
0.0105817
0.00996782
0.00952185
0.00893948
0.00852145
0.00797818
0.00758718
0.00707754
0.0067121
0.00623891
0.00590772
0.00549459
0.00524176
0.00500535
0.00508375
0.00563193
0.0065007
0.00486541
0.0034873
0.00284803
0.00237838
0.00211897
0.00185482
0.00168771
0.00149557
0.00136851
0.00121668
0.00111448
0.000990237
0.000905483
0.000800839
0.000727951
0.000635598
0.000568529
0.000479404
0.000411246
0.000320767
0.000282019
0.000267303
0.00025104
0.000216988
0.000184061
0.000129628
8.09713e-05
3.67708e-06
-6.65376e-05
-0.000180281
-0.00028808
-0.000469109
-0.000651101
-0.000972128
-0.00132622
-0.00200137
-0.00287886
-0.00478171
-0.00793387
-0.0152986
-0.0252213
-0.027891
-0.0350308
-0.0427979
-0.0539155
-0.0469779
-0.0182899
-0.00531373
-0.00135227
-69.1028
66.1648
0.413672
0.311104
0.233248
0.156849
0.117086
0.0823022
0.0632542
0.04486
0.0376844
0.0357565
0.0347271
0.0330549
0.0317521
0.0298967
0.028571
0.0268119
0.0255694
0.0239285
0.0227663
0.0212269
0.0201406
0.018711
0.0177264
0.0164774
0.0157246
0.0150034
0.0152324
0.016883
0.0196022
0.0145859
0.0104323
0.0085373
0.00712673
0.00635708
0.00556059
0.00506412
0.00448411
0.00410652
0.00364804
0.00334431
0.00296913
0.00271724
0.00240125
0.00218463
0.00190578
0.00170647
0.00143737
0.00123463
0.000960232
0.000845096
0.000801969
0.000753831
0.00065092
0.000553042
0.000388652
0.000244059
1.07476e-05
-0.000197872
-0.000541082
-0.00086131
-0.00140729
-0.00194774
-0.00291506
-0.00396582
-0.00599601
-0.00859558
-0.0142952
-0.0236331
-0.0457936
-0.075954
-0.0834942
-0.105067
-0.12826
-0.162469
-0.141804
-0.0542412
-0.0155806
-0.00394222
-67.3085
63.6009
0.701076
0.517425
0.388679
0.25979
0.19492
0.136472
0.105393
0.074269
0.062574
0.0595541
0.057907
0.0550751
0.0529447
0.0498045
0.0476375
0.0446636
0.0426332
0.0398596
0.0379605
0.035358
0.0335828
0.0311654
0.0295557
0.0274403
0.0262062
0.0249635
0.0253243
0.0280912
0.0330132
0.024272
0.017287
0.0142072
0.0118494
0.0105963
0.00925434
0.00844386
0.00746455
0.00684776
0.00607321
0.005577
0.00494309
0.00453156
0.00399768
0.0036438
0.00317278
0.0028472
0.00239269
0.00206088
0.00159332
0.00140529
0.00133683
0.00125881
0.00108465
0.000924681
0.000646883
0.000410693
1.68288e-05
-0.000323824
-0.000902804
-0.00142551
-0.00234569
-0.00322731
-0.00485466
-0.00656625
-0.00996788
-0.0141883
-0.0236631
-0.0388194
-0.0759686
-0.127592
-0.138536
-0.175039
-0.213281
-0.273217
-0.239305
-0.0882365
-0.0247666
-0.00619458
-65.514
61.0266
1.00628
0.721551
0.544116
0.36017
0.272497
0.189548
0.147534
0.102901
0.0871166
0.0832968
0.0811342
0.0770673
0.0741776
0.0696733
0.0667362
0.0624776
0.0597268
0.0557557
0.0531828
0.0494561
0.0470507
0.0435874
0.0414053
0.0383679
0.0366881
0.0348595
0.0353198
0.0392133
0.0469707
0.0338877
0.0239855
0.0198482
0.016528
0.014839
0.0129268
0.0118304
0.0104305
0.0095953
0.00848723
0.00781519
0.00690814
0.00635077
0.0055869
0.00510764
0.00443396
0.00399308
0.00334309
0.00289255
0.00221523
0.0019607
0.00187208
0.00176763
0.0015178
0.00130103
0.000903446
0.000583632
2.0779e-05
-0.000440246
-0.00126678
-0.00197381
-0.00328564
-0.00447705
-0.00679089
-0.00909907
-0.013907
-0.0195708
-0.0328037
-0.0531261
-0.105565
-0.180856
-0.192556
-0.244941
-0.297435
-0.387719
-0.341494
-0.118728
-0.0321567
-0.00790531
-63.7193
58.438
1.33715
0.921384
0.699814
0.456699
0.349885
0.240986
0.18978
0.130379
0.111181
0.106973
0.104438
0.0990125
0.0954751
0.0894794
0.0858879
0.0802312
0.0768691
0.0715959
0.0684512
0.0635013
0.060561
0.0559581
0.053289
0.0492413
0.047176
0.0446639
0.0451781
0.0501808
0.0617617
0.0433762
0.0304534
0.0254565
0.0211412
0.0190906
0.0165667
0.015229
0.0133738
0.0123537
0.0108838
0.0100628
0.0088592
0.00817823
0.00716472
0.00657925
0.00568581
0.00514731
0.0042855
0.00373328
0.00282022
0.00250947
0.00240795
0.00228226
0.00194963
0.00168461
0.00115689
0.000766288
2.06523e-05
-0.000542051
-0.00163554
-0.00249793
-0.0042304
-0.00568189
-0.00872734
-0.0115319
-0.0178119
-0.0246506
-0.0416608
-0.0661481
-0.134247
-0.236665
-0.244948
-0.314839
-0.380077
-0.507681
-0.450743
-0.143771
-0.037054
-0.0089032
-61.9244
55.8318
1.70225
1.11345
0.856372
0.547777
0.427356
0.290116
0.232353
0.156248
0.134645
0.130583
0.127857
0.120882
0.116871
0.109189
0.105122
0.0978931
0.0940879
0.087351
0.0837919
0.0774662
0.0741377
0.0682515
0.0652278
0.0600353
0.0576817
0.0543471
0.0548567
0.0608851
0.0777514
0.0526462
0.0366042
0.0310375
0.0256638
0.0233612
0.0201591
0.0186483
0.0162837
0.0151302
0.0132544
0.0123256
0.0107893
0.010019
0.00872542
0.00806317
0.00692346
0.00631447
0.00521552
0.00458845
0.00340111
0.00304986
0.00294479
0.00280517
0.00237875
0.00207869
0.00140485
0.000963139
1.32033e-05
-0.000622628
-0.00201354
-0.00298725
-0.00518641
-0.00682298
-0.0106734
-0.0138257
-0.0216944
-0.0293236
-0.0502188
-0.0774256
-0.161556
-0.296239
-0.294876
-0.384923
-0.460224
-0.635026
-0.569995
-0.160805
-0.0388086
-0.00906532
-60.1291
53.2055
2.11104
1.29225
1.01499
0.631327
0.5055
0.336068
0.27566
0.179938
0.157408
0.154139
0.151446
0.142633
0.138414
0.128755
0.124483
0.115418
0.111424
0.102979
0.0992432
0.0913111
0.0878167
0.0804304