/*--------------------------------*- C++ -*----------------------------------*\
| =========                 |                                                 |
| \\      /  F ield         | OpenFOAM: The Open Source CFD Toolbox           |
|  \\    /   O peration     | Version:  5.x                                   |
|   \\  /    A nd           | Web:      www.OpenFOAM.org                      |
|    \\/     M anipulation  |                                                 |
\*---------------------------------------------------------------------------*/
FoamFile
{
    version     2.0;
    format      ascii;
    class       volScalarField;
    location    "8";
    object      gradTy;
}
// * * * * * * * * * * * * * * * * * * * * * * * * * * * * * * * * * * * * * //

dimensions      [0 -1 0 1 0 0 0];

internalField   nonuniform List<scalar> 
3200
(
18.2486
8.63569
11.7297
8.3123
9.74966
8.03972
8.79389
7.79267
8.24156
7.60074
7.87613
7.51726
7.72771
7.31739
7.52963
7.13938
7.33854
6.98
7.16176
6.83786
7.00118
6.71226
6.85732
6.60223
6.73022
6.5061
6.62034
6.42074
6.5357
6.3666
6.23149
6.31862
6.20018
6.25781
6.1657
6.21033
6.13638
6.17227
6.11218
6.14136
6.09235
6.11613
6.07622
6.0955
6.06325
6.07867
6.05314
6.06502
6.04593
6.0541
6.04304
6.04917
6.03763
6.043
6.0341
6.0377
6.03282
6.03384
6.03454
6.03185
6.04063
6.03227
6.05365
6.03581
6.07861
6.04275
6.1265
6.04832
6.22314
6.00071
6.29313
7.10892
6.42159
7.94779
6.78062
9.89651
9.12583
9.00798
8.98364
8.9784
17.009
9.75161
11.3321
8.77628
9.54691
8.26991
8.67367
7.92521
8.1644
7.68494
7.83198
7.56411
7.67627
7.36887
7.48099
7.18865
7.29395
7.02539
7.12153
6.87893
6.96533
6.74894
6.82569
6.63464
6.70239
6.53457
6.5952
6.44593
6.50825
6.3704
6.25637
6.30425
6.21579
6.24652
6.17757
6.20124
6.14587
6.16488
6.11988
6.13534
6.09864
6.11123
6.08134
6.09155
6.06739
6.07555
6.05643
6.06271
6.04842
6.05276
6.0445
6.04775
6.0391
6.04193
6.03526
6.03716
6.03349
6.03402
6.03453
6.03308
6.03964
6.03517
6.05114
6.0416
6.07357
6.05426
6.11669
6.0739
6.20335
6.07613
6.35162
6.99361
6.62345
7.7651
7.15805
9.50316
9.09968
9.00419
8.98284
8.97815
16.0597
10.514
11.0998
9.10716
9.42601
8.43282
8.59949
8.01819
8.11594
7.74404
7.80439
7.59571
7.64155
7.40352
7.44848
7.22196
7.26426
7.05615
7.0948
6.9068
6.94155
6.77384
6.80473
6.65665
6.68394
6.55386
6.57843
6.46261
6.48877
6.3732
6.27474
6.29531
6.22661
6.23918
6.18572
6.19529
6.15236
6.16003
6.12515
6.13138
6.10293
6.108
6.08484
6.08895
6.07023
6.07351
6.05869
6.06122
6.05014
6.05191
6.04548
6.0468
6.04011
6.04123
6.03607
6.03682
6.03399
6.03419
6.03459
6.03399
6.03909
6.03725
6.04965
6.04572
6.07056
6.0625
6.11109
6.09258
6.19381
6.13543
6.39545
6.9188
6.76483
7.65238
7.41742
9.21978
9.06124
8.99748
8.9814
8.97775
15.3323
11.031
10.9708
9.34558
9.35759
8.54934
8.55523
8.08402
8.08627
7.78584
7.78755
7.61713
7.6182
7.42686
7.42683
7.24453
7.2446
7.07704
7.07714
6.92575
6.92586
6.79081
6.79092
6.67166
6.67179
6.56696
6.56727
6.47362
6.47496
6.37533
6.28836
6.28993
6.23418
6.23449
6.19134
6.19144
6.15683
6.15689
6.12877
6.12881
6.10588
6.10591
6.08724
6.08727
6.07218
6.0722
6.06026
6.06026
6.05135
6.05138
6.04615
6.04617
6.0408
6.04079
6.03664
6.03663
6.03436
6.03435
6.0347
6.03467
6.03881
6.03875
6.04882
6.04868
6.06887
6.06848
6.10816
6.10648
6.19066
6.18199
6.42875
6.87108
6.86456
7.58455
7.59529
9.01484
9.01901
8.98886
8.97947
8.9772
14.7768
11.3785
10.9043
9.51851
9.32199
8.63329
8.53005
8.1309
8.0687
7.81556
7.77759
7.6317
7.60253
7.44254
7.41247
7.2598
7.23163
7.09122
7.06554
6.93865
6.91558
6.80236
6.78189
6.68188
6.66384
6.57586
6.55987
6.48083
6.46519
6.37694
6.29843
6.28685
6.2395
6.23153
6.19523
6.18897
6.15991
6.15486
6.13127
6.12716
6.10792
6.10457
6.08891
6.08619
6.07353
6.07136
6.06135
6.05967
6.05221
6.05107
6.04661
6.04575
6.04127
6.04051
6.03705
6.03653
6.03465
6.03449
6.03481
6.03518
6.0387
6.03985
6.04839
6.05083
6.06801
6.07285
6.1069
6.11693
6.19123
6.21834
6.45422
6.84131
6.93523
7.5451
7.71681
8.86652
8.97816
8.97941
8.97725
8.97657
14.3573
11.609
10.8743
9.64387
9.30607
8.69382
8.5167
8.16431
8.05877
7.83668
7.77195
7.64159
7.5921
7.45302
7.40301
7.27008
7.22316
7.10081
7.05799
6.94739
6.90891
6.81021
6.77604
6.68883
6.65868
6.58188
6.55499
6.4855
6.45833
6.37817
6.30582
6.2852
6.24325
6.2297
6.19793
6.18742
6.16204
6.15358
6.13298
6.12611
6.10932
6.10372
6.09005
6.08551
6.07446
6.07083
6.0621
6.05931
6.05281
6.05089
6.04692
6.04548
6.0416
6.04033
6.03733
6.03648
6.03486
6.03462
6.03493
6.03556
6.03869
6.04065
6.04821
6.0524
6.06764
6.07605
6.10659
6.12482
6.19368
6.24633
6.47365
6.82326
6.98526
7.52318
7.79921
8.75972
8.94172
8.9701
8.97498
8.9759
14.0478
11.7589
10.8641
9.73352
9.30112
8.73694
8.51037
8.18784
8.0535
7.8515
7.76894
7.64825
7.58526
7.45994
7.39687
7.27693
7.2177
7.10721
7.05314
6.95324
6.90465
6.81547
6.77231
6.69349
6.65539
6.5859
6.55182
6.48848
6.45358
6.37908
6.31114
6.2844
6.24586
6.22861
6.19977
6.18646
6.16348
6.15279
6.13415
6.12546
6.11027
6.10319
6.09082
6.08508
6.0751
6.07051
6.06262
6.05909
6.05323
6.05079
6.04713
6.04531
6.04182
6.04023
6.03753
6.03647
6.03502
6.03472
6.03503
6.03584
6.03872
6.04123
6.04816
6.05352
6.06754
6.07836
6.10678
6.13069
6.19678
6.26734
6.48818
6.81272
7.02025
7.51173
7.85423
8.68406
8.91143
8.96173
8.97286
8.97528
13.8298
11.853
10.8634
9.79524
9.30145
8.76656
8.50788
8.20384
8.05093
7.86154
7.76745
7.6526
7.5809
7.46437
7.393
7.28135
7.21429
7.11137
7.05013
6.95704
6.90201
6.8189
6.77
6.69653
6.65335
6.5885
6.54981
6.49032
6.45041
6.37973
6.31482
6.28407
6.24762
6.22798
6.20098
6.18589
6.16443
6.15231
6.13492
6.12507
6.11089
6.10287
6.09134
6.08483
6.07552
6.07032
6.06297
6.05896
6.05351
6.05073
6.04728
6.0452
6.04197
6.04017
6.03767
6.03647
6.03513
6.0348
6.03511
6.03604
6.03876
6.04163
6.04818
6.05429
6.06757
6.07997
6.10714
6.13486
6.1997
6.28234
6.49856
6.80687
7.04388
7.50624
7.88976
8.6325
8.88821
8.95493
8.9711
8.97475
13.6908
11.9077
10.8658
9.83398
9.30342
8.78513
8.5072
8.2138
8.04983
7.86776
7.76679
7.65522
7.57834
7.467
7.39074
7.28398
7.21232
7.11385
7.0484
6.95932
6.90049
6.82095
6.76868
6.69835
6.65218
6.59006
6.54864
6.49137
6.44848
6.38015
6.31713
6.28397
6.24871
6.22764
6.20173
6.18558
6.16501
6.15205
6.13538
6.12485
6.11127
6.10269
6.09165
6.08469
6.07577
6.07021
6.06318
6.0589
6.05368
6.05071
6.04736
6.04513
6.04205
6.04014
6.03776
6.03647
6.0352
6.03485
6.03517
6.03617
6.0388
6.04188
6.04821
6.05478
6.06764
6.081
6.10748
6.13756
6.2019
6.292
6.50527
6.80386
7.0585
7.50391
7.91092
8.60042
8.87256
8.95015
8.96983
8.97437
13.6232
11.9327
10.8678
9.85268
9.3049
8.79409
8.50713
8.21857
8.04945
7.87074
7.76656
7.65645
7.57715
7.46821
7.3897
7.28521
7.21141
7.11501
7.04761
6.96038
6.8998
6.82191
6.76808
6.6992
6.65165
6.59079
6.54809
6.49185
6.44756
6.38035
6.31824
6.28395
6.24923
6.22749
6.20208
6.18544
6.16528
6.15193
6.1356
6.12475
6.11145
6.10261
6.09179
6.08463
6.0759
6.07017
6.06328
6.05887
6.05376
6.0507
6.0474
6.04511
6.0421
6.04012
6.0378
6.03647
6.03524
6.03488
6.0352
6.03623
6.03883
6.042
6.04823
6.05501
6.06768
6.08149
6.10768
6.13888
6.20308
6.29672
6.50856
6.80261
7.06549
7.50311
7.92079
8.58504
8.8647
8.94769
8.96917
8.97417
-13.7627
-11.9572
-10.7281
-9.38896
-8.57855
-7.6867
-7.12475
-6.47287
-6.05783
-5.57574
-5.28229
-4.95664
-4.71901
-4.39047
-4.15477
-3.84303
-3.62517
-3.34393
-3.14964
-2.90146
-2.73088
-2.51398
-2.36516
-2.17614
-2.04609
-1.8801
-1.76351
-1.60948
-1.48702
-1.2993
-1.12353
-1.02488
-0.922502
-0.85714
-0.779
-0.726853
-0.662336
-0.618788
-0.564403
-0.527572
-0.481452
-0.450208
-0.411091
-0.384653
-0.351665
-0.329542
-0.302233
-0.284334
-0.262927
-0.249715
-0.234817
-0.223845
-0.20856
-0.197548
-0.182924
-0.172678
-0.159418
-0.150247
-0.138523
-0.130478
-0.12028
-0.113364
-0.104735
-0.0991186
-0.0925576
-0.089203
-0.0871613
-0.0906038
-0.104857
-0.13877
-0.228849
-0.374941
-0.529504
-0.815962
-1.11861
-1.62772
-1.84309
-1.90709
-1.92366
-1.92751
-13.8349
-11.9341
-10.7326
-9.36781
-8.58181
-7.67351
-7.12836
-6.4634
-6.06052
-5.5682
-5.28358
-4.95313
-4.72265
-4.38676
-4.15781
-3.83928
-3.62771
-3.34045
-3.1518
-2.89836
-2.73274
-2.51126
-2.36677
-2.17378
-2.04753
-1.87813
-1.76501
-1.60822
-1.48963
-1.29882
-1.12044
-1.02503
-0.921024
-0.857653
-0.777962
-0.72735
-0.6615
-0.619223
-0.563703
-0.527946
-0.480859
-0.450525
-0.410586
-0.384917
-0.351232
-0.329751
-0.301858
-0.284476
-0.2626
-0.249784
-0.234661
-0.224018
-0.208391
-0.197693
-0.18275
-0.172799
-0.159255
-0.150351
-0.138377
-0.130565
-0.12015
-0.113433
-0.104615
-0.0991572
-0.09243
-0.0891511
-0.0869426
-0.090172
-0.104072
-0.136524
-0.226609
-0.374602
-0.524229
-0.815315
-1.11035
-1.63947
-1.84915
-1.90899
-1.92417
-1.92767
-13.9831
-11.8831
-10.7435
-9.32352
-8.58997
-7.6458
-7.13675
-6.44346
-6.06679
-5.55235
-5.28671
-4.94561
-4.73051
-4.37878
-4.16445
-3.83125
-3.63328
-3.33304
-3.15656
-2.89175
-2.73683
-2.50547
-2.37032
-2.16876
-2.05071
-1.87391
-1.76827
-1.60543
-1.49514
-1.29786
-1.11405
-1.02553
-0.917923
-0.858823
-0.775765
-0.728459
-0.659723
-0.620191
-0.562215
-0.528775
-0.479598
-0.451228
-0.409511
-0.385503
-0.350312
-0.330218
-0.301064
-0.284799
-0.261913
-0.249946
-0.234328
-0.224393
-0.208025
-0.19801
-0.182377
-0.173066
-0.158908
-0.150578
-0.138065
-0.130758
-0.119872
-0.113588
-0.104362
-0.0992473
-0.0921653
-0.0890572
-0.086507
-0.089314
-0.102544
-0.131973
-0.222053
-0.374198
-0.513295
-0.814509
-1.09273
-1.664
-1.86119
-1.91267
-1.92514
-1.92796
-14.2154
-11.7937
-10.7657
-9.25178
-8.60656
-7.60069
-7.15253
-6.41085
-6.07858
-5.52656
-5.29287
-4.93307
-4.74385
-4.36531
-4.17584
-3.81782
-3.64295
-3.32068
-3.16485
-2.88075
-2.74399
-2.49583
-2.37654
-2.1604
-2.05623
-1.86684
-1.77381
-1.60055
-1.50413
-1.29635
-1.10384
-1.0268
-0.912885
-0.860953
-0.772139
-0.730427
-0.65678
-0.621898
-0.559747
-0.530235
-0.477506
-0.452467
-0.40773
-0.386538
-0.348791
-0.33105
-0.299756
-0.285388
-0.26079
-0.250256
-0.233768
-0.225026
-0.207407
-0.198553
-0.181753
-0.173527
-0.158329
-0.150973
-0.137546
-0.131094
-0.119412
-0.11386
-0.103945
-0.0994169
-0.0917425
-0.0889417
-0.0858579
-0.0880398
-0.10037
-0.124997
-0.215015
-0.374317
-0.495877
-0.814623
-1.06339
-1.70349
-1.87907
-1.91791
-1.9265
-1.92836
-14.5445
-11.6485
-10.8073
-9.14529
-8.63758
-7.53328
-7.18005
-6.36187
-6.09916
-5.48804
-5.30407
-4.91371
-4.76476
-4.34427
-4.19398
-3.79707
-3.65852
-3.30167
-3.17828
-2.86386
-2.75561
-2.48104
-2.38663
-2.14757
-2.06517
-1.85593
-1.78257
-1.59259
-1.51758
-1.29424
-1.08902
-1.02954
-0.90537
-0.864561
-0.766633
-0.733676
-0.652289
-0.624699
-0.555976
-0.532627
-0.474309
-0.454495
-0.40501
-0.388237
-0.346471
-0.332424
-0.297773
-0.286388
-0.259107
-0.250805
-0.2329
-0.226015
-0.206439
-0.199415
-0.180787
-0.174269
-0.157438
-0.151612
-0.136749
-0.13164
-0.118707
-0.114309
-0.103314
-0.0997133
-0.0911255
-0.0888383
-0.0849989
-0.0863603
-0.0977036
-0.115406
-0.205206
-0.375945
-0.470571
-0.817536
-1.01839
-1.76156
-1.90241
-1.92436
-1.92813
-1.92884
-14.9895
-11.4211
-10.8817
-8.99264
-8.69247
-7.43582
-7.22617
-6.29068
-6.13368
-5.43244
-5.32354
-4.88469
-4.79654
-4.31244
-4.22199
-3.76599
-3.68282
-3.27333
-3.19936
-2.83873
-2.77388
-2.45905
-2.40252
-2.12848
-2.07919
-1.83959
-1.79599
-1.58005
-1.53696
-1.29141
-1.06837
-1.03487
-0.894524
-0.870457
-0.75853
-0.738865
-0.645648
-0.629148
-0.550393
-0.536419
-0.469574
-0.457713
-0.400982
-0.390938
-0.343044
-0.334625
-0.294861
-0.288025
-0.256665
-0.251741
-0.231593
-0.227514
-0.204971
-0.200742
-0.179337
-0.175424
-0.156107
-0.152614
-0.135563
-0.132501
-0.117662
-0.115022
-0.102387
-0.10021
-0.0902572
-0.0887978
-0.0839326
-0.0842822
-0.0947839
-0.102931
-0.192159
-0.380619
-0.435172
-0.826293
-0.951702
-1.84372
-1.93051
-1.93154
-1.92988
-1.92935
-15.5773
-11.0726
-11.0101
-8.77644
-8.78562
-7.2965
-7.30133
-6.18836
-6.18998
-5.35316
-5.3562
-4.84166
-4.84416
-4.26487
-4.26463
-3.72001
-3.72018
-3.23156
-3.23191
-2.80178
-2.80216
-2.42673
-2.42711
-2.1004
-2.10082
-1.81541
-1.81632
-1.56059
-1.56445
-1.28768
-1.04014
-1.04449
-0.879029
-0.87987
-0.746739
-0.746998
-0.635942
-0.636089
-0.54222
-0.542328
-0.462642
-0.462727
-0.395089
-0.395155
-0.338039
-0.338082
-0.290633
-0.290645
-0.253168
-0.253286
-0.229644
-0.229752
-0.202771
-0.202757
-0.17719
-0.177196
-0.154144
-0.154159
-0.133819
-0.133833
-0.11613
-0.116136
-0.101043
-0.101018
-0.08905
-0.0888942
-0.0826584
-0.0817987
-0.091959
-0.0872131
-0.175144
-0.390648
-0.38631
-0.845679
-0.854347
-1.9581
-1.96204
-1.93883
-1.93159
-1.92984
-16.3452
-10.5464
-11.2254
-8.47053
-8.93871
-7.09742
-7.42121
-6.04145
-6.27982
-5.24028
-5.40958
-4.77794
-4.91506
-4.19414
-4.32905
-3.65223
-3.7771
-3.17025
-3.28168
-2.74761
-2.84547
-2.37939
-2.46479
-2.05923
-2.13389
-1.77978
-1.84691
-1.53075
-1.60316
-1.28278
-1.00184
-1.06089
-0.856885
-0.894644
-0.729615
-0.759586
-0.621789
-0.646793
-0.530291
-0.551431
-0.452521
-0.470452
-0.38649
-0.401661
-0.33075
-0.343439
-0.284509
-0.294766
-0.248168
-0.255783
-0.226747
-0.233075
-0.199494
-0.205796
-0.17402
-0.179892
-0.15126
-0.156519
-0.131261
-0.135875
-0.11389
-0.117854
-0.0990975
-0.102306
-0.0873711
-0.0892346
-0.0811698
-0.078875
-0.0897309
-0.067789
-0.153027
-0.409472
-0.3189
-0.883093
-0.713189
-2.11646
-1.99466
-1.94548
-1.93307
-1.93026
-17.345
-9.76112
-11.5781
-8.0357
-9.18418
-6.81174
-7.60924
-5.82983
-6.42078
-5.07906
-5.495
-4.68349
-5.02028
-4.08918
-4.42594
-3.5524
-3.86329
-3.08021
-3.35727
-2.66816
-2.91135
-2.30999
-2.52211
-1.99887
-2.18412
-1.7273
-1.89284
-1.48537
-1.65759
-1.27631
-0.949944
-1.08783
-0.825074
-0.917533
-0.704694
-0.778888
-0.601127
-0.66316
-0.512858
-0.565338
-0.437728
-0.482255
-0.373928
-0.411611
-0.320118
-0.351664
-0.275618
-0.301163
-0.241002
-0.259748
-0.222437
-0.237996
-0.194622
-0.210359
-0.169346
-0.18397
-0.147022
-0.160101
-0.12751
-0.138982
-0.110613
-0.120483
-0.0962741
-0.104319
-0.085021
-0.0899729
-0.0794511
-0.075426
-0.0888154
-0.0440783
-0.124061
-0.442177
-0.2253
-0.94987
-0.509104
-2.33583
-2.02437
-1.95066
-1.93418
-1.93056
-18.6486
-8.60006
-12.1454
-7.41352
-9.57077
-6.39956
-7.90063
-5.52369
-6.63934
-4.84782
-5.62981
-4.54338
-5.17651
-3.93379
-4.57153
-3.40546
-3.99352
-2.94802
-3.47178
-2.55168
-3.01126
-2.20829
-2.60909
-1.91039
-2.26025
-1.65015
-1.9619
-1.41701
-1.73437
-1.26783
-0.879647
-1.13095
-0.779209
-0.95279
-0.668436
-0.808412
-0.571006
-0.688152
-0.487436
-0.586571
-0.416162
-0.500284
-0.355628
-0.426832
-0.30466
-0.364286
-0.262751
-0.311075
-0.230759
-0.266036
-0.216088
-0.245351
-0.187458
-0.217264
-0.162512
-0.190176
-0.140843
-0.165571
-0.122051
-0.143739
-0.105858
-0.124525
-0.0922075
-0.107474
-0.0817438
-0.0913731
-0.0775112
-0.0713192
-0.0902583
-0.0154122
-0.0855942
-0.496291
-0.0940525
-1.06326
-0.214315
-2.6407
-2.04456
-1.95353
-1.93474
-1.9307
18.6486
8.60006
12.1454
7.41352
9.57077
6.39956
7.90063
5.52369
6.63934
4.84782
5.62981
4.54338
5.17651
3.93378
4.57153
3.40546
3.99352
2.94802
3.47178
2.55168
3.01126
2.20829
2.60909
1.91039
2.26025
1.65015
1.9619
1.41701
1.73437
1.26783
0.879646
1.13095
0.779208
0.95279
0.668434
0.808411
0.571005
0.688152
0.487435
0.586571
0.416161
0.500283
0.355627
0.426832
0.304659
0.364286
0.262751
0.311075
0.230759
0.266035
0.216088
0.245351
0.187458
0.217264
0.162512
0.190176
0.140843
0.165571
0.122051
0.143739
0.105858
0.124525
0.0922074
0.107474
0.0817437
0.0913732
0.0775111
0.0713192
0.0902582
0.0154123
0.0855941
0.496292
0.0940526
1.06326
0.214315
2.6407
2.04456
1.95353
1.93474
1.9307
17.345
9.76112
11.5781
8.0357
9.18418
6.81175
7.60924
5.82984
6.42078
5.07906
5.495
4.68349
5.02028
4.08918
4.42595
3.5524
3.8633
3.08021
3.35728
2.66817
2.91135
2.30999
2.52211
1.99887
2.18412
1.7273
1.89284
1.48537
1.65759
1.27631
0.949946
1.08783
0.825075
0.917535
0.704695
0.778889
0.601129
0.663161
0.512859
0.56534
0.437729
0.482256
0.373929
0.411613
0.320119
0.351665
0.275619
0.301164
0.241002
0.259749
0.222438
0.237997
0.194623
0.21036
0.169347
0.183971
0.147023
0.160102
0.12751
0.138983
0.110614
0.120483
0.0962747
0.10432
0.0850215
0.0899735
0.0794516
0.0754266
0.0888159
0.0440787
0.124061
0.442178
0.225301
0.949873
0.509105
2.33583
2.02438
1.95066
1.93418
1.93057
16.3452
10.5464
11.2254
8.47054
8.93871
7.09743
7.42122
6.04146
6.27982
5.24029
5.40959
4.77795
4.91506
4.19414
4.32906
3.65224
3.77711
3.17026
3.28168
2.74761
2.84548
2.37939
2.46479
2.05924
2.1339
1.77978
1.84692
1.53075
1.60317
1.28279
1.00184
1.0609
0.856889
0.894648
0.729619
0.75959
0.621793
0.646796
0.530294
0.551434
0.452524
0.470454
0.386493
0.401663
0.330752
0.343442
0.284511
0.294768
0.24817
0.255785
0.226749
0.233077
0.199496
0.205798
0.174022
0.179894
0.151262
0.156521
0.131263
0.135877
0.113891
0.117856
0.0990988
0.102307
0.0873722
0.0892358
0.0811708
0.0788761
0.0897318
0.0677898
0.153027
0.409473
0.318901
0.883095
0.713191
2.11646
1.99466
1.94548
1.93308
1.93026
15.5773
11.0726
11.0102
8.77645
8.78563
7.29651
7.30134
6.18837
6.18999
5.35317
5.35621
4.84167
4.84417
4.26488
4.26464
3.72002
3.72019
3.23157
3.23192
2.80179
2.80216
2.42674
2.42712
2.1004
2.10083
1.81541
1.81632
1.56059
1.56445
1.28768
1.04015
1.04449
0.879034
0.879874
0.746743
0.747002
0.635946
0.636093
0.542224
0.542331
0.462645
0.46273
0.395092
0.395158
0.338042
0.338084
0.290636
0.290648
0.25317
0.253288
0.229647
0.229754
0.202773
0.202759
0.177192
0.177198
0.154146
0.154161
0.133821
0.133835
0.116131
0.116137
0.101045
0.10102
0.0890514
0.0888956
0.0826596
0.0817999
0.0919601
0.0872141
0.175145
0.39065
0.386311
0.845681
0.854349
1.9581
1.96205
1.93884
1.93159
1.92984
14.9895
11.4211
10.8817
8.99265
8.69247
7.43583
7.22618
6.29069
6.13369
5.43245
5.32355
4.8847
4.79655
4.31245
4.222
3.766
3.68283
3.27333
3.19937
2.83874
2.77389
2.45906
2.40253
2.12848
2.07919
1.83959
1.796
1.58005
1.53697
1.29141
1.06837
1.03488
0.894529
0.870462
0.758534
0.738869
0.645652
0.629152
0.550397
0.536422
0.469578
0.457716
0.400985
0.390941
0.343046
0.334628
0.294864
0.288028
0.256668
0.251743
0.231596
0.227516
0.204973
0.200744
0.17934
0.175426
0.156109
0.152616
0.135565
0.132502
0.117664
0.115023
0.102389
0.100212
0.0902587
0.0887992
0.0839339
0.0842834
0.094785
0.102932
0.192161
0.38062
0.435173
0.826296
0.951704
1.84373
1.93052
1.93155
1.92989
1.92936
14.5446
11.6485
10.8073
9.1453
8.63759
7.53329
7.18006
6.36188
6.09917
5.48805
5.30408
4.91372
4.76477
4.34428
4.19399
3.79708
3.65852
3.30168
3.17829
2.86387
2.75561
2.48105
2.38664
2.14758
2.06518
1.85594
1.78257
1.5926
1.51758
1.29425
1.08902
1.02955
0.905375
0.864566
0.766637
0.733681
0.652293
0.624703
0.55598
0.53263
0.474313
0.454499
0.405013
0.38824
0.346474
0.332427
0.297776
0.28639
0.259109
0.250808
0.232903
0.226018
0.206441
0.199417
0.180789
0.174271
0.15744
0.151614
0.136751
0.131642
0.118709
0.11431
0.103315
0.0997149
0.091127
0.0888398
0.0850003
0.0863616
0.0977048
0.115407
0.205207
0.375947
0.470573
0.817538
1.01839
1.76157
1.90242
1.92437
1.92814
1.92885
14.2154
11.7937
10.7657
9.25179
8.60657
7.6007
7.15254
6.41086
6.07859
5.52657
5.29288
4.93308
4.74386
4.36531
4.17585
3.81783
3.64296
3.32069
3.16486
2.88076
2.744
2.49584
2.37655
2.16041
2.05624
1.86685
1.77382
1.60055
1.50414
1.29636
1.10384
1.0268
0.912889
0.860957
0.772144
0.730432
0.656784
0.621902
0.559751
0.530239
0.47751
0.45247
0.407734
0.386541
0.348794
0.331052
0.299759
0.28539
0.260793
0.250259
0.233771
0.225028
0.207409
0.198555
0.181755
0.173529
0.158331
0.150975
0.137548
0.131096
0.119414
0.113862
0.103947
0.0994185
0.091744
0.0889432
0.0858593
0.0880411
0.100371
0.124998
0.215016
0.374319
0.495879
0.814625
1.06339
1.70349
1.87907
1.91792
1.92651
1.92837
13.9832
11.8831
10.7435
9.32353
8.58998
7.64581
7.13676
6.44347
6.0668
5.55236
5.28672
4.94562
4.73052
4.37879
4.16446
3.83126
3.63329
3.33305
3.15657
2.89176
2.73684
2.50548
2.37033
2.16877
2.05071
1.87391
1.76827
1.60544
1.49515
1.29786
1.11405
1.02554
0.917928
0.858827
0.775769
0.728463
0.659727
0.620195
0.562219
0.528778
0.479601
0.451231
0.409514
0.385506
0.350315
0.330221
0.301067
0.284801
0.261915
0.249949
0.23433
0.224395
0.208027
0.198012
0.182379
0.173068
0.15891
0.150579
0.138067
0.130759
0.119874
0.113589
0.104363
0.0992488
0.0921668
0.0890586
0.0865084
0.0893153
0.102545
0.131975
0.222055
0.3742
0.513297
0.814512
1.09274
1.66401
1.8612
1.91267
1.92515
1.92796
13.8349
11.9341
10.7326
9.36782
8.58182
7.67352
7.12836
6.46341
6.06053
5.56821
5.28359
4.95313
4.72266
4.38677
4.15782
3.83928
3.62772
3.34046
3.15181
2.89837
2.73274
2.51127
2.36677
2.17379
2.04754
1.87813
1.76502
1.60822
1.48964
1.29883
1.12045
1.02504
0.921028
0.857658
0.777967
0.727354
0.661503
0.619227
0.563707
0.527949
0.480862
0.450528
0.410589
0.38492
0.351235
0.329754
0.30186
0.284478
0.262603
0.249786
0.234664
0.224021
0.208393
0.197696
0.182752
0.172801
0.159257
0.150352
0.138379
0.130567
0.120152
0.113435
0.104617
0.0991587
0.0924315
0.0891525
0.0869439
0.0901733
0.104073
0.136526
0.226611
0.374604
0.524231
0.815318
1.11036
1.63948
1.84915
1.90899
1.92417
1.92767
13.7627
11.9572
10.7282
9.38897
8.57856
7.68671
7.12476
6.47288
6.05784
5.57575
5.2823
4.95665
4.71902
4.39048
4.15477
3.84303
3.62518
3.34394
3.14965
2.90147
2.73089
2.51399
2.36516
2.17614
2.0461
1.88011
1.76352
1.60948
1.48702
1.2993
1.12353
1.02489
0.922506
0.857144
0.779004
0.726856
0.66234
0.618791
0.564407
0.527576
0.481455
0.450211
0.411094
0.384656
0.351667
0.329545
0.302235
0.284336
0.262929
0.249717
0.234819
0.223847
0.208563
0.19755
0.182926
0.172679
0.15942
0.150249
0.138525
0.13048
0.120282
0.113366
0.104736
0.09912
0.0925589
0.0892043
0.0871626
0.090605
0.104859
0.138772
0.228851
0.374943
0.529507
0.815965
1.11862
1.62773
1.8431
1.90709
1.92366
1.92752
-13.6267
-11.9377
-10.8746
-9.86321
-9.31959
-8.81675
-8.5389
-8.26773
-8.11718
-7.96842
-7.86583
-7.73002
-7.63433
-7.50965
-7.42266
-7.31033
-7.2322
-7.13157
-7.06174
-6.97204
-6.90998
-6.83051
-6.77571
-6.70576
-6.65754
-6.5959
-6.55271
-6.49586
-6.45113
-6.38329
-6.32062
-6.28603
-6.25102
-6.2291
-6.20349
-6.18672
-6.16642
-6.15296
-6.13652
-6.12559
-6.11219
-6.10329
-6.0924
-6.08518
-6.07639
-6.07062
-6.06368
-6.05924
-6.05409
-6.05101
-6.04769
-6.04538
-6.04234
-6.04035
-6.038
-6.03667
-6.03541
-6.03504
-6.03534
-6.03636
-6.03895
-6.04211
-6.04833
-6.05511
-6.06777
-6.08157
-6.10775
-6.13894
-6.20314
-6.29677
-6.5086
-6.80265
-7.06552
-7.50314
-7.92081
-8.58506
-8.86472
-8.94772
-8.96919
-8.97419
-13.6942
-11.9127
-10.8726
-9.84449
-9.31796
-8.80775
-8.53863
-8.26291
-8.11711
-7.96657
-7.86716
-7.72842
-7.63549
-7.50814
-7.42368
-7.30896
-7.2331
-7.13034
-7.06254
-6.97093
-6.91067
-6.82953
-6.77632
-6.70489
-6.65808
-6.59517
-6.55326
-6.49537
-6.45205
-6.38308
-6.31949
-6.28605
-6.25049
-6.22925
-6.20314
-6.18686
-6.16614
-6.15308
-6.1363
-6.12569
-6.11201
-6.10337
-6.09225
-6.08524
-6.07626
-6.07066
-6.06358
-6.05927
-6.05401
-6.05102
-6.04765
-6.04541
-6.0423
-6.04037
-6.03796
-6.03666
-6.03538
-6.03502
-6.03531
-6.0363
-6.03892
-6.04199
-6.04831
-6.05487
-6.06772
-6.08107
-6.10755
-6.13762
-6.20196
-6.29205
-6.50531
-6.8039
-7.05853
-7.50394
-7.91095
-8.60044
-8.87259
-8.95018
-8.96985
-8.97439
-13.8331
-11.858
-10.87
-9.80572
-9.31568
-8.78911
-8.53862
-8.25288
-8.11722
-7.96268
-7.87006
-7.72498
-7.63803
-7.50491
-7.4259
-7.30603
-7.23507
-7.1277
-7.06429
-6.96857
-6.9122
-6.82742
-6.77765
-6.70304
-6.65926
-6.59359
-6.55444
-6.49431
-6.454
-6.38265
-6.31716
-6.28615
-6.2494
-6.22959
-6.20239
-6.18718
-6.16556
-6.15335
-6.13583
-6.12591
-6.11163
-6.10355
-6.09194
-6.08538
-6.07601
-6.07077
-6.06337
-6.05934
-6.05384
-6.05105
-6.04756
-6.04547
-6.04221
-6.0404
-6.03788
-6.03666
-6.0353
-6.03496
-6.03525
-6.03617
-6.03888
-6.04174
-6.04827
-6.05438
-6.06765
-6.08005
-6.10721
-6.13493
-6.19975
-6.28239
-6.49861
-6.8069
-7.04391
-7.50627
-7.88979
-8.63252
-8.88824
-8.95496
-8.97112
-8.97477
-14.0509
-11.7638
-10.8705
-9.74397
-9.31485
-8.75942
-8.54003
-8.23686
-8.11809
-7.95631
-7.87506
-7.71921
-7.64241
-7.49952
-7.42976
-7.30115
-7.2385
-7.12331
-7.06732
-6.96463
-6.91487
-6.82391
-6.77998
-6.69995
-6.66131
-6.59095
-6.55646
-6.49244
-6.4572
-6.382
-6.31345
-6.28647
-6.24762
-6.23023
-6.20116
-6.18776
-6.1646
-6.15383
-6.13505
-6.1263
-6.111
-6.10387
-6.09142
-6.08564
-6.07559
-6.07096
-6.06302
-6.05946
-6.05356
-6.0511
-6.04742
-6.04558
-6.04207
-6.04046
-6.03774
-6.03666
-6.03519
-6.03488
-6.03517
-6.03597
-6.03884
-6.04134
-6.04826
-6.05361
-6.06762
-6.07844
-6.10684
-6.13075
-6.19683
-6.26739
-6.48822
-6.81276
-7.02028
-7.51176
-7.85426
-8.68408
-8.91145
-8.96176
-8.97289
-8.9753
-14.3602
-11.6138
-10.8804
-9.65433
-9.31907
-8.71629
-8.54478
-8.21345
-8.12068
-7.94671
-7.88304
-7.71028
-7.64943
-7.49121
-7.43596
-7.29363
-7.24403
-7.11655
-7.07223
-6.95858
-6.91918
-6.81853
-6.78375
-6.6952
-6.66464
-6.58687
-6.55967
-6.48943
-6.46198
-6.38107
-6.30808
-6.28728
-6.24499
-6.23133
-6.19931
-6.18872
-6.16315
-6.15463
-6.13388
-6.12696
-6.11004
-6.1044
-6.09064
-6.08606
-6.07495
-6.07129
-6.0625
-6.05968
-6.05314
-6.0512
-6.04721
-6.04575
-6.04184
-6.04057
-6.03754
-6.03668
-6.03503
-6.03478
-6.03507
-6.03569
-6.0388
-6.04076
-6.04831
-6.05249
-6.06772
-6.07612
-6.10666
-6.12489
-6.19373
-6.24638
-6.47369
-6.8233
-6.98529
-7.52321
-7.79924
-8.75974
-8.94174
-8.97013
-8.975
-8.97593
-14.7794
-11.3834
-10.9099
-9.52905
-9.334
-8.65591
-8.55592
-8.1805
-8.12652
-7.93271
-7.89539
-7.69688
-7.66035
-7.47877
-7.44566
-7.2824
-7.25268
-7.10646
-7.07991
-6.94955
-6.92595
-6.8105
-6.78967
-6.68814
-6.66985
-6.58077
-6.56459
-6.4847
-6.46891
-6.37983
-6.30062
-6.28894
-6.24121
-6.23317
-6.19659
-6.19028
-6.16101
-6.15592
-6.13215
-6.12801
-6.10864
-6.10526
-6.08949
-6.08675
-6.07401
-6.07182
-6.06174
-6.06005
-6.05253
-6.05138
-6.04689
-6.04603
-6.04151
-6.04074
-6.03725
-6.03673
-6.03481
-6.03466
-6.03495
-6.03531
-6.03882
-6.03996
-6.04849
-6.05093
-6.06809
-6.07292
-6.10696
-6.117
-6.19128
-6.21839
-6.45426
-6.84134
-6.93526
-7.54513
-7.71683
-8.86654
-8.97818
-8.97944
-8.97728
-8.97659
-15.3344
-11.036
-10.9757
-9.35634
-9.36825
-8.57241
-8.57809
-8.1347
-8.13795
-7.91244
-7.91418
-7.67699
-7.67707
-7.4604
-7.46055
-7.26582
-7.26599
-7.09159
-7.09173
-6.93625
-6.93638
-6.79869
-6.79881
-6.67774
-6.67789
-6.57175
-6.57207
-6.47741
-6.47877
-6.37819
-6.29046
-6.29205
-6.23584
-6.23615
-6.19267
-6.19277
-6.1579
-6.15796
-6.12964
-6.12968
-6.10659
-6.10662
-6.08781
-6.08784
-6.07265
-6.07266
-6.06064
-6.06065
-6.05167
-6.0517
-6.04643
-6.04645
-6.04103
-6.04103
-6.03684
-6.03683
-6.03453
-6.03451
-6.03483
-6.0348
-6.03892
-6.03886
-6.04891
-6.04878
-6.06895
-6.06855
-6.10823
-6.10654
-6.19072
-6.18204
-6.42879
-6.87111
-6.86459
-7.58458
-7.59531
-9.01486
-9.01904
-8.98889
-8.97949
-8.97723
-16.0613
-10.5191
-11.1039
-9.11838
-9.4348
-8.45684
-8.61821
-8.07103
-8.15853
-7.88308
-7.94253
-7.64762
-7.70245
-7.43335
-7.48324
-7.24145
-7.28627
-7.06973
-7.10979
-6.91673
-6.95233
-6.78137
-6.81281
-6.6625
-6.69018
-6.55847
-6.58334
-6.46628
-6.4927
-6.37604
-6.27672
-6.29746
-6.22821
-6.24088
-6.187
-6.19665
-6.1534
-6.16113
-6.12599
-6.13227
-6.10361
-6.10872
-6.08539
-6.08953
-6.07068
-6.07399
-6.05906
-6.0616
-6.05045
-6.05223
-6.04575
-6.04708
-6.04034
-6.04148
-6.03626
-6.03702
-6.03415
-6.03436
-6.03473
-6.03413
-6.0392
-6.03736
-6.04975
-6.04581
-6.07064
-6.06258
-6.11115
-6.09265
-6.19386
-6.13548
-6.39549
-6.91883
-6.76487
-7.6524
-7.41744
-9.2198
-9.06126
-8.9975
-8.98143
-8.97777
-17.0099
-9.75714
-11.3349
-8.78834
-9.55313
-8.2957
-8.68667
-7.98196
-8.19363
-7.84032
-7.98505
-7.60425
-7.7408
-7.39355
-7.5176
-7.20562
-7.31701
-7.03761
-7.13716
-6.88806
-6.97654
-6.75595
-6.83407
-6.64014
-6.70884
-6.53893
-6.60028
-6.44941
-6.51236
-6.37319
-6.25818
-6.30648
-6.2173
-6.24827
-6.17879
-6.20264
-6.14686
-6.16601
-6.12069
-6.13625
-6.09929
-6.11196
-6.08186
-6.09215
-6.06782
-6.07604
-6.05678
-6.06311
-6.04871
-6.05308
-6.04476
-6.04804
-6.03933
-6.04218
-6.03545
-6.03736
-6.03365
-6.03419
-6.03466
-6.03323
-6.03975
-6.03529
-6.05123
-6.0417
-6.07364
-6.05434
-6.11675
-6.07397
-6.2034
-6.07618
-6.35166
-6.99364
-6.62348
-7.76512
-7.15808
-9.50318
-9.0997
-9.00422
-8.98286
-8.97818
-18.2486
-8.64189
-11.7308
-8.32579
-9.7523
-8.06857
-8.79892
-7.8562
-8.25128
-7.7776
-8.04854
-7.54014
-7.79844
-7.33484
-7.56935
-7.1528
-7.36334
-6.99029
-7.17844
-6.84584
-7.01307
-6.71854
-6.86617
-6.60722
-6.73701
-6.51011
-6.62568
-6.42395
-6.54006
-6.36934
-6.23308
-6.32096
-6.20156
-6.25965
-6.16683
-6.2118
-6.1373
-6.17346
-6.11293
-6.14232
-6.09296
-6.1169
-6.07671
-6.09613
-6.06365
-6.07918
-6.05347
-6.06543
-6.04621
-6.05444
-6.0433
-6.04947
-6.03785
-6.04326
-6.03427
-6.03792
-6.03297
-6.03402
-6.03466
-6.032
-6.04073
-6.0324
-6.05373
-6.03592
-6.07868
-6.04283
-6.12655
-6.04839
-6.22319
-6.00077
-6.29317
-7.10895
-6.42163
-7.94781
-6.78064
-9.89654
-9.12586
-9.008
-8.98367
-8.97843
)
;

boundaryField
{
    F1_1
    {
        type            calculated;
        value           nonuniform List<scalar> 
80
(
18.9508
7.9734
11.9792
8.04091
9.87589
7.90466
8.86792
7.71465
8.28879
7.55118
7.90321
7.48925
7.75842
7.28661
7.55877
7.10997
7.36529
6.95292
7.18591
6.81338
7.02271
6.6904
6.87633
6.58291
6.74694
6.48912
6.6354
6.4056
6.55175
6.36441
6.21717
6.32743
6.19094
6.26464
6.15865
6.21581
6.13074
6.17672
6.1076
6.14499
6.08862
6.11908
6.07317
6.09788
6.06078
6.08055
6.05118
6.06641
6.04446
6.05492
6.04217
6.05001
6.03675
6.04364
6.03341
6.03804
6.03243
6.03375
6.03457
6.03114
6.04125
6.03058
6.0552
6.03242
6.08175
6.03602
6.13268
6.03348
6.23618
5.95849
6.25959
7.17869
6.30274
8.0604
6.55697
10.1254
9.13453
9.00902
8.98388
8.9785
)
;
    }
    F1_2
    {
        type            calculated;
        value           nonuniform List<scalar> 
80
(
-19.3866
-7.90844
-12.4944
-7.04687
-9.80668
-6.15589
-8.07747
-5.34255
-6.77201
-4.71148
-5.7122
-4.45971
-5.26989
-3.84109
-4.65895
-3.31799
-4.07188
-2.86942
-3.54075
-2.48244
-3.07147
-2.14786
-2.66151
-1.85781
-2.30613
-1.60425
-2.00341
-1.37599
-1.77933
-1.26304
-0.839213
-1.15743
-0.752122
-0.974162
-0.646956
-0.826268
-0.553153
-0.703262
-0.472368
-0.599409
-0.403382
-0.511187
-0.344788
-0.436044
-0.295512
-0.371935
-0.255151
-0.317104