/*--------------------------------*- C++ -*----------------------------------*\
| =========                 |                                                 |
| \\      /  F ield         | OpenFOAM: The Open Source CFD Toolbox           |
|  \\    /   O peration     | Version:  5.x                                   |
|   \\  /    A nd           | Web:      www.OpenFOAM.org                      |
|    \\/     M anipulation  |                                                 |
\*---------------------------------------------------------------------------*/
FoamFile
{
    version     2.0;
    format      ascii;
    class       volScalarField;
    location    "6.3";
    object      gradTx;
}
// * * * * * * * * * * * * * * * * * * * * * * * * * * * * * * * * * * * * * //

dimensions      [0 -1 0 1 0 0 0];

internalField   nonuniform List<scalar> 
3200
(
45.2103
3.71191
1.64874
1.5402
0.814967
0.771379
0.466735
0.447279
0.293829
0.282723
0.170835
0.166692
0.180697
0.180847
0.173157
0.172315
0.159537
0.15842
0.144299
0.143116
0.128832
0.127662
0.11386
0.112765
0.100226
0.099339
0.0901653
0.0901594
0.0950948
0.164788
0.0825179
0.0552719
0.0534434
0.0416938
0.0408665
0.0332679
0.032709
0.0269912
0.0265616
0.0220024
0.0216557
0.0179158
0.0176282
0.0144794
0.0142321
0.011463
0.0112358
0.0085719
0.00833302
0.00520806
0.00507721
0.00507719
0.0050296
0.00396459
0.00385151
0.00220067
0.00203518
-0.000271831
-0.000509283
-0.00386749
-0.0042299
-0.00949669
-0.0101019
-0.0191748
-0.0203227
-0.0381808
-0.0408533
-0.0840448
-0.0929678
-0.238796
-0.61746
-0.436337
-0.681807
-0.713176
-1.26851
-1.24289
-0.0558085
-0.00753117
-0.00152583
-52.9463
47.8949
3.10526
1.57731
1.35452
0.774076
0.681019
0.436327
0.394724
0.271789
0.248196
0.160332
0.151487
0.160987
0.161196
0.155218
0.153445
0.143365
0.141001
0.129825
0.127319
0.116008
0.113529
0.102601
0.100282
0.0903778
0.0885145
0.0814438
0.081595
0.0883844
0.137397
0.0766169
0.0516304
0.0475584
0.0380251
0.036251
0.0301933
0.0290046
0.0244634
0.0235512
0.0199337
0.019198
0.0162313
0.0156209
0.0131228
0.0125981
0.0104001
0.00991781
0.00780188
0.0072977
0.00485882
0.00458079
0.00453605
0.0044321
0.00359142
0.00335177
0.00204262
0.00169124
-0.000141963
-0.000646707
-0.00331891
-0.00409013
-0.00828863
-0.00957897
-0.0168369
-0.0192954
-0.0336964
-0.0394856
-0.0750672
-0.0949893
-0.227142
-0.517854
-0.414962
-0.602218
-0.666804
-1.08529
-1.03163
-0.121874
-0.0209026
-0.00438754
-54.7424
50.5627
2.57646
1.45367
1.18315
0.71369
0.596725
0.397795
0.345423
0.245776
0.216239
0.146669
0.135548
0.141649
0.141792
0.137111
0.134907
0.126884
0.123934
0.115005
0.111875
0.10283
0.0997326
0.0909974
0.0881026
0.080208
0.0778982
0.0724334
0.0727651
0.0799849
0.114397
0.0692842
0.0471523
0.0418919
0.0340459
0.0318068
0.0269239
0.0254342
0.0217904
0.0206489
0.0177497
0.0168296
0.0144526
0.0136891
0.0116874
0.0110309
0.00926871
0.00866516
0.00696738
0.00633974
0.00442313
0.00407504
0.00399727
0.00386406
0.00319419
0.0028948
0.00184624
0.00140656
-6.52425e-05
-0.000697441
-0.00284637
-0.00381326
-0.00719691
-0.00881737
-0.0146911
-0.0177905
-0.0295565
-0.0369263
-0.0667159
-0.0925215
-0.209146
-0.433993
-0.381981
-0.527536
-0.606276
-0.920952
-0.854618
-0.155587
-0.0308959
-0.00673295
-56.5384
53.2099
2.11324
1.29594
1.01974
0.639203
0.515709
0.353401
0.298013
0.216958
0.185884
0.130667
0.118921
0.12255
0.122581
0.118905
0.116601
0.1102
0.107107
0.0999535
0.0966667
0.0894142
0.0861622
0.0791601
0.0761229
0.0698147
0.0674082
0.0631911
0.0636597
0.0704978
0.0945788
0.0610322
0.0419993
0.0363287
0.0298425
0.0274683
0.0235188
0.0219499
0.0190172
0.017817
0.0154865
0.0145194
0.0126093
0.0118067
0.010198
0.009508
0.0080909
0.00745627
0.00609006
0.00543334
0.0039247
0.00355847
0.0034607
0.00331747
0.00278214
0.00246779
0.00162551
0.00116316
-2.21149e-05
-0.000687514
-0.00242113
-0.00343974
-0.00617572
-0.00788565
-0.0126562
-0.0159388
-0.0255924
-0.0334702
-0.058524
-0.086421
-0.186821
-0.361206
-0.341098
-0.455527
-0.53631
-0.771854
-0.702913
-0.166327
-0.036868
-0.00833284
-58.3341
55.8356
1.70413
1.11656
0.860498
0.554435
0.436246
0.304729
0.251629
0.186141
0.156495
0.112927
0.101678
0.103594
0.103518
0.100644
0.0984593
0.0933845
0.090442
0.0847468
0.0816174
0.0758385
0.0727418
0.0671641
0.064274
0.0592654
0.0569905
0.0537614
0.0542995
0.0603209
0.0770653
0.0521996
0.0363118
0.0307982
0.0254746
0.0231928
0.0200184
0.0185202
0.0161748
0.0150303
0.0131687
0.0122468
0.0107216
0.00995667
0.00867197
0.00801413
0.00688178
0.00627662
0.00518436
0.00456101
0.00338056
0.00303114
0.00292594
0.00278656
0.00236124
0.00206189
0.00138957
0.000948672
2.10102e-07
-0.000634866
-0.00202449
-0.00299753
-0.00519557
-0.00683152
-0.0106808
-0.0138324
-0.0216994
-0.029327
-0.0502184
-0.0774205
-0.161537
-0.296199
-0.294833
-0.384864
-0.460155
-0.634935
-0.569914
-0.160782
-0.0388032
-0.0090642
-60.1296
58.4412
1.3387
0.923928
0.703258
0.462152
0.357316
0.252921
0.205741
0.15389
0.127663
0.0938942
0.0839092
0.0847182
0.0845679
0.0823561
0.0804332
0.0764833
0.0738871
0.0694376
0.066674
0.0621555
0.0594205
0.0550607
0.0525099
0.0486067
0.046611
0.0441809
0.0447199
0.049715
0.0612162
0.0430078
0.0302092
0.02526
0.020985
0.018953
0.0164509
0.0151244
0.0132842
0.0122722
0.0108134
0.00999845
0.00880356
0.00812737
0.00712081
0.00653923
0.00565157
0.00511645
0.00425988
0.00371095
0.00280318
0.00249405
0.00239255
0.00226708
0.00193529
0.0016709
0.00114436
0.000754476
9.9932e-06
-0.000552042
-0.00164452
-0.00250633
-0.00423791
-0.00568886
-0.00873341
-0.0115373
-0.0178159
-0.0246533
-0.0416604
-0.0661434
-0.134231
-0.236633
-0.244912
-0.314791
-0.380019
-0.507609
-0.45068
-0.143751
-0.0370488
-0.00890212
-61.9247
61.0291
1.00749
0.723529
0.546836
0.364418
0.278369
0.198825
0.16004
0.120615
0.0991321
0.0739099
0.0657084
0.0658806
0.0656998
0.0640561
0.0624882
0.0595279
0.0574064
0.0540609
0.0518008
0.0484012
0.0461643
0.0428849
0.0407998
0.0378717
0.0362488
0.0344817
0.034962
0.0388489
0.0465555
0.0335996
0.0237927
0.0196949
0.0164056
0.014732
0.0128364
0.0117491
0.0103606
0.00953194
0.0084323
0.00776524
0.00686473
0.00631128
0.00555263
0.00507657
0.00440724
0.00396913
0.00332309
0.00287523
0.00220184
0.00194864
0.0018601
0.00175584
0.00150664
0.00129038
0.000893683
0.000574459
1.24731e-05
-0.000448005
-0.00127378
-0.00198033
-0.00329149
-0.00448245
-0.00679561
-0.00910324
-0.0139101
-0.0195729
-0.0328033
-0.0531221
-0.105552
-0.180832
-0.192528
-0.244904
-0.29739
-0.387663
-0.341445
-0.118711
-0.0321522
-0.00790437
-63.7196
63.6027
0.701943
0.518838
0.390643
0.262829
0.199161
0.143098
0.114365
0.0866215
0.0707509
0.0532447
0.0471726
0.047057
0.0468902
0.0457532
0.0445989
0.042539
0.0409745
0.0386407
0.0369732
0.0346004
0.0329498
0.0306614
0.0291234
0.0270845
0.0258924
0.0246926
0.0250679
0.02783
0.0327212
0.0240655
0.0171478
0.0140974
0.0117616
0.0105198
0.00918956
0.00838589
0.00741449
0.00680254
0.00603388
0.00554135
0.00491201
0.00450338
0.00397315
0.00362163
0.00315366
0.00283012
0.00237838
0.00204854
0.00158369
0.00139664
0.00132828
0.0012504
0.00107667
0.000917086
0.000639902
0.000404148
1.08885e-05
-0.000329361
-0.000907808
-0.00143016
-0.00234988
-0.00323116
-0.00485803
-0.00656921
-0.00997011
-0.0141897
-0.0236627
-0.0388165
-0.0759595
-0.127574
-0.138516
-0.175012
-0.213249
-0.273178
-0.239272
-0.088224
-0.0247631
-0.00619386
-65.5142
66.1659
0.414194
0.311952
0.234434
0.158675
0.119649
0.0862777
0.0686498
0.0521532
0.0424352
0.0321222
0.0283985
0.0282356
0.0281194
0.0274509
0.0267457
0.0255302
0.0245735
0.023194
0.0221737
0.0207707
0.0197608
0.0184078
0.0174671
0.0162633
0.0155363
0.0148404
0.0150783
0.0167258
0.0194288
0.0144618
0.0103482
0.00847129
0.00707389
0.00631123
0.00552165
0.00502935
0.00445403
0.0040794
0.00362441
0.00332294
0.00295046
0.00270034
0.00238651
0.00217134
0.00189429
0.00169623
0.00142878
0.00122723
0.000954425
0.000839892
0.000796837
0.000748789
0.000646134
0.000548488
0.000384462
0.000240134
7.18059e-06
-0.000201192
-0.000544087
-0.000864099
-0.0014098
-0.00195005
-0.00291709
-0.00396759
-0.00599735
-0.00859641
-0.0142949
-0.0236313
-0.0457881
-0.0759437
-0.083482
-0.105051
-0.128241
-0.162445
-0.141784
-0.0542336
-0.0155784
-0.00394177
-67.3086
68.7227
0.136913
0.104076
0.0781557
0.0530512
0.0399103
0.0288278
0.0228894
0.0174138
0.0141432
0.0107361
0.00948195
0.00941223
0.00937076
0.00915008
0.00891305
0.00851115
0.00818937
0.00773284
0.00738963
0.00692522
0.00658549
0.00613767
0.00582127
0.00542317
0.00517899
0.00495094
0.00503231
0.0055795
0.00644316
0.004824
0.00345917
0.002826
0.00236074
0.00210368
0.00184183
0.00167612
0.00148554
0.00135947
0.00120879
0.00110735
0.00098401
0.000899852
0.000795925
0.000723522
0.000631766
0.000565119
0.000476537
0.000408782
0.000318827
0.000280282
0.000265592
0.00024936
0.000215393
0.000182543
0.000128231
7.96635e-05
2.48768e-06
-6.7644e-05
-0.000181283
-0.000289009
-0.000469947
-0.00065187
-0.000972803
-0.00132681
-0.00200181
-0.00287914
-0.00478163
-0.00793325
-0.0152968
-0.0252179
-0.0278869
-0.0350255
-0.0427915
-0.0539077
-0.0469712
-0.0182873
-0.00531299
-0.00135212
-69.1029
68.7149
0.15088
0.128425
0.107468
0.0852116
0.0726967
0.0607379
0.0533356
0.0448795
0.0387599
0.0310028
0.0281912
0.0283039
0.0282018
0.0273679
0.0264697
0.0249538
0.023767
0.0221229
0.0209294
0.0193731
0.0182776
0.016891
0.0159454
0.0148005
0.0141238
0.0135338
0.0138315
0.0155092
0.0180942
0.0137194
0.010064
0.00838541
0.0071747
0.00650862
0.00583025
0.0053973
0.00489326
0.00455512
0.00414413
0.00386295
0.00351471
0.00327285
0.0029681
0.00275097
0.00246861
0.00225612
0.00196271
0.0017272
0.00140514
0.0012925
0.00131022
0.00131197
0.00127923
0.00124068
0.00117293
0.00111883
0.00104255
0.000985941
0.000910091
0.000853321
0.000775279
0.000709816
0.000606715
0.00049261
0.000266505
-7.7097e-05
-0.000894808
-0.00243448
-0.00622319
-0.0117942
-0.015078
-0.0220641
-0.0294994
-0.0404438
-0.0360555
-0.0140908
-0.00409849
-0.00104338
-69.8074
66.1422
0.45601
0.385215
0.322455
0.255245
0.218068
0.182031
0.160049
0.134545
0.116345
0.0928105
0.0844566
0.0849202
0.0846348
0.0821061
0.0794338
0.0748482
0.0713192
0.0663506
0.0628026
0.0581008
0.0548446
0.0506553
0.0478441
0.0443828
0.042368
0.0405659
0.0414392
0.0464913
0.054561
0.0411295
0.0301128
0.0251375
0.0215023
0.0195264
0.0174809
0.0161948
0.0146731
0.0136683
0.0124272
0.0115915
0.0105399
0.00982107
0.0089008
0.00825551
0.00740303
0.00677159
0.00588583
0.00518506
0.00420705
0.00387229
0.0039313
0.0039373
0.00383794
0.00372321
0.00351824
0.00335738
0.00312688
0.0029586
0.00272951
0.00256082
0.00232534
0.00213096
0.00182059
0.00148231
0.000804217
-0.000212323
-0.00265554
-0.00721346
-0.0185983
-0.035474
-0.0450859
-0.0661744
-0.0883577
-0.121945
-0.108869
-0.0417935
-0.012018
-0.00304178
-69.4222
63.5622
0.771332
0.641684
0.537621
0.424077
0.363393
0.302763
0.266903
0.223918
0.194144
0.154011
0.140369
0.141566
0.141158
0.13685
0.132475
0.1247
0.118929
0.110522
0.104722
0.0967708
0.0914489
0.0843645
0.0797688
0.0739073
0.0706038
0.067491
0.0688797
0.0773527
0.091888
0.068443
0.0499201
0.0418361
0.0357636
0.0325469
0.0291013
0.0270017
0.0244324
0.0227909
0.0206941
0.0193288
0.0175518
0.0163774
0.0148225
0.0137684
0.0123286
0.0112973
0.00980156
0.00865402
0.00698324
0.00643634
0.00655452
0.00656685
0.00639727
0.00620937
0.00586181
0.00559872
0.00520873
0.0049337
0.00454653
0.004271
0.00387376
0.00355675
0.00303559
0.00248562
0.00135548
-0.00029047
-0.00433167
-0.0117194
-0.0307537
-0.0594443
-0.0746346
-0.110241
-0.14676
-0.205312
-0.183843
-0.0680041
-0.0191055
-0.00477986
-69.0369
60.9701
1.10392
0.897129
0.753166
0.590795
0.508717
0.422503
0.374043
0.312763
0.272357
0.214152
0.195689
0.198277
0.197836
0.191597
0.185651
0.174472
0.166644
0.154588
0.146728
0.135336
0.128124
0.117974
0.111744
0.10333
0.0988319
0.0942361
0.096037
0.107972
0.130734
0.0955597
0.0693098
0.0584542
0.0499107
0.0455767
0.0406679
0.0378274
0.0341546
0.0319318
0.0289317
0.0270825
0.0245396
0.0229489
0.0207243
0.0192967
0.0172379
0.0158415
0.0137034
0.0121439
0.00971449
0.00897381
0.00918199
0.0092037
0.00895736
0.00870194
0.00820201
0.00784516
0.007286
0.00691331
0.0063591
0.00598607
0.005419
0.00499073
0.00425176
0.00351215
0.00192739
-0.000272785
-0.00587392
-0.0157593
-0.0425228
-0.0839546
-0.103367
-0.154271
-0.204281
-0.29188
-0.262592
-0.0915371
-0.0248101
-0.00610022
-68.6515
58.3615
1.46126
1.15006
0.969447
0.754301
0.654205
0.540734
0.481695
0.400773
0.351281
0.272703
0.250166
0.255109
0.254747
0.246332
0.239037
0.22411
0.214529
0.198487
0.188874
0.173733
0.164916
0.151427
0.143807
0.132595
0.127064
0.120725
0.122789
0.138158
0.171898
0.12232
0.0880839
0.07498
0.0638895
0.0586295
0.0521517
0.0486865
0.0438188
0.0411039
0.0371234
0.0348641
0.0314893
0.0295459
0.0265942
0.0248503
0.0221208
0.0204155
0.0175821
0.0156687
0.0123782
0.0114734
0.011817
0.0118513
0.0115178
0.0112043
0.0105365
0.0100997
0.00935584
0.0089002
0.00816446
0.00770892
0.00695871
0.00643716
0.00546798
0.00457252
0.00252395
-0.000119033
-0.00724476
-0.0191242
-0.0537051
-0.109346
-0.130839
-0.198336
-0.260298
-0.383123
-0.347012
-0.110897
-0.028594
-0.00687073
-68.2659
55.7326
1.85136
1.39777
1.18711
0.913205
0.800229
0.656787
0.590222
0.487526
0.43137
0.329013
0.303544
0.312153
0.31198
0.301022
0.292729
0.273535
0.262672
0.242129
0.231242
0.211878
0.201895
0.184646
0.176014
0.161634
0.155329
0.146879
0.149009
0.167609
0.216395
0.148466
0.106013
0.0914253
0.0776351
0.0717312
0.0635152
0.0596018
0.053397
0.0503266
0.0452463
0.0426903
0.0383819
0.0361833
0.0324158
0.0304434
0.0269627
0.0250347
0.0214241
0.0192486
0.0149466
0.013923
0.0144643
0.0145137
0.0140776
0.0137209
0.0128618
0.0123666
0.0114142
0.0108983
0.00995865
0.0094436
0.00848931
0.00790153
0.00668129
0.00567904
0.00314432
0.000214067
-0.00842541
-0.0215809
-0.064045
-0.136102
-0.156471
-0.242623
-0.31388
-0.480724
-0.439431
-0.124104
-0.0299546
-0.00699637
-67.88
53.0805
2.2828
1.63576
1.4073
1.06567
0.947471
0.769765
0.700195
0.572418
0.513306
0.382247
0.355558
0.369548
0.369644
0.355606
0.346856
0.322626
0.311202
0.285385
0.27395
0.249648
0.239166
0.217519
0.20845
0.190349
0.183679
0.172609
0.17457
0.195853
0.26556
0.173593
0.122827
0.107839
0.0910654
0.0849254
0.0747067
0.0706088
0.0628499
0.0596299
0.0532684
0.0505868
0.0451902
0.0428835
0.0381657
0.0360969
0.0317426
0.0297212
0.0252088
0.0229136
0.0173839
0.0163101
0.0171314
0.0171955
0.0166342
0.0162576
0.0151727
0.0146519
0.0134551
0.0129135
0.0117359
0.0111959
0.0100053
0.00939125
0.00788592
0.0068469
0.00378055
0.000775584
-0.00942536
-0.0228652
-0.073201
-0.164926
-0.179471
-0.287505
-0.363639
-0.586649
-0.542811
-0.128464
-0.0284676
-0.00643237
-67.4939
50.4038
2.76475
1.85701
1.63202
1.2092
1.09709
0.878417
0.812496
0.654562
0.59812
0.431306
0.405946
0.427499
0.427874
0.409979
0.401603
0.371205
0.360309
0.328065
0.317172
0.286865
0.276882
0.24989
0.241249
0.218608
0.212206
0.197818
0.199359
0.22216
0.321193
0.197073
0.138211
0.124324
0.104071
0.0982829
0.0856535
0.0817624
0.0721214
0.0690589
0.0611433
0.0585919
0.051875
0.0496803
0.0438098
0.041842
0.0364293
0.0345075
0.0289048
0.0267081
0.0196429
0.0186215
0.0198289
0.0199024
0.0191835
0.0188228
0.017461
0.0169642
0.0154699
0.0149541
0.0134877
0.0129743
0.0114983
0.0109167
0.00907195
0.00809591
0.00441438
0.00162499
-0.0102957
-0.0226735
-0.0807013
-0.196837
-0.198732
-0.333663
-0.407522
-0.703249
-0.661012
-0.12025
-0.0238621
-0.00519776
-67.1076
47.7033
3.30672
2.05095
1.86465
1.3403
1.25098
0.98096
0.928477
0.732647
0.687349
0.474708
0.454458
0.486298
0.486834
0.463971
0.45723
0.419004
0.410269
0.369892
0.36117
0.323269
0.31528
0.281527
0.274607
0.246217
0.241052
0.22239
0.223297
0.245419
0.385752
0.217942
0.151796
0.141064
0.116497
0.111914
0.0962509
0.0931461
0.0811299
0.0786822
0.0688039
0.0667638
0.0583791
0.0566242
0.0492979
0.0477249
0.0409765
0.0394411
0.0324647
0.0306974
0.0216604
0.0208437
0.0225718
0.0226411
0.0217185
0.021428
0.0197148
0.0193165
0.0174457
0.0170329
0.0152014
0.0147912
0.0129555
0.0124927
0.0102233
0.0094532
0.00501259
0.00283972
-0.0111477
-0.0206558
-0.085877
-0.233318
-0.212671
-0.382264
-0.442531
-0.833367
-0.799153
-0.0942612
-0.0161477
-0.00338732
-66.7211
44.9836
3.91811
2.20211
2.11081
1.454
1.41209
1.0748
1.05019
0.804711
0.783272
0.510413
0.500885
0.546348
0.546731
0.517318
0.514118
0.465624
0.461495
0.410452
0.406336
0.358477
0.354708
0.312091
0.308824
0.272897
0.270438
0.24618
0.246387
0.263949
0.462638
0.234745
0.163164
0.158357
0.128125
0.125989
0.106346
0.104886
0.0897558
0.0886029
0.076151
0.0751897
0.0646181
0.0637911
0.054556
0.053815
0.0453153
0.0445924
0.0358163
0.0349775
0.023349
0.0229643
0.0253811
0.0254195
0.0242283
0.0240903
0.021916
0.0217278
0.0193631
0.0191684
0.0168584
0.0166652
0.0143579
0.014141
0.0113147
0.0109574
0.00552015
0.0045271
-0.0121787
-0.0164094
-0.0877639
-0.276522
-0.219
-0.435237
-0.464316
-0.980486
-0.964121
-0.0432009
-0.00581911
-0.00117802
-66.3346
44.9836
3.9181
2.20211
2.11081
1.454
1.41209
1.0748
1.05019
0.804711
0.783273
0.510413
0.500885
0.546348
0.546731
0.517318
0.514118
0.465624
0.461495
0.410453
0.406337
0.358477
0.354708
0.312091
0.308824
0.272897
0.270439
0.24618
0.246387
0.263949
0.462639
0.234746
0.163164
0.158358
0.128125
0.125989
0.106346
0.104887
0.0897561
0.0886032
0.0761513
0.0751899
0.0646183
0.0637913
0.0545562
0.0538151
0.0453154
0.0445926
0.0358164
0.0349776
0.0233491
0.0229643
0.0253812
0.0254196
0.0242284
0.0240904
0.0219161
0.0217279
0.0193633
0.0191685
0.0168585
0.0166654
0.0143581
0.0141411
0.0113148
0.0109575
0.00552034
0.0045273
-0.0121783
-0.0164089
-0.0877621
-0.276517
-0.218997
-0.435232
-0.46431
-0.980478
-0.964113
-0.0432005
-0.00581905
-0.00117805
-66.3346
47.7033
3.30672
2.05095
1.86465
1.3403
1.25098
0.98096
0.928477
0.732648
0.68735
0.474708
0.454458
0.486298
0.486834
0.463971
0.457231
0.419004
0.410269
0.369892
0.361171
0.323269
0.31528
0.281527
0.274607
0.246217
0.241052
0.22239
0.223298
0.245419
0.385753
0.217943
0.151796
0.141064
0.116498
0.111915
0.0962512
0.0931464
0.0811302
0.0786825
0.0688041
0.0667641
0.0583793
0.0566244
0.0492981
0.0477251
0.0409767
0.0394412
0.0324648
0.0306975
0.0216604
0.0208438
0.0225719
0.0226412
0.0217186
0.0214282
0.0197149
0.0193166
0.0174458
0.017033
0.0152015
0.0147913
0.0129556
0.0124928
0.0102234
0.00945333
0.00501276
0.00283993
-0.0111472
-0.0206552
-0.0858754
-0.233314
-0.212668
-0.382259
-0.442525
-0.833359
-0.799146
-0.0942603
-0.0161475
-0.00338733
-66.7212
50.4037
2.76475
1.85701
1.63202
1.2092
1.09709
0.878417
0.812496
0.654562
0.59812
0.431306
0.405946
0.427499
0.427874
0.409979
0.401603
0.371205
0.360309
0.328066
0.317172
0.286865
0.276883
0.24989
0.241249
0.218608
0.212206
0.197818
0.199359
0.222161
0.321194
0.197073
0.138211
0.124324
0.104071
0.0982832
0.0856538
0.0817626
0.0721217
0.0690592
0.0611436
0.0585921
0.0518752
0.0496805
0.04381
0.0418421
0.0364295
0.0345076
0.0289049
0.0267082
0.019643
0.0186215
0.019829
0.0199025
0.0191836
0.0188229
0.0174611
0.0169643
0.01547
0.0149542
0.0134878
0.0129744
0.0114984
0.0109168
0.00907206
0.00809603
0.00441454
0.0016252
-0.0102953
-0.0226729
-0.0806997
-0.196834
-0.198729
-0.333659
-0.407518
-0.703243
-0.661006
-0.120249
-0.0238619
-0.0051977
-67.1076
53.0805
2.2828
1.63576
1.4073
1.06567
0.947471
0.769765
0.700195
0.572418
0.513306
0.382247
0.355559
0.369548
0.369644
0.355607
0.346856
0.322626
0.311203
0.285385
0.27395
0.249648
0.239166
0.21752
0.208451
0.190349
0.183679
0.172609
0.174571
0.195854
0.265561
0.173594
0.122828
0.107839
0.0910657
0.0849257
0.0747069
0.070609
0.0628501
0.0596301
0.0532686
0.050587
0.0451904
0.0428837
0.0381659
0.0360971
0.0317428
0.0297213
0.0252089
0.0229137
0.0173839
0.0163102
0.0171315
0.0171956
0.0166343
0.0162577
0.0151728
0.014652
0.0134552
0.0129136
0.011736
0.011196
0.0100054
0.00939134
0.00788601
0.00684701
0.00378069
0.000775768
-0.00942502
-0.0228646
-0.0731996
-0.164924
-0.179469
-0.287501
-0.363635
-0.586644
-0.542806
-0.128463
-0.0284673
-0.00643226
-67.4939
55.7326
1.85136
1.39777
1.18711
0.913205
0.800229
0.656787
0.590222
0.487526
0.43137
0.329013
0.303544
0.312153
0.31198
0.301023
0.292729
0.273535
0.262672
0.242129
0.231243
0.211878
0.201896
0.184646
0.176014
0.161634
0.155329
0.146879
0.149009
0.167609
0.216395
0.148466
0.106013
0.0914255
0.0776353
0.0717314
0.0635154
0.0596019
0.0533972
0.0503268
0.0452465
0.0426905
0.0383821
0.0361834
0.0324159
0.0304435
0.0269628
0.0250348
0.0214242
0.0192487
0.0149466
0.0139231
0.0144644
0.0145137
0.0140776
0.013721
0.0128619
0.0123667
0.0114143
0.0108984
0.00995872
0.00944368
0.00848939
0.00790161
0.00668137
0.00567913
0.00314444
0.000214227
-0.00842511
-0.0215804
-0.0640438
-0.1361
-0.156469
-0.24262
-0.313877
-0.480719
-0.439427
-0.124103
-0.0299543
-0.00699622
-67.88
58.3615
1.46126
1.15006
0.969447
0.754301
0.654205
0.540734
0.481695
0.400773
0.351281
0.272703
0.250166
0.255109
0.254747
0.246332
0.239037
0.224111
0.214529
0.198487
0.188874
0.173733
0.164916
0.151427
0.143807
0.132595
0.127064
0.120726
0.122789
0.138158
0.171898
0.12232
0.0880842
0.0749802
0.0638896
0.0586297
0.0521519
0.0486866
0.0438189
0.041104
0.0371236
0.0348642
0.0314895
0.029546
0.0265943
0.0248504
0.0221209
0.0204156
0.0175822
0.0156688
0.0123783
0.0114734
0.011817
0.0118514
0.0115179
0.0112044
0.0105366
0.0100998
0.00935591
0.00890027
0.00816452
0.00770898
0.00695877
0.00643722
0.00546805
0.00457259
0.00252405
-0.0001189
-0.00724452
-0.0191238
-0.0537042
-0.109344
-0.130837
-0.198334
-0.260295
-0.383119
-0.347008
-0.110896
-0.0285936
-0.00687055
-68.2659
60.9701
1.10392
0.897129
0.753166
0.590795
0.508717
0.422503
0.374043
0.312763
0.272357
0.214152
0.195689
0.198277
0.197836
0.191597
0.185651
0.174472
0.166645
0.154588
0.146728
0.135336
0.128124
0.117974
0.111744
0.10333
0.0988321
0.0942362
0.0960372
0.107972
0.130735
0.09556
0.06931
0.0584544
0.0499108
0.0455768
0.040668
0.0378275
0.0341547
0.0319319
0.0289318
0.0270826
0.0245397
0.022949
0.0207243
0.0192968
0.017238
0.0158416
0.0137035
0.012144
0.00971453
0.00897384
0.00918203
0.00920374
0.0089574
0.00870198
0.00820206
0.00784521
0.00728605
0.00691335
0.00635915
0.00598611
0.00541905
0.00499078
0.00425181
0.00351221
0.00192747
-0.000272682
-0.00587373
-0.015759
-0.0425221
-0.0839533
-0.103365
-0.154269
-0.204278
-0.291877
-0.26259
-0.0915362
-0.0248098
-0.00610005
-68.6515
63.5622
0.771331
0.641684
0.537621
0.424077
0.363393
0.302763
0.266903
0.223918
0.194144
0.154011
0.140369
0.141567
0.141158
0.13685
0.132475
0.1247
0.118929
0.110522
0.104722
0.0967709
0.0914489
0.0843646
0.0797689
0.0739074
0.0706039
0.0674911
0.0688798
0.0773529
0.0918882
0.0684432
0.0499202
0.0418362
0.0357637
0.032547
0.0291014
0.0270017
0.0244325
0.022791
0.0206941
0.0193288
0.0175518
0.0163774
0.0148226
0.0137684
0.0123287
0.0112973
0.0098016
0.00865406
0.00698326
0.00643636
0.00655454
0.00656687
0.0063973
0.0062094
0.00586184
0.00559875
0.00520876
0.00493373
0.00454656
0.00427103
0.0038738
0.00355678
0.00303562
0.00248566
0.00135553
-0.000290396
-0.00433154
-0.0117191
-0.0307532
-0.0594434
-0.0746336
-0.110239
-0.146758
-0.20531
-0.183842
-0.0680034
-0.0191053
-0.0047797
-69.037
66.1422
0.456009
0.385215
0.322455
0.255245
0.218068
0.182031
0.160049
0.134545
0.116345
0.0928105
0.0844566
0.0849202
0.0846349
0.0821062
0.0794339
0.0748482
0.0713193
0.0663507
0.0628026
0.0581009
0.0548446
0.0506553
0.0478441
0.0443829
0.0423681
0.0405659
0.0414392
0.0464914
0.0545612
0.0411296
0.0301129
0.0251376
0.0215024
0.0195264
0.017481
0.0161948
0.0146732
0.0136683
0.0124272
0.0115916
0.0105399
0.0098211
0.00890083
0.00825555
0.00740306
0.00677162
0.00588585
0.00518508
0.00420706
0.0038723
0.00393132
0.00393731
0.00383796
0.00372323
0.00351826
0.00335739
0.0031269
0.00295862
0.00272953
0.00256084
0.00232536
0.00213098
0.00182061
0.00148234
0.000804248
-0.00021228
-0.00265546
-0.00721332
-0.018598
-0.0354734
-0.0450852
-0.0661735
-0.0883568
-0.121943
-0.108868
-0.0417931
-0.0120178
-0.00304167
-69.4222
68.7149
0.15088
0.128425
0.107468
0.0852116
0.0726967
0.0607379
0.0533356
0.0448795
0.0387599
0.0310028
0.0281912
0.0283039
0.0282019
0.0273679
0.0264697
0.0249538
0.023767
0.0221229
0.0209294
0.0193731
0.0182777
0.016891
0.0159454
0.0148005
0.0141238
0.0135338
0.0138315
0.0155092
0.0180942
0.0137194
0.010064
0.00838543
0.00717471
0.00650864
0.00583027
0.00539732
0.00489327
0.00455513
0.00414414
0.00386296
0.00351472
0.00327286
0.00296811
0.00275098
0.00246861
0.00225612
0.00196272
0.0017272
0.00140514
0.0012925
0.00131022
0.00131197
0.00127924
0.00124069
0.00117293
0.00111883
0.00104256
0.000985947
0.000910097
0.000853327
0.000775285
0.000709822
0.000606721
0.000492617
0.000266514
-7.70831e-05
-0.000894783
-0.00243443
-0.00622309
-0.011794
-0.0150778
-0.0220638
-0.0294991
-0.0404434
-0.0360551
-0.0140906
-0.00409844
-0.00104334
-69.8074
68.7223
0.136745
0.103798
0.0777624
0.052444
0.0390546
0.0275033
0.0210895
0.0150025
0.0125849
0.011923
0.011573
0.0110198
0.0105817
0.0099679
0.00952198
0.00893971
0.00852175
0.00797858
0.00758765
0.0070781
0.00671273
0.00623962
0.00590849
0.00549544
0.00524266
0.00500635
0.0050849
0.00563341
0.00650258
0.00486696
0.00348856
0.00284918
0.00237945
0.00212
0.00185581
0.00168866
0.00149649
0.0013694
0.00121752
0.00111529
0.000991009
0.000906223
0.000801535
0.000728611
0.000636209
0.000569099
0.000479912
0.0004117
0.000321145
0.000282373
0.000267667
0.000251407
0.000217349
0.000184411
0.000129959
8.12853e-05
3.96548e-06
-6.62689e-05
-0.00018004
-0.000287857
-0.00046891
-0.000650912
-0.000971941
-0.00132601
-0.00200109
-0.00287847
-0.00478101
-0.00793263
-0.0152961
-0.0252171
-0.0278863
-0.035025
-0.0427912
-0.0539075
-0.046971
-0.0182872
-0.00531296
-0.00135208
-69.1029
66.1646
0.413691
0.311118
0.233258
0.156855
0.11709
0.0823045
0.0632556
0.0448606
0.0376846
0.0357566
0.0347271
0.0330549
0.0317522
0.029897
0.0285714
0.0268126
0.0255702
0.0239296
0.0227677
0.0212285
0.0201425
0.0187132
0.0177287
0.0164799
0.0157273
0.0150065
0.0152359
0.0168874
0.0196079
0.0145906
0.0104361
0.00854074
0.00712994
0.00636018
0.00556355
0.00506699
0.00448686
0.00410918
0.00365058
0.00334676
0.00297145
0.00271946
0.00240333
0.00218661
0.00190761
0.00170818
0.0014389
0.00123599
0.000961363
0.000846155
0.000803061
0.000754933
0.000652002
0.000554094
0.000389645
0.000245001
1.16125e-05
-0.000197066
-0.000540359
-0.000860643
-0.00140669
-0.00194717
-0.0029145
-0.0039652
-0.00599519
-0.0085944
-0.0142931
-0.0236294
-0.0457861
-0.0759414
-0.0834803
-0.10505
-0.12824
-0.162445
-0.141783
-0.0542333
-0.0155783
-0.00394165
-67.3086
63.6006
0.701108
0.517448
0.388696
0.2598
0.194927
0.136476
0.105395
0.0742699
0.0625744
0.0595542
0.0579069
0.0550751
0.0529448
0.0498049
0.0476382
0.0446647
0.0426347
0.0398616
0.0379628
0.0353609
0.033586
0.0311689
0.0295596
0.0274445
0.0262107
0.0249686
0.02533
0.0280986
0.0330228
0.0242797
0.0172933
0.0142129
0.0118548
0.0106014
0.00925928
0.00844865
0.00746913
0.0068522
0.00607744
0.00558108
0.00494695
0.00453527
0.00400115
0.0036471
0.00317583
0.00285005
0.00239522
0.00206315
0.0015952
0.00140705
0.00133866
0.00126065
0.00108645
0.000926437
0.000648537
0.000412265
1.82694e-05
-0.00032248
-0.0009016
-0.0014244
-0.0023447
-0.00322636
-0.00485373
-0.00656522
-0.00996652
-0.0141863
-0.0236596
-0.0388134
-0.0759561
-0.12757
-0.138513
-0.17501
-0.213247
-0.273176
-0.239271
-0.0882236
-0.024763
-0.00619369
-65.5142
61.0262
1.00633
0.721583
0.54414
0.360184
0.272506
0.189553
0.147537
0.102902
0.0871171
0.0832968
0.0811341
0.0770673
0.0741777
0.0696738
0.0667372
0.0624792
0.0597288
0.0557585
0.0531861
0.0494601
0.0470551
0.0435924
0.0414106
0.0383738
0.0366944
0.0348665
0.0353278
0.0392236
0.0469844
0.0338985
0.0239943
0.0198562
0.0165354
0.0148462
0.0129337
0.0118371
0.0104369
0.00960152
0.00849315
0.0078209
0.00691355
0.00635596
0.00559176
0.00511227
0.00443823
0.00399708
0.00334664
0.00289575
0.00221785
0.00196315
0.00187463
0.00177021
0.00152033
0.00130349
0.000905761
0.000585835
2.27935e-05
-0.000438362
-0.0012651
-0.00197226
-0.00328425
-0.00447573
-0.0067896
-0.00909765
-0.0139051
-0.0195682
-0.032799
-0.0531178
-0.105547
-0.180826
-0.192524
-0.244901
-0.297388
-0.387661
-0.341444
-0.118711
-0.032152
-0.00790417
-63.7196
58.4375
1.33721
0.921425
0.699844
0.456717
0.349897
0.240992
0.189783
0.13038
0.111181
0.106973
0.104437
0.0990124
0.0954752
0.0894801
0.0858891
0.0802333
0.0768718
0.0715995
0.0684555
0.0635065
0.0605666
0.0559646
0.0532959
0.0492489
0.047184
0.0446729
0.0451882
0.050194
0.0617797
0.04339
0.0304646
0.0254668
0.0211508
0.0190999
0.0165756
0.0152376
0.0133821
0.0123617
0.0108914
0.0100701
0.00886614
0.00818491
0.00717097
0.00658522
0.0056913
0.00515247
0.00429006
0.00373741
0.00282356
0.0025126
0.00241124
0.00228558
0.00195289
0.00168778
0.00115987
0.000769125
2.3238e-05
-0.000539624
-0.00163338
-0.00249593
-0.00422863
-0.0056802
-0.0087257
-0.0115301
-0.0178095
-0.0246473
-0.0416548
-0.0661378
-0.134225
-0.236625
-0.244907
-0.314787
-0.380017
-0.507606
-0.450678
-0.14375
-0.0370486
-0.00890193
-61.9247
55.8311
1.70233
1.1135
0.856409
0.547798
0.427371
0.290124
0.232358
0.15625
0.134646
0.130583
0.127856
0.120882
0.116871
0.10919
0.105124
0.0978957
0.0940912
0.0873554
0.083797
0.0774725
0.0741446
0.0682594
0.0652362
0.0600446
0.0576915
0.0543581
0.054869
0.0609012
0.0777741
0.0526629
0.0366177
0.03105
0.0256756
0.0233726
0.0201699
0.0186588
0.0162938
0.01514
0.0132637
0.0123346
0.0107978
0.0100272
0.00873305
0.00807048
0.00693016
0.0063208
0.00522109
0.00459352
0.00340515
0.00305367
0.00294881
0.00280923
0.00238273
0.00208257
0.00140848
0.000966615
1.63561e-05
-0.000619657
-0.00201092
-0.00298479
-0.00518426
-0.00682092
-0.0106714
-0.0138236
-0.0216915
-0.0293196
-0.0502116
-0.0774137
-0.161529
-0.296189
-0.294826
-0.38486
-0.460151
-0.634932
-0.569912
-0.160781
-0.038803
-0.00906402
-60.1295
53.2047
2.11114
1.2923
1.01504
0.631351
0.505517
0.336076
0.275665
0.17994
0.157409
0.154139
0.151445
0.142633
0.138414
0.128756
0.124484
0.115421
0.111428
0.102984
0.0992493
0.0913186
0.0878248
0.0804398
0.0772633