/*--------------------------------*- C++ -*----------------------------------*\
| =========                 |                                                 |
| \\      /  F ield         | OpenFOAM: The Open Source CFD Toolbox           |
|  \\    /   O peration     | Version:  5.x                                   |
|   \\  /    A nd           | Web:      www.OpenFOAM.org                      |
|    \\/     M anipulation  |                                                 |
\*---------------------------------------------------------------------------*/
FoamFile
{
    version     2.0;
    format      ascii;
    class       volScalarField;
    location    "1.4";
    object      gradTy;
}
// * * * * * * * * * * * * * * * * * * * * * * * * * * * * * * * * * * * * * //

dimensions      [0 -1 0 1 0 0 0];

internalField   nonuniform List<scalar> 
3200
(
17.3047
8.29247
11.1842
8.01191
9.34031
7.77868
8.4636
7.56702
7.96651
7.40412
7.64461
7.33501
7.51553
7.16592
7.34651
7.0152
7.18489
6.87849
7.03514
6.7536
6.89729
6.63971
6.77078
6.53666
6.65546
6.44438
6.5525
6.36187
6.4707
6.3098
6.18661
6.26524
6.16246
6.21089
6.13719
6.17139
6.118
6.14264
6.10418
6.12183
6.09444
6.10694
6.08768
6.09641
6.08312
6.08906
6.08017
6.08402
6.07853
6.08067
6.07824
6.07924
6.07795
6.07801
6.07891
6.07755
6.08152
6.07812
6.08654
6.08004
6.0954
6.08381
6.1107
6.09018
6.13753
6.09945
6.18693
6.10689
6.28484
6.06051
6.3555
7.17424
6.48474
8.01468
6.84474
9.9676
9.19517
9.07705
9.05266
9.0474
16.142
9.33813
10.815
8.44268
9.15507
7.98898
8.35583
7.68569
7.89866
7.47795
7.60639
7.37533
7.47155
7.20967
7.30507
7.05691
7.14664
6.91716
7.00002
6.78915
6.86517
6.67224
6.74159
6.56623
6.6291
6.47103
6.52839
6.3858
6.44473
6.31391
6.20954
6.25281
6.17608
6.20192
6.14678
6.16492
6.12497
6.13802
6.10924
6.1186
6.0981
6.10472
6.09031
6.09493
6.08499
6.08814
6.08148
6.08352
6.07942
6.08056
6.07874
6.07927
6.0783
6.07832
6.079
6.07827
6.08124
6.07943
6.08572
6.08226
6.09375
6.08757
6.10767
6.0967
6.13208
6.1116
6.17682
6.13304
6.26482
6.13656
6.41422
7.05864
6.68728
7.83174
7.22325
9.57361
9.16921
9.07351
9.05211
9.04741
15.2516
10.0526
10.5999
8.75011
9.04502
8.13801
8.28958
7.76907
7.85619
7.52982
7.58257
7.40257
7.44192
7.23913
7.2774
7.08511
7.12117
6.94333
6.97665
6.81323
6.84381
6.69429
6.72219
6.58628
6.6116
6.48908
6.5123
6.40169
6.42637
6.31696
6.22656
6.24519
6.1856
6.19619
6.15343
6.16078
6.1298
6.13507
6.11277
6.11654
6.10065
6.10333
6.09215
6.09402
6.08631
6.08759
6.08243
6.08325
6.08007
6.08053
6.07912
6.07934
6.07859
6.07859
6.07912
6.07882
6.08112
6.08038
6.08527
6.08385
6.09277
6.09025
6.10586
6.10134
6.12883
6.1203
6.17105
6.15214
6.25518
6.19635
6.45824
6.98364
6.82916
7.7189
7.48337
9.28978
9.13087
9.06697
9.05086
9.04719
14.5693
10.5373
10.4807
8.97179
8.98309
8.24471
8.25025
7.82816
7.83027
7.56655
7.56808
7.42105
7.42199
7.25896
7.25895
7.10419
7.10426
6.96106
6.96116
6.82956
6.82966
6.70925
6.70934
6.5999
6.6
6.5013
6.50156
6.41217
6.41337
6.31927
6.23923
6.2407
6.19231
6.19259
6.15807
6.15816
6.13318
6.13322
6.11523
6.11526
6.10245
6.10247
6.09347
6.09348
6.08727
6.08728
6.08312
6.08313
6.08056
6.08057
6.07942
6.07942
6.07883
6.07882
6.07926
6.07925
6.08111
6.0811
6.08505
6.08502
6.09224
6.09218
6.10483
6.10469
6.12701
6.12661
6.16804
6.16635
6.252
6.2433
6.4917
6.93581
6.92926
7.65104
7.66179
9.08454
9.08872
9.0585
9.04909
9.04682
14.0483
10.863
10.4197
9.13269
8.95119
8.32169
8.22804
7.8703
7.81502
7.59268
7.55955
7.43362
7.40863
7.27229
7.24671
7.11707
7.09308
6.97306
6.95094
6.84062
6.82033
6.71939
6.70089
6.60913
6.59237
6.50957
6.49442
6.41903
6.40419
6.32101
6.24863
6.23821
6.19707
6.19038
6.16133
6.15654
6.13554
6.13208
6.11697
6.11449
6.10373
6.10197
6.0944
6.09318
6.08795
6.08712
6.08363
6.08309
6.08094
6.08064
6.07966
6.07952
6.07903
6.07902
6.0794
6.07958
6.08116
6.08163
6.08498
6.08588
6.09199
6.09359
6.1043
6.10712
6.12608
6.13123
6.16675
6.17704
6.25258
6.27994
6.51731
6.90599
7.00021
7.61161
7.78372
8.93602
9.04791
9.04917
9.04701
9.04632
13.6548
11.0791
10.3925
9.24941
8.93724
8.37726
8.21643
7.90038
7.80646
7.61127
7.55475
7.44218
7.39973
7.28119
7.23864
7.12574
7.08576
6.98115
6.94425
6.84808
6.81423
6.72624
6.69536
6.61537
6.58739
6.51514
6.48969
6.42348
6.39775
6.32233
6.25556
6.23694
6.20045
6.18907
6.16361
6.15556
6.1372
6.1314
6.11819
6.11404
6.10463
6.10169
6.09507
6.09302
6.08845
6.08705
6.084
6.0831
6.08122
6.08072
6.07985
6.07961
6.0792
6.07919
6.07952
6.07984
6.08124
6.08204
6.08498
6.08651
6.09189
6.09462
6.10406
6.10888
6.12568
6.13461
6.16644
6.18511
6.25507
6.30817
6.53686
6.88794
7.05044
7.58973
7.86642
8.8291
9.01151
9.03996
9.04485
9.04578
13.3645
11.2197
10.3836
9.33294
8.93324
8.4169
8.21106
7.92159
7.80198
7.62432
7.55221
7.44794
7.39389
7.28706
7.23339
7.13149
7.08102
6.98654
6.93994
6.85306
6.81031
6.73081
6.69181
6.61954
6.58418
6.51885
6.48661
6.42631
6.39331
6.32331
6.26056
6.2364
6.20283
6.18832
6.16519
6.15499
6.13835
6.13101
6.11905
6.11379
6.10526
6.10154
6.09554
6.09294
6.08881
6.08704
6.08427
6.08313
6.08143
6.08079
6.07999
6.07969
6.07933
6.07932
6.07963
6.08004
6.08132
6.08233
6.08502
6.08697
6.09188
6.09535
6.10399
6.11015
6.12558
6.13706
6.16664
6.19111
6.25821
6.32935
6.55149
6.8774
7.08559
7.57833
7.92165
8.75337
8.98125
9.03168
9.04283
9.04525
13.16
11.308
10.3833
9.39048
8.93396
8.44416
8.20907
7.93603
7.79985
7.63317
7.55098
7.4517
7.39018
7.29082
7.23008
7.1352
7.07806
6.99002
6.93724
6.85628
6.80785
6.73377
6.6896
6.62224
6.58218
6.52124
6.48465
6.42807
6.39035
6.32401
6.26403
6.23623
6.20444
6.18791
6.16625
6.15467
6.13912
6.1308
6.11962
6.11366
6.10569
6.10147
6.09586
6.09292
6.08905
6.08705
6.08446
6.08317
6.08158
6.08085
6.08009
6.07976
6.07943
6.07941
6.07972
6.08018
6.08139
6.08254
6.08507
6.08729
6.09191
6.09586
6.104
6.11102
6.12562
6.13877
6.16702
6.19538
6.26116
6.34447
6.56194
6.87155
7.10933
7.57289
7.95733
8.70176
8.95806
9.02493
9.04113
9.04479
13.0297
11.3593
10.3858
9.42662
8.93604
8.46126
8.20863
7.94502
7.79896
7.63867
7.55044
7.45398
7.388
7.29304
7.22814
7.13741
7.07633
6.9921
6.93568
6.8582
6.80643
6.73554
6.68831
6.62385
6.58102
6.52266
6.4835
6.42907
6.38855
6.32446
6.26621
6.23622
6.20545
6.18771
6.1669
6.15451
6.1396
6.13069
6.11997
6.11359
6.10595
6.10144
6.09607
6.09291
6.08921
6.08706
6.08458
6.08319
6.08167
6.0809
6.08016
6.0798
6.07949
6.07948
6.07978
6.08028
6.08144
6.08268
6.08512
6.08749
6.09195
6.09618
6.10404
6.11158
6.12569
6.13985
6.16738
6.19813
6.2634
6.35421
6.56869
6.86856
7.12402
7.57059
7.97858
8.66966
8.94243
9.02019
9.03991
9.04446
12.9662
11.3828
10.3878
9.44406
8.93754
8.46951
8.20866
7.94934
7.79867
7.6413
7.55026
7.45505
7.38699
7.29407
7.22725
7.13844
7.07554
6.99307
6.93496
6.85909
6.80578
6.73636
6.68773
6.6246
6.58049
6.52333
6.48297
6.42953
6.38769
6.32468
6.26726
6.23625
6.20593
6.18763
6.16721
6.15444
6.13982
6.13065
6.12014
6.11357
6.10608
6.10143
6.09616
6.09291
6.08928
6.08707
6.08464
6.08321
6.08172
6.08092
6.0802
6.07983
6.07952
6.07951
6.07981
6.08032
6.08146
6.08274
6.08514
6.08759
6.09197
6.09634
6.10406
6.11184
6.12574
6.14038
6.16759
6.19948
6.26459
6.35898
6.57201
6.86732
7.13105
7.56981
7.98849
8.65427
8.93457
9.01775
9.03927
9.04428
-11.903
-10.234
-9.10123
-7.87284
-7.13351
-6.32595
-5.82069
-5.23965
-4.87242
-4.44956
-4.19396
-3.91299
-3.70983
-3.43135
-3.2333
-2.97375
-2.79405
-2.5644
-2.40735
-2.20894
-2.07407
-1.90465
-1.78981
-1.64593
-1.54833
-1.42573
-1.3412
-1.23187
-1.14745
-1.02151
-0.906585
-0.843873
-0.781398
-0.742856
-0.698599
-0.67012
-0.636341
-0.614436
-0.588321
-0.571407
-0.55129
-0.538316
-0.522973
-0.51314
-0.501607
-0.494292
-0.485829
-0.480581
-0.474705
-0.471269
-0.467677
-0.465232
-0.462079
-0.459976
-0.457409
-0.455756
-0.453814
-0.452597
-0.451213
-0.450383
-0.449507
-0.449082
-0.448833
-0.449091
-0.45019
-0.45238
-0.457899
-0.467498
-0.491467
-0.536315
-0.648357
-0.822484
-1.00034
-1.32357
-1.6595
-2.21982
-2.45668
-2.52706
-2.54527
-2.54951
-11.97
-10.2128
-9.10524
-7.85345
-7.13639
-6.31399
-5.82384
-5.23121
-4.87474
-4.44296
-4.19506
-3.90995
-3.71291
-3.42819
-3.23582
-2.9706
-2.79608
-2.56153
-2.40903
-2.20642
-2.07546
-1.90247
-1.79097
-1.64407
-1.54932
-1.4242
-1.34217
-1.23085
-1.14908
-1.02103
-0.904452
-0.843814
-0.780385
-0.743026
-0.697903
-0.670264
-0.635794
-0.61453
-0.587874
-0.571453
-0.550919
-0.538324
-0.522661
-0.513116
-0.501343
-0.49424
-0.485601
-0.480505
-0.474505
-0.471172
-0.467526
-0.465155
-0.461931
-0.459887
-0.457264
-0.455658
-0.453675
-0.452493
-0.451079
-0.450273
-0.449377
-0.448963
-0.4487
-0.448944
-0.450033
-0.452133
-0.457622
-0.466809
-0.490517
-0.533512
-0.645755
-0.822213
-0.994404
-1.32293
-1.65039
-2.23261
-2.4632
-2.529
-2.54568
-2.54953
-12.1075
-10.1657
-9.11522
-7.81282
-7.14363
-6.28887
-5.83122
-5.21343
-4.88018
-4.42909
-4.19772
-3.90346
-3.71957
-3.4214
-3.2413
-2.96387
-2.80056
-2.55541
-2.41274
-2.20106
-2.07856
-1.89785
-1.79356
-1.64013
-1.55152
-1.42092
-1.34431
-1.22863
-1.15254
-1.02006
-0.900037
-0.843817
-0.778273
-0.743446
-0.696444
-0.670614
-0.634646
-0.614764
-0.586939
-0.571582
-0.550145
-0.538366
-0.522014
-0.513087
-0.500795
-0.494153
-0.485132
-0.480364
-0.474095
-0.470983
-0.467219
-0.465006
-0.461628
-0.459714
-0.456969
-0.455466
-0.453394
-0.452288
-0.45081
-0.450055
-0.449115
-0.448725
-0.448434
-0.44865
-0.449722
-0.451637
-0.457082
-0.465425
-0.48868
-0.527822
-0.640467
-0.821991
-0.982087
-1.3222
-1.63095
-2.25932
-2.47615
-2.53275
-2.54645
-2.54955
-12.3229
-10.0832
-9.13546
-7.74704
-7.15845
-6.248
-5.84513
-5.18437
-4.89043
-4.40652
-4.20299
-3.89263
-3.73087
-3.40995
-3.25073
-2.95262
-2.80836
-2.54522
-2.41925
-2.19214
-2.084
-1.89017
-1.79812
-1.63359
-1.5554
-1.41548
-1.34798
-1.2248
-1.15823
-1.01855
-0.893024
-0.844142
-0.774877
-0.744294
-0.694072
-0.671303
-0.632782
-0.615241
-0.585424
-0.571873
-0.548898
-0.538503
-0.520978
-0.513099
-0.499926
-0.494063
-0.484391
-0.480182
-0.473455
-0.470716
-0.466745
-0.464797
-0.461159
-0.459466
-0.456516
-0.455188
-0.452964
-0.451986
-0.4504
-0.449733
-0.448718
-0.448369
-0.448033
-0.448208
-0.449263
-0.450885
-0.456313
-0.463329
-0.486093
-0.519075
-0.632304
-0.822504
-0.962444
-1.3226
-1.5986
-2.30235
-2.49537
-2.53807
-2.5475
-2.54956
-12.6281
-9.94923
-9.17352
-7.64942
-7.1863
-6.18696
-5.86947
-5.14074
-4.90838
-4.37282
-4.21261
-3.87593
-3.7486
-3.39208
-3.26577
-2.93526
-2.82095
-2.52957
-2.42982
-2.17848
-2.09288
-1.87843
-1.80558
-1.6236
-1.56174
-1.40713
-1.35387
-1.21868
-1.16681
-1.01644
-0.8829
-0.845235
-0.769877
-0.74587
-0.690539
-0.672554
-0.630007
-0.616134
-0.583181
-0.57246
-0.547063
-0.538838
-0.519466
-0.513232
-0.498669
-0.494029
-0.483334
-0.480001
-0.472554
-0.470396
-0.466086
-0.464552
-0.460506
-0.459161
-0.45589
-0.454837
-0.452374
-0.451599
-0.449843
-0.449313
-0.448184
-0.447902
-0.447501
-0.447619
-0.448669
-0.449869
-0.455366
-0.46049
-0.482982
-0.507005
-0.620946
-0.824907
-0.93387
-1.32623
-1.549
-2.36567
-2.52045
-2.54458
-2.5487
-2.5495
-13.0407
-9.73929
-9.24169
-7.50951
-7.23574
-6.09877
-5.91038
-5.07737
-4.93855
-4.32419
-4.22936
-3.85092
-3.77556
-3.36506
-3.28903
-2.90929
-2.84066
-2.50629
-2.44648
-2.15822
-2.10693
-1.86104
-1.8174
-1.6088
-1.57178
-1.3947
-1.36302
-1.20921
-1.17931
-1.01362
-0.868897
-0.847788
-0.762769
-0.748642
-0.685448
-0.674724
-0.626015
-0.61772
-0.579971
-0.573556
-0.544459
-0.539536
-0.517341
-0.513609
-0.496923
-0.494145
-0.481886
-0.479888
-0.471343
-0.470062
-0.465215
-0.464306
-0.459643
-0.458831
-0.455071
-0.454438
-0.451612
-0.451146
-0.449131
-0.448811
-0.447508
-0.447333
-0.44684
-0.446885
-0.44796
-0.448572
-0.454326
-0.456847
-0.479701
-0.491227
-0.605874
-0.830993
-0.893841
-1.33653
-1.47551
-2.45532
-2.55061
-2.55173
-2.5499
-2.54933
-13.5856
-9.41738
-9.35942
-7.31141
-7.31985
-5.97275
-5.9772
-4.98631
-4.98783
-4.25486
-4.25754
-3.81385
-3.816
-3.32472
-3.32448
-2.87092
-2.87104
-2.47205
-2.47231
-2.12849
-2.12877
-1.83556
-1.83584
-1.58713
-1.58743
-1.37645
-1.37705
-1.19475
-1.19722
-1.00992
-0.849905
-0.852852
-0.752772
-0.753324
-0.678199
-0.678353
-0.62034
-0.620416
-0.575435
-0.575485
-0.540809
-0.540846
-0.514394
-0.51442
-0.494533
-0.494551
-0.479936
-0.479945
-0.469747
-0.469777
-0.464091
-0.464115
-0.458528
-0.458522
-0.454028
-0.454027
-0.450654
-0.450655
-0.448249
-0.448247
-0.446685
-0.446673
-0.446054
-0.446006
-0.447167
-0.446966
-0.453311
-0.452287
-0.476768
-0.47122
-0.586277
-0.843459
-0.838507
-1.35885
-1.36827
-2.58021
-2.58441
-2.55887
-2.55091
-2.549
-14.2975
-8.93123
-9.55691
-7.03117
-7.45832
-5.79277
-6.08393
-4.85565
-5.06658
-4.15617
-4.30364
-3.75901
-3.87623
-3.26478
-3.37812
-2.81444
-2.91743
-2.42187
-2.51193
-2.08501
-2.16238
-1.79834
-1.86423
-1.5555
-1.61152
-1.34973
-1.39837
-1.17289
-1.2227
-1.00511
-0.824352
-0.861998
-0.738701
-0.760985
-0.667883
-0.684254
-0.612278
-0.624854
-0.569029
-0.578737
-0.535698
-0.543143
-0.51031
-0.515952
-0.491266
-0.495462
-0.477318
-0.480327
-0.467655
-0.469635
-0.462651
-0.46406
-0.4571
-0.458302
-0.452715
-0.453661
-0.44947
-0.450168
-0.447178
-0.447653
-0.445706
-0.445945
-0.445151
-0.444986
-0.446334
-0.445004
-0.452496
-0.446612
-0.47494
-0.446292
-0.560897
-0.866307
-0.762061
-1.40149
-1.21283
-2.75329
-2.61927
-2.56519
-2.55156
-2.54847
-15.2243
-8.20553
-9.8806
-6.63292
-7.6806
-5.5346
-6.25153
-4.66748
-5.19027
-4.01521
-4.37748
-3.67774
-3.96566
-3.17588
-3.45888
-2.73131
-2.98778
-2.34828
-2.57225
-2.02136
-2.21365
-1.74393
-1.90762
-1.50926
-1.64832
-1.31057
-1.43066
-1.13999
-1.25886
-0.998794
-0.790025
-0.877548
-0.718763
-0.773222
-0.653139
-0.693642
-0.60078
-0.631976
-0.559944
-0.584042
-0.528504
-0.54699
-0.504621
-0.518631
-0.486774
-0.497199
-0.473781
-0.481265
-0.464904
-0.469778
-0.460799
-0.464266
-0.45527
-0.458279
-0.451062
-0.453423
-0.448012
-0.44975
-0.44589
-0.447076
-0.44456
-0.445178
-0.444143
-0.443824
-0.445527
-0.442608
-0.452135
-0.439488
-0.47531
-0.415555
-0.527802
-0.905454
-0.655781
-1.47717
-0.988124
-2.99323
-2.65082
-2.56978
-2.55168
-2.5477
-16.4321
-7.13231
-10.4014
-6.06302
-8.03081
-5.16205
-6.51132
-4.39514
-5.38198
-3.81285
-4.4939
-3.55704
-4.09828
-3.04414
-3.58014
-2.60887
-3.09403
-2.24018
-2.66361
-1.92801
-2.29143
-1.66419
-1.9735
-1.44153
-1.70419
-1.25309
-1.47936
-1.09068
-1.31015
-0.99039
-0.743788
-0.902899
-0.690229
-0.792379
-0.631896
-0.708295
-0.584237
-0.643148
-0.546922
-0.592446
-0.518252
-0.553177
-0.496573
-0.523045
-0.480482
-0.500184
-0.468896
-0.483047
-0.461187
-0.470362
-0.458334
-0.464854
-0.45284
-0.458546
-0.448906
-0.453376
-0.446145
-0.449434
-0.444275
-0.446524
-0.443164
-0.444353
-0.442981
-0.442457
-0.444779
-0.439589
-0.452534
-0.430299
-0.479376
-0.377811
-0.483962
-0.969557
-0.506528
-1.60512
-0.663517
-3.3269
-2.67175
-2.57168
-2.55107
-2.54659
16.432
7.13242
10.4015
6.06312
8.03088
5.16214
6.51139
4.39524
5.38206
3.81295
4.49399
3.55714
4.09837
3.04425
3.58023
2.60899
3.09413
2.2403
2.66372
1.92814
2.29155
1.66432
1.97363
1.44166
1.70432
1.2532
1.47948
1.09078
1.31027
0.990481
0.743849
0.902976
0.690279
0.79244
0.631936
0.708343
0.584269
0.643187
0.546947
0.592476
0.518272
0.553202
0.496589
0.523064
0.480494
0.500199
0.468905
0.483058
0.461195
0.47037
0.458339
0.464861
0.452845
0.458551
0.448909
0.45338
0.446148
0.449437
0.444277
0.446527
0.443165
0.444355
0.442981
0.442458
0.444777
0.43959
0.452529
0.430299
0.479362
0.377808
0.483936
0.969516
0.506477
1.60511
0.663433
3.32709
2.67187
2.57179
2.55116
2.54665
15.2242
8.20561
9.88063
6.63299
7.68065
5.53467
6.25159
4.66755
5.19033
4.01529
4.37756
3.67783
3.96574
3.17598
3.45897
2.73142
2.98788
2.3484
2.57237
2.02149
2.21378
1.74406
1.90775
1.50939
1.64844
1.31069
1.43078
1.14009
1.25897
0.99889
0.790094
0.877627
0.718821
0.773287
0.653188
0.693697
0.600822
0.632022
0.559979
0.584081
0.528535
0.547023
0.504648
0.51866
0.486797
0.497225
0.473802
0.481287
0.464923
0.469799
0.460818
0.464285
0.455287
0.458296
0.451078
0.45344
0.448027
0.449766
0.445904
0.447091
0.444574
0.445192
0.444156
0.443838
0.445538
0.442621
0.452143
0.439499
0.475311
0.415562
0.52779
0.905429
0.655752
1.47717
0.98809
2.9934
2.65096
2.5699
2.55181
2.54778
14.2974
8.93128
9.55693
7.03122
7.45836
5.79282
6.08398
4.85571
5.06665
4.15624
4.30371
3.75909
3.87631
3.26487
3.37821
2.81454
2.91753
2.42198
2.51205
2.08513
2.1625
1.79847
1.86436
1.55562
1.61164
1.34985
1.39849
1.17299
1.22281
1.0052
0.824425
0.862076
0.738763
0.761051
0.667936
0.684309
0.612324
0.624902
0.569069
0.578779
0.535733
0.54318
0.510342
0.515985
0.491295
0.495492
0.477344
0.480354
0.46768
0.469661
0.462674
0.464084
0.457123
0.458325
0.452737
0.453683
0.449492
0.450189
0.447199
0.447674
0.445726
0.445965
0.445171
0.445006
0.446352
0.445023
0.452511
0.446628
0.474948
0.446303
0.560892
0.86629
0.762042
1.4015
1.21282
2.75344
2.61941
2.56532
2.55171
2.54858
13.5856
9.41744
9.35944
7.31145
7.3199
5.97281
5.97726
4.98638
4.9879
4.25494
4.25761
3.81393
3.81608
3.32481
3.32458
2.87103
2.87115
2.47217
2.47243
2.12861
2.1289
1.83569
1.83596
1.58725
1.58755
1.37657
1.37716
1.19486
1.19732
1.01001
0.849976
0.852926
0.752832
0.753385
0.678249
0.678403
0.620381
0.620459
0.57547
0.575521
0.540839
0.540876
0.51442
0.514447
0.494556
0.494574
0.479957
0.479966
0.469765
0.469796
0.464108
0.464132
0.458544
0.458538
0.454044
0.454043
0.450669
0.450669
0.448263
0.448261
0.446698
0.446687
0.446067
0.446019
0.447178
0.446977
0.453319
0.452295
0.476769
0.47122
0.586265
0.843436
0.838485
1.35885
1.36827
2.58033
2.58453
2.559
2.55106
2.54913
13.0407
9.73934
9.24173
7.50956
7.2358
6.09883
5.91045
5.07744
4.93862
4.32427
4.22944
3.851
3.77565
3.36516
3.28912
2.9094
2.84077
2.50641
2.4466
2.15834
2.10705
1.86117
1.81753
1.60892
1.57191
1.39482
1.36314
1.20931
1.17941
1.0137
0.868968
0.847858
0.762827
0.748699
0.685496
0.67477
0.626053
0.617757
0.580002
0.573586
0.544485
0.539561
0.517363
0.51363
0.496941
0.494162
0.481901
0.479903
0.471356
0.470075
0.465227
0.464318
0.459653
0.458841
0.45508
0.454447
0.45162
0.451155
0.449139
0.448819
0.447515
0.44734
0.446846
0.446891
0.447965
0.448576
0.454328
0.456848
0.479696
0.49122
0.605856
0.830966
0.893815
1.33652
1.47552
2.45542
2.55073
2.55185
2.55003
2.54946
12.6281
9.94926
9.17356
7.64948
7.18637
6.18703
5.86955
5.14082
4.90846
4.37291
4.21269
3.87601
3.74869
3.39218
3.26587
2.93537
2.82106
2.52969
2.42994
2.17861
2.093
1.87856
1.8057
1.62372
1.56186
1.40724
1.35399
1.21878
1.16691
1.01652
0.882973
0.845304
0.769935
0.745925
0.690585
0.672598
0.630044
0.61617
0.58321
0.572488
0.547087
0.538861
0.519485
0.51325
0.498684
0.494044
0.483346
0.480013
0.472564
0.470405
0.466094
0.46456
0.460513
0.459168
0.455896
0.454842
0.452379
0.451604
0.449847
0.449317
0.448187
0.447906
0.447503
0.447622
0.44867
0.449869
0.455364
0.460487
0.482974
0.506993
0.620924
0.824878
0.933843
1.32622
1.549
2.36576
2.52055
2.54468
2.54882
2.54963
12.3229
10.0832
9.13551
7.7471
7.15853
6.24808
5.84521
5.18445
4.89051
4.40661
4.20308
3.89272
3.73096
3.41005
3.25083
2.95273
2.80847
2.54534
2.41937
2.19227
2.08412
1.8903
1.79825
1.63372
1.55552
1.4156
1.3481
1.2249
1.15833
1.01863
0.893099
0.844211
0.774936
0.744349
0.694119
0.671346
0.632819
0.615275
0.585454
0.5719
0.548922
0.538525
0.520997
0.513117
0.49994
0.494076
0.484403
0.480193
0.473464
0.470724
0.466752
0.464804
0.461164
0.459471
0.45652
0.455192
0.452967
0.451989
0.450403
0.449735
0.44872
0.448371
0.448034
0.448209
0.449263
0.450884
0.456309
0.463324
0.486083
0.519062
0.632282
0.822476
0.962418
1.32259
1.59861
2.30243
2.49547
2.53818
2.54761
2.54969
12.1075
10.1657
9.11527
7.81289
7.14371
6.28895
5.8313
5.21351
4.88026
4.42918
4.19781
3.90355
3.71966
3.4215
3.2414
2.96398
2.80068
2.55553
2.41287
2.20118
2.07869
1.89798
1.79369
1.64026
1.55165
1.42104
1.34442
1.22874
1.15264
1.02014
0.900114
0.843887
0.778334
0.743502
0.696492
0.670659
0.634684
0.6148
0.586969
0.571611
0.550169
0.538388
0.522034
0.513105
0.500811
0.494167
0.485144
0.480375
0.474104
0.470992
0.467227
0.465013
0.461634
0.45972
0.456974
0.455471
0.453398
0.452291
0.450813
0.450058
0.449117
0.448727
0.448435
0.448651
0.449722
0.451636
0.45708
0.46542
0.488671
0.527809
0.640445
0.821965
0.982064
1.3222
1.63097
2.2594
2.47625
2.53286
2.54655
2.54968
11.97
10.2128
9.1053
7.85351
7.13646
6.31406
5.82393
5.23129
4.87483
4.44305
4.19515
3.91004
3.71301
3.42829
3.23592
2.97071
2.7962
2.56165
2.40915
2.20655
2.07559
1.9026
1.7911
1.6442
1.54945
1.42432
1.34229
1.23096
1.14919
1.02112
0.904532
0.843886
0.780448
0.743083
0.697953
0.67031
0.635834
0.614567
0.587907
0.571484
0.550946
0.538348
0.522683
0.513136
0.50136
0.494257
0.485615
0.480518
0.474516
0.471182
0.467536
0.465164
0.461939
0.459895
0.457271
0.455665
0.453681
0.452499
0.451084
0.450278
0.449381
0.448967
0.448704
0.448947
0.450035
0.452134
0.457621
0.466806
0.49051
0.533501
0.645736
0.82219
0.994385
1.32293
1.65041
2.23269
2.4633
2.52911
2.54576
2.54964
11.903
10.234
9.10128
7.87291
7.13358
6.32602
5.82077
5.23974
4.8725
4.44965
4.19405
3.91308
3.70993
3.43145
3.23341
2.97386
2.79416
2.56452
2.40747
2.20907
2.0742
1.90478
1.78994
1.64606
1.54845
1.42585
1.34132
1.23198
1.14756
1.0216
0.906667
0.843946
0.781462
0.742915
0.698651
0.670168
0.636383
0.614476
0.588356
0.571439
0.551319
0.538343
0.522996
0.513162
0.501627
0.49431
0.485846
0.480596
0.474719
0.471282
0.467689
0.465244
0.46209
0.459986
0.457418
0.455765
0.453823
0.452605
0.45122
0.45039
0.449513
0.449088
0.448839
0.449096
0.450194
0.452383
0.4579
0.467497
0.491463
0.536307
0.64834
0.822464
1.00033
1.32357
1.65953
2.2199
2.45679
2.52717
2.54535
2.54962
-12.969
-11.3867
-10.3932
-9.45252
-8.94946
-8.48813
-8.23501
-7.99058
-7.85595
-7.72454
-7.63485
-7.51727
-7.43497
-7.32838
-7.25421
-7.15861
-7.09198
-7.00588
-6.94571
-6.86774
-6.8132
-6.74247
-6.69306
-6.62908
-6.58444
-6.52669
-6.48595
-6.43206
-6.3899
-6.32643
-6.26861
-6.23739
-6.20687
-6.18844
-6.16788
-6.15502
-6.1403
-6.13106
-6.12047
-6.11385
-6.1063
-6.10161
-6.0963
-6.09302
-6.08935
-6.08712
-6.08467
-6.08323
-6.08172
-6.08091
-6.08018
-6.07981
-6.0795
-6.07948
-6.07977
-6.08029
-6.08143
-6.08271
-6.08511
-6.08756
-6.09194
-6.09632
-6.10404
-6.11183
-6.12574
-6.14038
-6.16761
-6.19952
-6.26466
-6.35908
-6.57217
-6.86757
-7.13136
-7.57021
-7.98896
-8.65483
-8.93517
-9.01837
-9.03989
-9.0449
-13.0324
-11.3632
-10.3912
-9.43507
-8.94784
-8.47984
-8.23469
-7.98622
-7.85585
-7.72289
-7.63599
-7.51588
-7.43596
-7.3271
-7.25508
-7.15746
-7.09277
-7.00485
-6.94643
-6.86681
-6.81385
-6.74163
-6.69365
-6.62831
-6.58497
-6.52601
-6.48648
-6.4316
-6.39076
-6.32621
-6.26755
-6.23736
-6.20638
-6.18852
-6.16757
-6.15509
-6.14007
-6.1311
-6.1203
-6.11387
-6.10617
-6.10162
-6.0962
-6.09302
-6.08928
-6.08711
-6.08461
-6.08321
-6.08167
-6.08089
-6.08015
-6.07978
-6.07947
-6.07945
-6.07974
-6.08024
-6.0814
-6.08264
-6.08508
-6.08746
-6.09192
-6.09616
-6.10402
-6.11156
-6.12569
-6.13986
-6.1674
-6.19817
-6.26346
-6.35431
-6.56886
-6.86881
-7.12434
-7.57099
-7.97905
-8.67022
-8.94303
-9.02081
-9.04053
-9.04507
-13.1626
-11.3119
-10.3885
-9.3989
-8.94549
-8.46267
-8.23455
-7.97716
-7.85588
-7.71943
-7.63847
-7.5129
-7.43812
-7.32435
-7.25699
-7.155
-7.09449
-7.00264
-6.948
-6.86482
-6.81528
-6.73982
-6.69494
-6.62667
-6.58614
-6.52457
-6.48764
-6.43058
-6.39258
-6.32576
-6.26536
-6.23737
-6.20537
-6.18873
-6.16692
-6.15526
-6.1396
-6.13121
-6.11995
-6.11394
-6.10591
-6.10165
-6.096
-6.09303
-6.08912
-6.0871
-6.08449
-6.08318
-6.08158
-6.08085
-6.08008
-6.07974
-6.0794
-6.07939
-6.07969
-6.08015
-6.08135
-6.08251
-6.08504
-6.08726
-6.09189
-6.09584
-6.10399
-6.11101
-6.12562
-6.13878
-6.16705
-6.19541
-6.26123
-6.34457
-6.56211
-6.87181
-7.10964
-7.57329
-7.95779
-8.70233
-8.95867
-9.02555
-9.04175
-9.04541
-13.3669
-11.2236
-10.3886
-9.34134
-8.94435
-8.43535
-8.2356
-7.96269
-7.85654
-7.71376
-7.64277
-7.50791
-7.44185
-7.31977
-7.26029
-7.1509
-7.09748
-6.99896
-6.95072
-6.86148
-6.81775
-6.73679
-6.69717
-6.62393
-6.58815
-6.52215
-6.48961
-6.42881
-6.39555
-6.32506
-6.26187
-6.23754
-6.20375
-6.18914
-6.16585
-6.15558
-6.13882
-6.13143
-6.11937
-6.11407
-6.10548
-6.10172
-6.09567
-6.09305
-6.08888
-6.08709
-6.0843
-6.08315
-6.08143
-6.08078
-6.07998
-6.07967
-6.0793
-6.07929
-6.0796
-6.08001
-6.08128
-6.0823
-6.08499
-6.08694
-6.09186
-6.09533
-6.10398
-6.11014
-6.12558
-6.13707
-6.16666
-6.19114
-6.25827
-6.32944
-6.55165
-6.87766
-7.0859
-7.57874
-7.92211
-8.75394
-8.98186
-9.03229
-9.04344
-9.04586
-13.6571
-11.083
-10.3973
-9.25781
-8.94775
-8.3957
-8.23962
-7.94157
-7.85869
-7.70525
-7.64964
-7.50017
-7.44785
-7.31269
-7.2656
-7.14456
-7.10228
-6.99327
-6.95508
-6.85634
-6.82172
-6.73212
-6.70075
-6.6197
-6.59138
-6.5184
-6.49272
-6.42595
-6.40003
-6.32407
-6.25683
-6.23809
-6.20135
-6.1899
-6.16426
-6.15615
-6.13767
-6.13182
-6.11851
-6.11433
-6.10484
-6.10187
-6.0952
-6.09313
-6.08852
-6.08711
-6.08403
-6.08312
-6.08122
-6.08071
-6.07983
-6.07959
-6.07917
-6.07916
-6.07949
-6.07981
-6.0812
-6.082
-6.08495
-6.08648
-6.09187
-6.09459
-6.10405
-6.10887
-6.12568
-6.13462
-6.16646
-6.18514
-6.25513
-6.30825
-6.53702
-6.8882
-7.05075
-7.59014
-7.86687
-8.82969
-9.01213
-9.04058
-9.04546
-9.04639
-14.0503
-10.8669
-10.4241
-9.14115
-8.96086
-8.34024
-8.24935
-7.91188
-7.86369
-7.69285
-7.66028
-7.48858
-7.45717
-7.3021
-7.27387
-7.13508
-7.10975
-6.98475
-6.96187
-6.84863
-6.82789
-6.72512
-6.70632
-6.61336
-6.59641
-6.51277
-6.49748
-6.42146
-6.40651
-6.32273
-6.24986
-6.23936
-6.19795
-6.19122
-6.16197
-6.15714
-6.136
-6.13251
-6.11728
-6.11478
-6.10393
-6.10216
-6.09453
-6.09329
-6.08802
-6.08718
-6.08365
-6.08311
-6.08093
-6.08063
-6.07964
-6.0795
-6.07901
-6.07899
-6.07936
-6.07955
-6.08113
-6.0816
-6.08495
-6.08585
-6.09196
-6.09356
-6.10428
-6.1071
-6.12608
-6.13123
-6.16677
-6.17707
-6.25265
-6.28002
-6.51747
-6.90626
-7.0005
-7.61203
-7.78416
-8.93662
-9.04853
-9.04979
-9.04762
-9.04693
-14.571
-10.5412
-10.4846
-8.98042
-8.99163
-8.26362
-8.26897
-7.87064
-7.87363
-7.67494
-7.67651
-7.47138
-7.47146
-7.28644
-7.28659
-7.12107
-7.12122
-6.97215
-6.97229
-6.83723
-6.83735
-6.71477
-6.71487
-6.60399
-6.6041
-6.50441
-6.50467
-6.41454
-6.41575
-6.32097
-6.24039
-6.24187
-6.19316
-6.19344
-6.15869
-6.15877
-6.13361
-6.13366
-6.11553
-6.11556
-6.10265
-6.10267
-6.09358
-6.0936
-6.08732
-6.08733
-6.08314
-6.08314
-6.08056
-6.08056
-6.0794
-6.07941
-6.0788
-6.0788
-6.07922
-6.07921
-6.08108
-6.08106
-6.08502
-6.08499
-6.09222
-6.09215
-6.10481
-6.10467
-6.12701
-6.12661
-6.16807
-6.16637
-6.25207
-6.24336
-6.49185
-6.93609
-6.92954
-7.65147
-7.66222
-9.08516
-9.08933
-9.05911
-9.0497
-9.04743
-15.2529
-10.0567
-10.6031
-8.75911
-9.052
-8.15769
-8.30476
-7.81336
-7.89165
-7.64904
-7.70102
-7.44599
-7.49316
-7.26339
-7.30593
-7.10044
-7.13866
-6.95359
-6.98811
-6.82042
-6.85171
-6.69951
-6.72786
-6.59019
-6.6158
-6.49205
-6.51549
-6.40397
-6.42884
-6.31865
-6.22763
-6.24639
-6.1864
-6.19706
-6.15401
-6.16141
-6.13021
-6.13552
-6.11305
-6.11685
-6.10083
-6.10353
-6.09226
-6.09414
-6.08636
-6.08765
-6.08244
-6.08327
-6.08006
-6.08053
-6.0791
-6.07932
-6.07856
-6.07856
-6.07908
-6.07878
-6.08109
-6.08034
-6.08524
-6.08382
-6.09275
-6.09022
-6.10584
-6.10132
-6.12883
-6.12029
-6.17107
-6.15216
-6.25525
-6.1964
-6.45838
-6.98393
-6.82942
-7.71934
-7.48377
-9.29042
-9.1315
-9.06758
-9.05147
-9.04781
-16.1428
-9.34246
-10.8172
-8.45235
-9.15989
-8.01013
-8.36612
-7.73332
-7.92252
-7.61137
-7.73784
-7.40852
-7.52595
-7.22946
-7.33521
-7.07006
-7.16505
-6.92625
-7.01203
-6.79566
-6.87343
-6.67704
-6.7475
-6.56986
-6.63348
-6.47382
-6.53171
-6.38795
-6.44734
-6.31556
-6.21049
-6.25406
-6.17682
-6.20284
-6.14732
-6.16559
-6.12535
-6.1385
-6.1095
-6.11892
-6.09826
-6.10494
-6.0904
-6.09506
-6.08503
-6.08821
-6.08149
-6.08355
-6.0794
-6.08055
-6.07872
-6.07925
-6.07827
-6.0783
-6.07896
-6.07824
-6.0812
-6.07939
-6.08569
-6.08222
-6.09372
-6.08754
-6.10765
-6.09668
-6.13208
-6.11159
-6.17685
-6.13305
-6.26489
-6.13659
-6.41435
-7.05895
-6.68751
-7.83221
-7.22361
-9.57429
-9.16984
-9.07412
-9.05272
-9.04802
-17.3048
-8.29732
-11.185
-8.02273
-9.34213
-7.80238
-8.46708
-7.62042
-7.97345
-7.55621
-7.79291
-7.3532
-7.57532
-7.17944
-7.37934
-7.02529
-7.20479
-6.88593
-7.04804
-6.75915
-6.90611
-6.64391
-6.77707
-6.53989
-6.66009
-6.44689
-6.55601
-6.36381
-6.47349
-6.31141
-6.18741
-6.26657
-6.16311
-6.21187
-6.13766
-6.17211
-6.11834
-6.14315
-6.1044
-6.12219
-6.09457
-6.10718
-6.08776
-6.09656
-6.08315
-6.08914
-6.08017
-6.08405
-6.07851
-6.08068
-6.07822
-6.07923
-6.07792
-6.07798
-6.07887
-6.07752
-6.08148
-6.07809
-6.08651
-6.08
-6.09538
-6.08378
-6.11069
-6.09015
-6.13754
-6.09943
-6.18697
-6.10689
-6.28492
-6.06051
-6.35563
-7.1746
-6.48493
-8.01519
-6.84506
-9.96834
-9.1958
-9.07766
-9.05328
-9.04802
)
;

boundaryField
{
    F1_1
    {
        type            calculated;
        value           nonuniform List<scalar> 
80
(
17.9635
7.67194
11.416
7.76004
9.45578
7.65536
8.53006
7.4972
8.00811
7.36071
7.66809
7.31093
7.5418
7.13978
7.37134
6.99031
7.20784
6.85544
7.05622
6.7324
6.91658
6.62031
6.78831
6.51903
6.67129
6.42849
6.56695
6.34749
6.48592
6.30743
6.17345
6.2729
6.15442
6.21635
6.13152
6.17532
6.11389
6.14544
6.1012
6.12381
6.09229
6.1083
6.08614
6.09731
6.08202
6.08964
6.0794
6.08433
6.07802
6.08076
6.07796
6.07924
6.07776
6.07783
6.07888
6.07714
6.08171
6.07737
6.08706
6.07874
6.09643
6.08162
6.11258
6.08636
6.14093
6.09235
6.19331
6.09173
6.29802
6.01793
6.32184
7.24419
6.36548
8.12745
6.62046
10.1968
9.20373
9.07794
9.05275
9.04734
)
;
    }
    F1_2
    {
        type            calculated;
        value           nonuniform List<scalar> 
80
(
-17.1158
-6.49292
-10.7218
-5.72713
-8.24451
-4.94177
-6.66895
-4.23395
-5.49831
-3.69347
-4.56499
-3.48489
-4.17749
-2.96548
-3.65289
-2.53593
-3.15791
-2.17584
-2.71859
-1.87248
-2.33827
-1.61677
-2.01319
-1.40126
-1.73784
-1.21888
-1.50863
-1.06112
-1.34024
-0.985576
-0.717233
-0.918528
-0.673401
-0.804035
-0.619337
-0.717199
-0.57446
-0.649947
-0.539235
-0.597574
-0.512211
-0.556969
-0.491842
-0.525768
-0.476795
-0.502046
-0.466046
-0.484185
-0.459037
-0.470781
-0.45691
-0.465256
-0.45144
-0.45876
-0.447671
-0.453403
-0.445083
-0.4493