/*--------------------------------*- C++ -*----------------------------------*\
| =========                 |                                                 |
| \\      /  F ield         | OpenFOAM: The Open Source CFD Toolbox           |
|  \\    /   O peration     | Version:  5.x                                   |
|   \\  /    A nd           | Web:      www.OpenFOAM.org                      |
|    \\/     M anipulation  |                                                 |
\*---------------------------------------------------------------------------*/
FoamFile
{
    version     2.0;
    format      ascii;
    class       volScalarField;
    location    "1.4";
    object      T;
}
// * * * * * * * * * * * * * * * * * * * * * * * * * * * * * * * * * * * * * //

dimensions      [0 0 0 1 0 0 0];

internalField   nonuniform List<scalar> 
3200
(
2.15491
2.48404
2.50276
2.63727
2.64575
2.71187
2.71624
2.75376
2.75631
2.7796
2.78114
2.79437
2.79552
2.80978
2.81094
2.82448
2.82557
2.83812
2.83912
2.85065
2.85157
2.86213
2.86297
2.87256
2.87332
2.88198
2.88267
2.89057
2.89126
2.89954
2.90663
2.90712
2.91145
2.91176
2.9148
2.91502
2.91721
2.91737
2.91895
2.91907
2.92019
2.92027
2.92106
2.92112
2.92167
2.9217
2.92207
2.92209
2.92232
2.92233
2.92244
2.92244
2.92249
2.92249
2.92245
2.92244
2.92228
2.92226
2.92191
2.92186
2.92122
2.92115
2.92003
2.9199
2.91791
2.91766
2.91392
2.91341
2.90537
2.90397
2.88133
2.84191
2.83752
2.77354
2.76601
2.64639
2.64142
2.64079
2.64067
2.64064
2.32137
2.57317
2.61228
2.71991
2.738
2.79089
2.80021
2.83013
2.83556
2.85408
2.85735
2.86796
2.87042
2.8817
2.88415
2.89488
2.89719
2.90713
2.90926
2.9184
2.92035
2.92872
2.9305
2.9381
2.93971
2.94658
2.94805
2.95433
2.95581
2.96266
2.96862
2.9697
2.97315
2.97381
2.97623
2.97669
2.97843
2.97877
2.98002
2.98026
2.98116
2.98133
2.98196
2.98207
2.98251
2.98259
2.98288
2.98293
2.98311
2.98314
2.98322
2.98323
2.98327
2.98327
2.98324
2.98322
2.98309
2.98305
2.98277
2.98268
2.98217
2.98201
2.98112
2.98084
2.97925
2.97873
2.97573
2.97463
2.96809
2.965
2.94522
2.91295
2.90356
2.85256
2.8367
2.74377
2.73329
2.73155
2.73119
2.73111
2.47775
2.6708
2.71906
2.80613
2.82885
2.87164
2.88336
2.90747
2.91429
2.92916
2.93327
2.94188
2.94496
2.95397
2.95704
2.96562
2.9685
2.97646
2.97912
2.98644
2.98888
2.99557
2.9978
3.00388
3.0059
3.0114
3.01324
3.01828
3.02015
3.02582
3.03082
3.03218
3.03497
3.03579
3.03773
3.03832
3.03971
3.04013
3.04114
3.04144
3.04215
3.04237
3.04287
3.04302
3.04337
3.04347
3.0437
3.04376
3.04391
3.04394
3.04401
3.04403
3.04406
3.04406
3.04403
3.04401
3.0439
3.04385
3.04362
3.04351
3.0431
3.0429
3.04218
3.04183
3.04055
3.0399
3.03746
3.03607
3.03067
3.0267
3.00961
2.98308
2.97126
2.93018
2.91047
2.83786
2.82481
2.82226
2.82171
2.82159
2.6264
2.77422
2.82428
2.89491
2.9189
2.95365
2.966
2.98551
2.99269
3.00468
3.009
3.01601
3.01926
3.02648
3.0297
3.03659
3.03961
3.046
3.0488
3.05467
3.05723
3.0626
3.06494
3.06983
3.07195
3.07636
3.0783
3.08236
3.08434
3.089
3.09315
3.0946
3.09686
3.09773
3.0993
3.09991
3.10103
3.10147
3.10228
3.10259
3.10317
3.10339
3.1038
3.10395
3.10423
3.10434
3.10453
3.1046
3.10471
3.10475
3.1048
3.10482
3.10485
3.10485
3.10482
3.1048
3.10471
3.10465
3.10447
3.10436
3.10402
3.10382
3.10323
3.10286
3.10182
3.10113
3.09915
3.09768
3.09319
3.08893
3.07439
3.05263
3.04014
3.00694
2.98637
2.92957
2.91591
2.91289
2.91221
2.91206
2.76913
2.88154
2.92867
2.98556
3.00852
3.03654
3.04836
3.06404
3.07089
3.08049
3.08463
3.0903
3.0934
3.09915
3.10222
3.10771
3.11059
3.11568
3.11834
3.12303
3.12547
3.12976
3.13198
3.13588
3.1379
3.14142
3.14327
3.14653
3.14842
3.1522
3.1556
3.15699
3.15881
3.15965
3.1609
3.16148
3.16238
3.1628
3.16344
3.16374
3.1642
3.16442
3.16474
3.16489
3.16511
3.16521
3.16536
3.16543
3.16552
3.16555
3.1656
3.16562
3.16563
3.16564
3.16562
3.16559
3.16553
3.16547
3.16532
3.16521
3.16494
3.16475
3.16428
3.16392
3.16309
3.16243
3.16082
3.1594
3.15571
3.15157
3.13945
3.1218
3.10985
3.0832
3.06371
3.01955
3.00658
3.00343
3.00269
3.00252
2.90736
2.99148
3.03267
3.07757
3.09792
3.12008
3.13056
3.14292
3.14899
3.15653
3.1602
3.16469
3.16743
3.17193
3.17463
3.17893
3.18148
3.18546
3.18781
3.19148
3.19364
3.19699
3.19896
3.20201
3.20379
3.20655
3.20818
3.21074
3.21243
3.21542
3.21813
3.21937
3.2208
3.22154
3.22252
3.22304
3.22374
3.22411
3.22462
3.22488
3.22525
3.22543
3.22569
3.22582
3.22599
3.22608
3.2262
3.22626
3.22633
3.22636
3.2264
3.22641
3.22643
3.22643
3.22641
3.22639
3.22634
3.22629
3.22617
3.22607
3.22586
3.22569
3.22532
3.22501
3.22435
3.22376
3.22248
3.22122
3.21824
3.21453
3.20473
3.19075
3.18014
3.15917
3.14204
3.10829
3.09686
3.09388
3.09315
3.09298
3.04223
3.10313
3.13652
3.17055
3.18726
3.20408
3.21269
3.22204
3.22702
3.23272
3.23573
3.23914
3.24139
3.24477
3.24699
3.25022
3.2523
3.2553
3.25723
3.25999
3.26176
3.26428
3.26589
3.26819
3.26965
3.27173
3.27306
3.275
3.27638
3.27865
3.28071
3.28173
3.28282
3.28343
3.28417
3.28459
3.28512
3.28542
3.28581
3.28602
3.2863
3.28645
3.28664
3.28675
3.28688
3.28695
3.28704
3.28709
3.28714
3.28717
3.2872
3.28721
3.28722
3.28722
3.28721
3.28719
3.28715
3.28711
3.28702
3.28694
3.28678
3.28664
3.28636
3.2861
3.2856
3.28512
3.28415
3.2831
3.28081
3.27773
3.27019
3.25956
3.25086
3.23499
3.22104
3.19613
3.18681
3.18423
3.18359
3.18344
3.17465
3.21587
3.24034
3.26423
3.27659
3.28842
3.29478
3.30135
3.30503
3.30902
3.31124
3.31364
3.31531
3.31767
3.3193
3.32156
3.3231
3.32519
3.32661
3.32854
3.32984
3.33161
3.3328
3.3344
3.33548
3.33693
3.33792
3.33927
3.34029
3.34189
3.34334
3.34409
3.34486
3.34531
3.34583
3.34614
3.34651
3.34673
3.347
3.34716
3.34735
3.34746
3.3476
3.34768
3.34777
3.34782
3.34789
3.34792
3.34796
3.34798
3.348
3.348
3.34801
3.34801
3.34801
3.34799
3.34796
3.34793
3.34787
3.34781
3.3477
3.34759
3.3474
3.34721
3.34686
3.3465
3.34581
3.34504
3.34341
3.34112
3.33576
3.32829
3.32186
3.31074
3.30047
3.28335
3.27649
3.27451
3.27401
3.27389
3.30543
3.32929
3.34419
3.35836
3.36594
3.37297
3.37687
3.38077
3.38302
3.38538
3.38675
3.38818
3.38919
3.39059
3.39159
3.39292
3.39387
3.39511
3.39597
3.39711
3.39791
3.39896
3.39968
3.40063
3.40129
3.40215
3.40275
3.40356
3.40418
3.40513
3.40599
3.40646
3.40691
3.40719
3.40749
3.40768
3.4079
3.40804
3.4082
3.4083
3.40841
3.40848
3.40856
3.40861
3.40866
3.40869
3.40873
3.40875
3.40877
3.40879
3.4088
3.4088
3.40881
3.40881
3.4088
3.4088
3.40878
3.40876
3.40872
3.40869
3.40862
3.40856
3.40844
3.40832
3.40811
3.4079
3.40749
3.40701
3.40603
3.40462
3.40142
3.39699
3.39304
3.38645
3.38018
3.37017
3.36597
3.36473
3.36441
3.36434
3.43525
3.44306
3.44806
3.45276
3.45531
3.45764
3.45896
3.46025
3.46101
3.46179
3.46225
3.46272
3.46307
3.46353
3.46386
3.46431
3.46462
3.46503
3.46533
3.4657
3.46597
3.46632
3.46656
3.46688
3.4671
3.46738
3.46759
3.46785
3.46806
3.46838
3.46866
3.46882
3.46897
3.46906
3.46916
3.46923
3.4693
3.46935
3.4694
3.46943
3.46947
3.46949
3.46952
3.46954
3.46955
3.46956
3.46958
3.46958
3.46959
3.4696
3.4696
3.4696
3.4696
3.4696
3.4696
3.4696
3.46959
3.46959
3.46957
3.46956
3.46954
3.46952
3.46948
3.46944
3.46937
3.4693
3.46916
3.469
3.46868
3.4682
3.46714
3.46566
3.46434
3.46215
3.46005
3.45675
3.45534
3.45491
3.4548
3.45478
3.44057
3.4488
3.4545
3.46061
3.46434
3.46836
3.4709
3.47379
3.47564
3.47774
3.47903
3.48043
3.48145
3.48284
3.48384
3.48513
3.48603
3.48717
3.48797
3.48895
3.48963
3.49047
3.49105
3.49177
3.49226
3.49287
3.4933
3.49384
3.49426
3.49489
3.49546
3.49578
3.49609
3.49629
3.49651
3.49665
3.49682
3.49693
3.49706
3.49714
3.49724
3.49731
3.49738
3.49743
3.49749
3.49753
3.49757
3.4976
3.49763
3.49764
3.49766
3.49767
3.49769
3.4977
3.49771
3.49772
3.49773
3.49774
3.49774
3.49775
3.49775
3.49775
3.49776
3.49775
3.49775
3.49774
3.49771
3.49766
3.49754
3.49731
3.49675
3.49589
3.49499
3.49338
3.49169
3.48892
3.48772
3.48737
3.48727
3.48725
3.32137
3.34651
3.36348
3.38193
3.39299
3.40513
3.41269
3.42142
3.42691
3.43326
3.43709
3.44131
3.44435
3.44853
3.4515
3.4554
3.45809
3.46154
3.46389
3.46687
3.46889
3.47143
3.47315
3.47531
3.47677
3.47862
3.47988
3.48152
3.48279
3.48468
3.4864
3.48734
3.48828
3.48886
3.48952
3.48995
3.49046
3.49078
3.49118
3.49143
3.49173
3.49193
3.49216
3.4923
3.49248
3.49259
3.49271
3.49279
3.49288
3.49293
3.49299
3.49302
3.49307
3.4931
3.49314
3.49316
3.49319
3.49321
3.49323
3.49324
3.49326
3.49326
3.49327
3.49326
3.49325
3.49321
3.49313
3.49299
3.49263
3.49196
3.49028
3.48766
3.485
3.48015
3.47512
3.46669
3.46314
3.46209
3.46182
3.46176
3.20117
3.24455
3.27239
3.30354
3.32161
3.34208
3.35442
3.36917
3.37815
3.38888
3.39513
3.40223
3.4072
3.41428
3.41912
3.42572
3.43011
3.43594
3.43978
3.44482
3.44812
3.45242
3.45523
3.45889
3.46127
3.46439
3.46645
3.46922
3.47128
3.47447
3.47738
3.4789
3.48048
3.48143
3.48255
3.48324
3.4841
3.48464
3.4853
3.48571
3.48622
3.48654
3.48693
3.48717
3.48746
3.48764
3.48786
3.48799
3.48814
3.48822
3.48831
3.48837
3.48845
3.4885
3.48857
3.48861
3.48866
3.48869
3.48872
3.48874
3.48876
3.48878
3.48878
3.48878
3.48875
3.4887
3.48856
3.48833
3.48773
3.48664
3.48384
3.47944
3.4751
3.46692
3.45868
3.44426
3.43846
3.43679
3.43636
3.43626
3.07922
3.1432
3.18117
3.22567
3.25012
3.27935
3.29606
3.31715
3.32931
3.34468
3.35313
3.36324
3.36996
3.38011
3.38667
3.39612
3.40208
3.41043
3.41563
3.42285
3.42732
3.43348
3.43728
3.44251
3.44574
3.4502
3.45299
3.45695
3.45974
3.46428
3.4684
3.47047
3.47271
3.47399
3.47559
3.47654
3.47776
3.47849
3.47944
3.48
3.48073
3.48116
3.48172
3.48204
3.48246
3.4827
3.48301
3.48318
3.4834
3.48351
3.48364
3.48372
3.48384
3.48391
3.484
3.48405
3.48413
3.48417
3.48422
3.48424
3.48428
3.48429
3.4843
3.48429
3.48425
3.48418
3.48399
3.48368
3.48286
3.4814
3.47747
3.47122
3.46536
3.4537
3.4425
3.4215
3.41362
3.41144
3.41089
3.41077
2.95471
3.04288
3.08968
3.1486
3.17844
3.21712
3.23752
3.26548
3.28034
3.30075
3.31107
3.32438
3.33258
3.34608
3.35411
3.36666
3.37394
3.38504
3.3914
3.40098
3.40644
3.41462
3.41927
3.42621
3.43017
3.43608
3.43949
3.44473
3.44812
3.4541
3.45951
3.46202
3.46499
3.46654
3.46867
3.46982
3.47145
3.47233
3.47359
3.47428
3.47525
3.47577
3.47651
3.47691
3.47747
3.47776
3.47817
3.47838
3.47867
3.47881
3.47898
3.47907
3.47923
3.47931
3.47944
3.4795
3.4796
3.47965
3.47971
3.47975
3.47979
3.47981
3.47982
3.47981
3.47976
3.47968
3.47943
3.47906
3.47801
3.47626
3.47119
3.46299
3.45585
3.44047
3.42671
3.39822
3.38855
3.38603
3.38541
3.38527
2.82666
2.94422
2.9977
3.07269
3.1064
3.15561
3.17867
3.21433
3.23114
3.25723
3.26888
3.28572
3.29499
3.31226
3.32136
3.33741
3.34566
3.35984
3.36704
3.37928
3.38546
3.39591
3.40117
3.41004
3.41451
3.42205
3.42592
3.43258
3.4364
3.44395
3.45075
3.45356
3.45732
3.45907
3.46178
3.46308
3.46516
3.46617
3.46777
3.46855
3.46979
3.47038
3.47133
3.47178
3.47249
3.47282
3.47334
3.47358
3.47395
3.4741
3.47432
3.47443
3.47463
3.47472
3.47488
3.47496
3.47508
3.47513
3.47522
3.47526
3.47531
3.47533
3.47535
3.47534
3.47528
3.47518
3.47488
3.47447
3.4732
3.47126
3.46505
3.45473
3.44668
3.42718
3.41152
3.37419
3.36321
3.36055
3.35992
3.35978
2.6939
2.8481
2.90485
2.99841
3.03372
3.09514
3.11931
3.16393
3.18157
3.21427
3.22648
3.24736
3.25707
3.27878
3.28833
3.30848
3.31713
3.33491
3.34247
3.35782
3.3643
3.3774
3.38292
3.39404
3.39873
3.40818
3.41223
3.42054
3.42453
3.43383
3.44214
3.44507
3.44973
3.45157
3.45496
3.45632
3.45893
3.45998
3.46199
3.46281
3.46436
3.46498
3.46617
3.46664
3.46753
3.46788
3.46853
3.46879
3.46924
3.4694
3.46967
3.46979
3.47003
3.47014
3.47034
3.47042
3.47057
3.47062
3.47073
3.47077
3.47084
3.47086
3.47088
3.47087
3.4708
3.47071
3.47034
3.46992
3.46842
3.46644
3.45908
3.44637
3.43798
3.41374
3.3972
3.34911
3.33754
3.33499
3.33441
3.33428
2.55495
2.75587
2.81051
2.92646
2.96
3.03615
3.05913
3.11461
3.13138
3.17213
3.18373
3.20944
3.21867
3.24577
3.25487
3.28
3.28824
3.3104
3.31759
3.33671
3.34288
3.3592
3.36445
3.3783
3.38276
3.39453
3.39838
3.40868
3.41245
3.42375
3.43375
3.4365
3.44226
3.444
3.44822
3.44952
3.45276
3.45376
3.45626
3.45704
3.45897
3.45956
3.46104
3.46149
3.4626
3.46293
3.46374
3.46399
3.46455
3.46471
3.46504
3.46515
3.46546
3.46555
3.4658
3.46588
3.46606
3.46612
3.46625
3.46629
3.46638
3.4664
3.46643
3.46642
3.46634
3.46625
3.46582
3.46542
3.46366
3.46184
3.45332
3.43786
3.42991
3.4
3.38415
3.32258
3.31152
3.30937
3.3089
3.3088
2.40795
2.66947
2.71371
2.85779
2.88456
2.97929
2.99763
3.06682
3.08023
3.13115
3.14041
3.17218
3.17954
3.21348
3.22076
3.25219
3.25878
3.28648
3.29223
3.31612
3.32106
3.34143
3.34564
3.36293
3.3665
3.38119
3.38426
3.39708
3.40008
3.41373
3.42565
3.42783
3.43496
3.43635
3.4416
3.44264
3.44668
3.44748
3.45061
3.45123
3.45364
3.45412
3.45596
3.45632
3.4577
3.45797
3.45899
3.45918
3.45989
3.46001
3.46042
3.46051
3.46089
3.46097
3.46128
3.46134
3.46158
3.46162
3.46179
3.46182
3.46193
3.46194
3.46198
3.46197
3.46188
3.46181
3.4613
3.46099
3.45892
3.45751
3.44786
3.42905
3.42274
3.38571
3.37294
3.29405
3.28516
3.28369
3.28338
3.28331
2.25046
2.59176
2.6129
2.7938
2.80639
2.92546
2.9341
3.02126
3.02758
3.09182
3.09618
3.13589
3.13935
3.18225
3.18569
3.22537
3.22848
3.26343
3.26615
3.29628
3.29861
3.32432
3.3263
3.34811
3.34979
3.36831
3.36976
3.38588
3.38728
3.40377
3.41795
3.41895
3.42789
3.42854
3.43516
3.43564
3.44074
3.44112
3.44507
3.44536
3.4484
3.44862
3.45095
3.45112
3.45286
3.45299
3.45427
3.45436
3.45525
3.45531
3.45582
3.45586
3.45635
3.45639
3.45678
3.45681
3.4571
3.45713
3.45734
3.45735
3.45749
3.45749
3.45755
3.45754
3.45743
3.45739
3.45677
3.45663
3.45415
3.45353
3.44277
3.41975
3.4168
3.37046
3.36439
3.26272
3.2585
3.25797
3.25787
3.25784
2.25046
2.59175
2.6129
2.79379
2.80638
2.92546
2.93409
3.02125
3.02757
3.09182
3.09617
3.13588
3.13934
3.18224
3.18568
3.22536
3.22847
3.26342
3.26613
3.29627
3.2986
3.32431
3.32629
3.3481
3.34978
3.3683
3.36975
3.38587
3.38727
3.40377
3.41794
3.41895
3.42788
3.42853
3.43515
3.43564
3.44074
3.44111
3.44506
3.44535
3.4484
3.44862
3.45094
3.45111
3.45286
3.45299
3.45427
3.45436
3.45525
3.45531
3.45582
3.45586
3.45635
3.45639
3.45678
3.45681
3.4571
3.45712
3.45734
3.45735
3.45749
3.45749
3.45754
3.45754
3.45743
3.45739
3.45677
3.45663
3.45415
3.45353
3.44277
3.41975
3.4168
3.37046
3.36439
3.26271
3.25849
3.25796
3.25785
3.25783
2.40795
2.66947
2.71371
2.85778
2.88455
2.97928
2.99763
3.06681
3.08023
3.13114
3.1404
3.17217
3.17954
3.21347
3.22075
3.25218
3.25877
3.28647
3.29222
3.31611
3.32105
3.34142
3.34563
3.36292
3.36649
3.38118
3.38425
3.39708
3.40007
3.41372
3.42564
3.42782
3.43495
3.43634
3.4416
3.44263
3.44668
3.44748
3.45061
3.45123
3.45364
3.45412
3.45596
3.45632
3.4577
3.45797
3.45899
3.45918
3.45989
3.46001
3.46042
3.46051
3.46089
3.46097
3.46128
3.46134
3.46158
3.46162
3.46179
3.46182
3.46193
3.46194
3.46198
3.46197
3.46188
3.46181
3.46129
3.46099
3.45892
3.45751
3.44786
3.42905
3.42274
3.38571
3.37294
3.29404
3.28515
3.28368
3.28337
3.2833
2.55495
2.75587
2.81051
2.92645
2.95999
3.03615
3.05912
3.1146
3.13138
3.17212
3.18373
3.20944
3.21866
3.24576
3.25486
3.27999
3.28823
3.31039
3.31758
3.3367
3.34287
3.35919
3.36444
3.37829
3.38275
3.39452
3.39837
3.40867
3.41245
3.42374
3.43374
3.4365
3.44226
3.444
3.44821
3.44951
3.45275
3.45375
3.45626
3.45704
3.45897
3.45956
3.46104
3.46149
3.46259
3.46293
3.46374
3.46398
3.46455
3.46471
3.46504
3.46515
3.46546
3.46555
3.4658
3.46588
3.46606
3.46612
3.46625
3.46629
3.46638
3.4664
3.46643
3.46642
3.46634
3.46624
3.46582
3.46542
3.46366
3.46184
3.45333
3.43786
3.42991
3.4
3.38415
3.32258
3.31151
3.30936
3.30889
3.30879
2.6939
2.8481
2.90485
2.99841
3.03372
3.09514
3.11931
3.16393
3.18156
3.21427
3.22648
3.24736
3.25706
3.27877
3.28832
3.30847
3.31712
3.33491
3.34246
3.35781
3.3643
3.37739
3.38291
3.39403
3.39872
3.40817
3.41222
3.42054
3.42453
3.43382
3.44213
3.44506
3.44973
3.45156
3.45495
3.45632
3.45892
3.45998
3.46199
3.4628
3.46436
3.46498
3.46616
3.46664
3.46753
3.46788
3.46853
3.46878
3.46924
3.4694
3.46967
3.46979
3.47003
3.47014
3.47034
3.47041
3.47057
3.47062
3.47073
3.47077
3.47084
3.47086
3.47088
3.47087
3.4708
3.47071
3.47034
3.46992
3.46842
3.46644
3.45908
3.44637
3.43798
3.41374
3.3972
3.34911
3.33753
3.33498
3.33441
3.33428
2.82666
2.94421
2.9977
3.07268
3.10639
3.1556
3.17867
3.21433
3.23114
3.25722
3.26888
3.28572
3.29498
3.31226
3.32135
3.33741
3.34565
3.35983
3.36703
3.37927
3.38545
3.3959
3.40116
3.41003
3.4145
3.42205
3.42591
3.43257
3.43639
3.44394
3.45074
3.45356
3.45731
3.45907
3.46178
3.46308
3.46516
3.46616
3.46777
3.46855
3.46979
3.47038
3.47133
3.47178
3.47249
3.47282
3.47334
3.47358
3.47395
3.4741
3.47432
3.47443
3.47463
3.47472
3.47488
3.47496
3.47508
3.47513
3.47522
3.47526
3.47531
3.47533
3.47535
3.47534
3.47528
3.47518
3.47488
3.47447
3.4732
3.47126
3.46505
3.45473
3.44668
3.42718
3.41152
3.37418
3.3632
3.36054
3.35991
3.35977
2.95471
3.04288
3.08968
3.1486
3.17844
3.21711
3.23752
3.26548
3.28033
3.30075
3.31107
3.32438
3.33257
3.34607
3.3541
3.36666
3.37394
3.38503
3.39139
3.40098
3.40644
3.41462
3.41926
3.42621
3.43016
3.43607
3.43949
3.44472
3.44811
3.4541
3.45951
3.46202
3.46498
3.46654
3.46866
3.46982
3.47144
3.47233
3.47359
3.47428
3.47525
3.47577
3.47651
3.47691
3.47747
3.47776
3.47817
3.47838
3.47867
3.47881
3.47898
3.47907
3.47923
3.47931
3.47944
3.4795
3.4796
3.47965
3.47971
3.47975
3.47979
3.47981
3.47982
3.47981
3.47976
3.47968
3.47943
3.47906
3.47801
3.47626
3.47119
3.46299
3.45586
3.44047
3.42671
3.39821
3.38855
3.38602
3.38541
3.38527
3.07922
3.1432
3.18117
3.22567
3.25012
3.27935
3.29606
3.31714
3.3293
3.34468
3.35313
3.36324
3.36995
3.3801
3.38667
3.39612
3.40207
3.41043
3.41563
3.42284
3.42731
3.43347
3.43728
3.44251
3.44574
3.45019
3.45299
3.45695
3.45973
3.46427
3.4684
3.47046
3.47271
3.47399
3.47559
3.47653
3.47776
3.47849
3.47944
3.48
3.48073
3.48116
3.48171
3.48204
3.48246
3.4827
3.48301
3.48318
3.4834
3.48351
3.48364
3.48372
3.48384
3.48391
3.484
3.48405
3.48412
3.48417
3.48422
3.48424
3.48428
3.48429
3.4843
3.48429
3.48425
3.48418
3.48399
3.48368
3.48286
3.4814
3.47747
3.47122
3.46536
3.4537
3.4425
3.4215
3.41361
3.41143
3.41089
3.41076
3.20117
3.24455
3.27239
3.30354
3.32161
3.34207
3.35442
3.36917
3.37814
3.38888
3.39513
3.40223
3.40719
3.41427
3.41912
3.42571
3.43011
3.43594
3.43978
3.44482
3.44812
3.45242
3.45523
3.45888
3.46127
3.46438
3.46645
3.46922
3.47128
3.47447
3.47737
3.4789
3.48048
3.48142
3.48255
3.48324
3.4841
3.48464
3.4853
3.48571
3.48622
3.48654
3.48693
3.48717
3.48746
3.48764
3.48786
3.48799
3.48814
3.48822
3.48831
3.48837
3.48845
3.4885
3.48857
3.48861
3.48866
3.48869
3.48872
3.48874
3.48876
3.48878
3.48878
3.48878
3.48875
3.4887
3.48856
3.48833
3.48773
3.48664
3.48384
3.47944
3.4751
3.46692
3.45868
3.44426
3.43846
3.43678
3.43636
3.43626
3.32137
3.34651
3.36348
3.38193
3.39299
3.40512
3.41268
3.42141
3.42691
3.43326
3.43709
3.44131
3.44435
3.44853
3.4515
3.4554
3.45809
3.46154
3.46389
3.46687
3.46889
3.47143
3.47315
3.47531
3.47677
3.47861
3.47988
3.48152
3.48278
3.48468
3.4864
3.48734
3.48828
3.48886
3.48952
3.48995
3.49045
3.49078
3.49118
3.49143
3.49173
3.49192
3.49216
3.4923
3.49248
3.49259
3.49271
3.49279
3.49288
3.49293
3.49298
3.49302
3.49307
3.4931
3.49314
3.49316
3.49319
3.49321
3.49323
3.49324
3.49326
3.49326
3.49327
3.49326
3.49325
3.49321
3.49313
3.49299
3.49263
3.49196
3.49028
3.48766
3.485
3.48015
3.47512
3.46669
3.46314
3.46209
3.46182
3.46176
3.44057
3.4488
3.4545
3.46061
3.46434
3.46836
3.4709
3.47379
3.47564
3.47774
3.47903
3.48043
3.48145
3.48284
3.48384
3.48513
3.48603
3.48717
3.48796
3.48895
3.48963
3.49047
3.49105
3.49177
3.49226
3.49287
3.49329
3.49384
3.49426
3.49489
3.49546
3.49578
3.49609
3.49629
3.49651
3.49665
3.49682
3.49693
3.49706
3.49714
3.49724
3.49731
3.49738
3.49743
3.49749
3.49753
3.49757
3.4976
3.49763
3.49764
3.49766
3.49767
3.49769
3.4977
3.49771
3.49772
3.49773
3.49774
3.49774
3.49775
3.49775
3.49775
3.49776
3.49775
3.49775
3.49774
3.49771
3.49766
3.49754
3.49731
3.49676
3.49589
3.49499
3.49338
3.49169
3.48892
3.48772
3.48737
3.48727
3.48725
3.43523
3.44304
3.44803
3.45272
3.45525
3.45755
3.45882
3.46004
3.46072
3.46138
3.46183
3.46241
3.46283
3.46336
3.46373
3.46421
3.46454
3.46497
3.46527
3.46566
3.46593
3.46629
3.46654
3.46685
3.46708
3.46737
3.46757
3.46784
3.46805
3.46837
3.46866
3.46881
3.46897
3.46906
3.46916
3.46922
3.4693
3.46934
3.4694
3.46943
3.46947
3.46949
3.46952
3.46953
3.46955
3.46956
3.46958
3.46958
3.46959
3.4696
3.4696
3.4696
3.4696
3.4696
3.4696
3.4696
3.46959
3.46959
3.46957
3.46956
3.46954
3.46952
3.46948
3.46944
3.46937
3.4693
3.46916
3.469
3.46868
3.4682
3.46714
3.46566
3.46433
3.46215
3.46004
3.45674
3.45533
3.45491
3.4548
3.45478
3.30539
3.32923
3.3441
3.35823
3.36576
3.37269
3.37648
3.38015
3.38216
3.38413
3.38548
3.38724
3.38847
3.39008
3.39119
3.39262
3.39362
3.39491
3.39581
3.39699
3.3978
3.39886
3.3996
3.40056
3.40123
3.4021
3.40271
3.40352
3.40415
3.4051
3.40597
3.40644
3.4069
3.40717
3.40748
3.40767
3.4079
3.40803
3.40819
3.40829
3.40841
3.40848
3.40856
3.4086
3.40866
3.40869
3.40873
3.40875
3.40877
3.40879
3.4088
3.4088
3.40881
3.40881
3.4088
3.4088
3.40878
3.40876
3.40872
3.40869
3.40862
3.40856
3.40844
3.40832
3.40811
3.40789
3.40749
3.40701
3.40603
3.40462
3.40142
3.39699
3.39304
3.38645
3.38018
3.37016
3.36596
3.36472
3.3644
3.36433
3.17459
3.21577
3.24021
3.26401
3.27629
3.28795
3.29413
3.30032
3.3036
3.30692
3.30911
3.31209
3.31411
3.31681
3.31863
3.32106
3.32269
3.32487
3.32634
3.32832
3.32966
3.33145
3.33266
3.33429
3.33538
3.33685
3.33784
3.33921
3.34024
3.34184
3.3433
3.34407
3.34484
3.34529
3.34581
3.34612
3.3465
3.34672
3.34699
3.34715
3.34734
3.34746
3.34759
3.34767
3.34777
3.34782
3.34788
3.34792
3.34796
3.34798
3.348
3.34801
3.34801
3.34801
3.34801
3.34799
3.34796
3.34793
3.34787
3.34781
3.3477
3.3476
3.3474
3.34721
3.34686
3.3465
3.34581
3.34504
3.34341
3.34111
3.33576
3.32829
3.32185
3.31073
3.30046
3.28334
3.27647
3.2745
3.27399
3.27387
3.04213
3.10299
3.13633
3.17026
3.18685
3.20343
3.21178
3.2206
3.22504
3.22975
3.23271
3.23698
3.23971
3.24359
3.24605
3.24952
3.25173
3.25486
3.25685
3.25969
3.2615
3.26407
3.2657
3.26803
3.26951
3.27161
3.27296
3.27491
3.2763
3.27859
3.28066
3.28169
3.28279
3.2834
3.28414
3.28457
3.2851
3.28541
3.28579
3.28601
3.28629
3.28644
3.28664
3.28674
3.28688
3.28695
3.28704
3.28709
3.28714
3.28717
3.2872
3.28721
3.28722
3.28722
3.28721
3.28719
3.28715
3.28711
3.28702
3.28694
3.28678
3.28664
3.28636
3.2861
3.2856
3.28512
3.28415
3.2831
3.28081
3.27773
3.27018
3.25955
3.25085
3.23498
3.22102
3.19611
3.18679
3.18421
3.18357
3.18342
2.90725
2.9913
3.03243
3.07719
3.09741
3.11925
3.12942
3.14106
3.14647
3.15264
3.15625
3.16194
3.16527
3.17042
3.17342
3.17804
3.18074
3.18489
3.18733
3.19109
3.1933
3.19672
3.19872
3.20181
3.20362
3.2064
3.20805
3.21063
3.21233
3.21534
3.21807
3.21931
3.22076
3.2215
3.22249
3.22301
3.22372
3.22409
3.2246
3.22487
3.22524
3.22543
3.22568
3.22581
3.22599
3.22608
3.2262
3.22626
3.22633
3.22636
3.2264
3.22641
3.22643
3.22643
3.22641
3.22639
3.22634
3.22629
3.22617
3.22607
3.22586
3.22569
3.22532
3.22501
3.22435
3.22376
3.22248
3.22121
3.21824
3.21452
3.20472
3.19073
3.18013
3.15916
3.14202
3.10826
3.09684
3.09385
3.09312
3.09296
2.76899
2.88133
2.92839
2.9851
3.0079
3.03552
3.04699
3.06177
3.06787
3.07564
3.07971
3.08698
3.09075
3.09734
3.10073
3.10663
3.10968
3.11499
3.11775
3.12256
3.12506
3.12943
3.13169
3.13564
3.13768
3.14124
3.1431
3.14639
3.1483
3.15211
3.15553
3.15693
3.15876
3.1596
3.16086
3.16145
3.16235
3.16277
3.16342
3.16373
3.16419
3.16441
3.16473
3.16488
3.16511
3.16521
3.16536
3.16543
3.16552
3.16556
3.1656
3.16562
3.16564
3.16564
3.16562
3.1656
3.16553
3.16547
3.16532
3.16521
3.16495
3.16475
3.16428
3.16393
3.16309
3.16243
3.16082
3.1594
3.1557
3.15156
3.13944
3.12178
3.10983
3.08318
3.06368
3.01952
3.00655
3.0034
3.00266
3.00249
2.62624
2.77396
2.82395
2.89436
2.91819
2.95244
2.96443
2.98283
2.9892
2.99879
3.00305
3.01216
3.01613
3.02438
3.02795
3.03534
3.03854
3.0452
3.04809
3.05412
3.05675
3.06222
3.06459
3.06954
3.07169
3.07615
3.0781
3.0822
3.0842
3.08889
3.09307
3.09453
3.0968
3.09768
3.09925
3.09987
3.101
3.10144
3.10226
3.10258
3.10316
3.10338
3.10379
3.10395
3.10423
3.10434
3.10453
3.10459
3.10471
3.10475
3.1048
3.10482
3.10485
3.10485
3.10483
3.1048
3.10472
3.10466
3.10447
3.10436
3.10403
3.10382
3.10323
3.10286
3.10182
3.10113
3.09914
3.09767
3.09319
3.08892
3.07438
3.05261
3.04012
3.00691
2.98634
2.92953
2.91587
2.91285
2.91217
2.91202
2.47757
2.67051
2.7187
2.80549
2.82806
2.87025
2.88161
2.90436
2.9104
2.92214
2.92618
2.93755
2.94133
2.95161
2.955
2.96421
2.96726
2.97555
2.97831
2.98582
2.98831
2.99513
2.99739
3.00356
3.0056
3.01115
3.01301
3.0181
3.01998
3.02569
3.03072
3.03209
3.0349
3.03573
3.03768
3.03827
3.03968
3.0401
3.04111
3.04142
3.04214
3.04235
3.04286
3.04301
3.04336
3.04346
3.0437
3.04376
3.04391
3.04394
3.04401
3.04403
3.04406
3.04406
3.04404
3.04401
3.04391
3.04385
3.04362
3.04351
3.0431
3.0429
3.04218
3.04183
3.04055
3.03989
3.03745
3.03607
3.03066
3.0267
3.0096
2.98306
2.97124
2.93015
2.91044
2.83782
2.82476
2.82222
2.82166
2.82154
2.32118
2.57283
2.61189
2.71918
2.73715
2.78929
2.79834
2.82656
2.83137
2.8458
2.84903
2.86324
2.86626
2.87911
2.88183
2.89333
2.89577
2.90613
2.90833
2.91771
2.91971
2.92823
2.93004
2.93774
2.93937
2.94631
2.94779
2.95412
2.95562
2.96251
2.96852
2.9696
2.97308
2.97374
2.97617
2.97664
2.9784
2.97873
2.98
2.98024
2.98114
2.98131
2.98195
2.98206
2.9825
2.98258
2.98288
2.98293
2.98311
2.98314
2.98322
2.98324
2.98328
2.98328
2.98325
2.98323
2.98309
2.98305
2.98277
2.98268
2.98217
2.98201
2.98112
2.98084
2.97925
2.97873
2.97572
2.97463
2.96808
2.965
2.94521
2.91293
2.90353
2.85253
2.83666
2.74372
2.73324
2.7315
2.73114
2.73106
2.15472
2.48366
2.50235
2.63644
2.64487
2.71005
2.71429
2.74969
2.75195
2.76991
2.77143
2.78938
2.79081
2.80702
2.8083
2.82281
2.82396
2.83703
2.83807
2.8499
2.85085
2.86159
2.86244
2.87216
2.87293
2.88168
2.88238
2.89034
2.89104
2.89938
2.90651
2.90701
2.91136
2.91168
2.91474
2.91496
2.91717
2.91733
2.91892
2.91904
2.92017
2.92025
2.92105
2.92111
2.92166
2.9217
2.92207
2.92209
2.92232
2.92233
2.92244
2.92244
2.92249
2.9225
2.92246
2.92245
2.92228
2.92226
2.92191
2.92187
2.92123
2.92115
2.92003
2.9199
2.91791
2.91766
2.91392
2.91341
2.90537
2.90396
2.88131
2.84188
2.83749
2.7735
2.76597
2.64633
2.64136
2.64073
2.64061
2.64058
)
;

boundaryField
{
    F1_1
    {
        type            fixedValue;
        value           nonuniform List<scalar> 
80
(
2.06499
2.44562
2.44562
2.59843
2.59843
2.67356
2.67356
2.71625
2.71625
2.74278
2.74278
2.7578
2.7578
2.77407
2.77407
2.78953
2.78953
2.80384
2.80384
2.81699
2.81699
2.82902
2.82902
2.83996
2.83996
2.84983
2.84983
2.85882
2.85882
2.868
2.87576
2.87576
2.88067
2.88067
2.88415
2.88415
2.88665
2.88665
2.88846
2.88846
2.88974
2.88974
2.89065
2.89065
2.89127
2.89127
2.89169
2.89169
2.89195
2.89195
2.89206
2.89206
2.89212
2.89212
2.89208
2.89208
2.89189
2.89189
2.89149
2.89149
2.89076
2.89076
2.88949
2.88949
2.88722
2.88722
2.88297
2.88297
2.8739
2.8739
2.84974
2.80571
2.80571
2.73293
2.73293
2.59543
2.59543
2.59543
2.59543
2.59543
)
;
    }
    F1_2
    {
        type            fixedValue;
        value           nonuniform List<scalar> 
80
(
2.16464
2.55911
2.55911
2.76501
2.76501
2.90063
2.90063
2.99999
2.99999
3.07328
3.07328
3.1184
3.1184
3.16737
3.16737
3.21265
3.21265
3.25252
3.25252
3.2869
3.2869
3.31623
3.31623
3.34111
3.34111
3.36223
3.36223
3.3806
3.3806
3.39888
3.41441
3.41441
3.42457
3.42457
3.43212
3.43212
3.43794
3.43794
3.44245
3.44245
3.44592
3.44592
3.44857
3.44857
3.45057
3.45057
3.45204
3.45204
3.45306
3.45306
3.45364
3.45364
3.4542
3.4542
3.45465
3.45465
3.45498
3.45498
3.45523
3.45523
3.45538
3.45538
3.45544
3.45544
3.45531
3.45531
3.45462
3.45462
3.45185
3.45185
3.44059
3.41482
3.41482
3.36216
3.36216
3.24526
3.24526
3.24526
3.24526
3.24526
)
;
    }
    F1_3
    {
        type            fixedValue;
        value           nonuniform List<scalar> 
80
(
2.16464
2.5591
2.5591
2.76501
2.76501
2.90062
2.90062
2.99998
2.99998
3.07327
3.07327
3.11839
3.11839
3.16736
3.16736
3.21264
3.21264
3.25251
3.25251
3.28689
3.28689
3.31621
3.31621
3.3411
3.3411
3.36222
3.36222
3.38059
3.38059
3.39887
3.4144
3.4144
3.42457
3.42457
3.43212
3.43212
3.43793
3.43793
3.44244
3.44244
3.44592
3.44592
3.44857
3.44857
3.45057
3.45057
3.45203
3.45203
3.45306
3.45306
3.45364
3.45364
3.45419
3.45419
3.45464
3.45464
3.45498
3.45498
3.45523
3.45523
3.45538
3.45538
3.45544
3.45544
3.45531
3.45531
3.45462
3.45462
3.45185
3.45185
3.44059
3.41482
3.41482
3.36216
3.36216
3.24524
3.24524
3.24524
3.24524
3.24524
)
;
    }
    F1_4
    {
        type            fixedValue;
        value           nonuniform List<scalar> 
80
(
2.06481
2.44521
2.44521
2.59754
2.59754
2.67161
2.67161
2.7119
2.7119
2.73228
2.73228
2.75277
2.75277
2.77126
2.77126
2.78781
2.78781
2.80271
2.80271
2.81621
2.81621
2.82846
2.82846
2.83954
2.83954
2.84951
2.84951
2.85858
2.85858
2.86783
2.87564
2.87564
2.88059
2.88059
2.88408
2.88408
2.88661
2.88661
2.88843
2.88843
2.88972
2.88972
2.89064
2.89064
2.89127
2.89127
2.89169
2.89169
2.89195
2.89195
2.89207
2.89207
2.89213
2.89213
2.89208
2.89208
2.89189
2.89189
2.89149
2.89149
2.89077
2.89077
2.88949
2.88949
2.88722
2.88722
2.88297
2.88297
2.87389
2.87389
2.84973
2.80568
2.80568
2.73289
2.73289
2.59537
2.59537
2.59537
2.59537
2.59537
)
;
    }
    F2_1
    {
        type            fixedValue;
        value           uniform 3.5;
    }
    F2_2
    {
        type            fixedValue;
        value           uniform 3.5;
    }
    F2_3
    {
        type            fixedValue;
        value           uniform 3.5;
    }
    F2_4
    {
        type            fixedValue;
        value           uniform 3.5;
    }
    defaultFaces
    {
        type            empty;
    }
}


// ************************************************************************* //
