/*--------------------------------*- C++ -*----------------------------------*\
| =========                 |                                                 |
| \\      /  F ield         | OpenFOAM: The Open Source CFD Toolbox           |
|  \\    /   O peration     | Version:  5.x                                   |
|   \\  /    A nd           | Web:      www.OpenFOAM.org                      |
|    \\/     M anipulation  |                                                 |
\*---------------------------------------------------------------------------*/
FoamFile
{
    version     2.0;
    format      ascii;
    class       volScalarField;
    location    "12.6999";
    object      T;
}
// * * * * * * * * * * * * * * * * * * * * * * * * * * * * * * * * * * * * * //

dimensions      [0 0 0 1 0 0 0];

internalField   nonuniform List<scalar> 
6300
(
322.84
322.521
322.201
321.879
321.554
321.226
320.895
320.559
320.219
319.873
319.522
319.165
318.802
318.433
318.058
322.841
322.522
322.202
321.881
321.557
321.23
320.899
320.564
320.224
319.879
319.528
319.171
318.808
318.439
318.064
322.842
322.524
322.206
321.886
321.563
321.237
320.908
320.573
320.234
319.89
319.539
319.183
318.82
318.451
318.075
322.843
322.528
322.211
321.893
321.573
321.249
320.921
320.588
320.25
319.907
319.557
319.201
318.838
318.469
318.093
322.844
322.532
322.219
321.903
321.585
321.264
320.938
320.608
320.272
319.93
319.581
319.226
318.863
318.493
318.116
322.846
322.537
322.228
321.916
321.601
321.283
320.961
320.633
320.3
319.96
319.613
319.258
318.895
318.525
318.147
322.848
322.544
322.239
321.931
321.621
321.307
320.989
320.664
320.334
319.997
319.651
319.298
318.935
318.564
318.184
322.851
322.552
322.252
321.95
321.645
321.336
321.022
320.702
320.376
320.041
319.699
319.346
318.984
318.612
318.229
322.854
322.561
322.267
321.971
321.672
321.369
321.061
320.746
320.425
320.095
319.755
319.405
319.044
318.67
318.284
322.857
322.572
322.285
321.995
321.703
321.407
321.106
320.798
320.482
320.158
319.823
319.475
319.115
318.74
318.35
322.861
322.583
322.304
322.023
321.739
321.45
321.157
320.857
320.549
320.231
319.902
319.559
319.201
318.824
318.43
322.866
322.596
322.326
322.053
321.778
321.499
321.215
320.924
320.625
320.316
319.995
319.658
319.304
318.928
318.528
322.87
322.61
322.35
322.087
321.822
321.553
321.279
320.999
320.712
320.414
320.103
319.776
319.428
319.055
318.653
322.875
322.626
322.375
322.123
321.869
321.611
321.349
321.082
320.808
320.524
320.228
319.914
319.577
319.212
318.814
322.881
322.642
322.402
322.161
321.919
321.674
321.425
321.173
320.914
320.647
320.369
320.075
319.756
319.402
319.011
317.71
317.389
317.065
316.737
316.406
316.072
315.736
315.397
315.056
314.713
314.368
314.021
313.673
313.324
312.974
312.624
312.273
311.922
311.571
311.22
310.869
310.519
310.169
309.82
309.471
309.122
308.774
308.427
308.08
307.734
307.389
307.044
306.701
306.358
306.016
305.676
305.337
304.998
304.661
304.325
303.989
303.655
303.321
302.988
302.657
302.326
301.996
301.668
301.34
301.014
300.689
300.365
300.042
299.721
299.4
299.08
298.761
298.443
298.125
297.809
297.494
297.179
296.866
296.553
296.242
295.931
295.622
295.313
295.005
294.698
294.392
294.087
293.782
293.477
293.174
292.871
292.568
292.266
291.965
291.664
291.363
291.063
290.763
290.462
290.162
289.861
289.559
289.256
288.953
288.648
317.715
317.394
317.069
316.741
316.41
316.076
315.739
315.4
315.059
314.715
314.37
314.023
313.675
313.326
312.975
312.624
312.273
311.922
311.571
311.22
310.869
310.519
310.169
309.819
309.47
309.122
308.774
308.426
308.079
307.733
307.387
307.043
306.699
306.356
306.015
305.675
305.335
304.997
304.66
304.323
303.988
303.653
303.32
302.987
302.655
302.324
301.995
301.666
301.339
301.013
300.688
300.364
300.041
299.719
299.398
299.079
298.76
298.441
298.124
297.808
297.492
297.178
296.864
296.552
296.24
295.93
295.62
295.312
295.004
294.697
294.391
294.086
293.781
293.476
293.173
292.87
292.567
292.265
291.964
291.663
291.363
291.063
290.763
290.463
290.163
289.862
289.56
289.257
288.954
288.649
317.726
317.404
317.079
316.75
316.419
316.084
315.747
315.407
315.065
314.721
314.375
314.027
313.678
313.328
312.977
312.626
312.274
311.922
311.57
311.219
310.868
310.517
310.167
309.818
309.469
309.12
308.772
308.424
308.077
307.731
307.385
307.04
306.696
306.353
306.012
305.671
305.332
304.994
304.657
304.321
303.985
303.651
303.317
302.984
302.652
302.321
301.992
301.663
301.335
301.009
300.684
300.361
300.038
299.716
299.396
299.076
298.757
298.439
298.122
297.805
297.489
297.175
296.861
296.549
296.237
295.927
295.618
295.309
295.002
294.695
294.389
294.084
293.779
293.475
293.171
292.868
292.565
292.264
291.963
291.662
291.362
291.063
290.763
290.464
290.164
289.864
289.562
289.26
288.957
288.652
317.742
317.42
317.094
316.764
316.431
316.095
315.757
315.416
315.074
314.729
314.382
314.033
313.683
313.332
312.98
312.627
312.274
311.921
311.569
311.217
310.866
310.515
310.165
309.816
309.467
309.118
308.77
308.422
308.074
307.727
307.381
307.036
306.692
306.349
306.007
305.667
305.328
304.99
304.653
304.317
303.982
303.647
303.313
302.98
302.648
302.317
301.987
301.658
301.33
301.004
300.679
300.356
300.034
299.712
299.392
299.072
298.753
298.435
298.118
297.801
297.485
297.17
296.857
296.544
296.233
295.923
295.614
295.306
294.999
294.692
294.387
294.081
293.776
293.472
293.168
292.865
292.563
292.261
291.96
291.66
291.361
291.062
290.764
290.465
290.166
289.867
289.566
289.264
288.961
288.656
317.765
317.441
317.113
316.782
316.448
316.111
315.771
315.429
315.085
314.739
314.391
314.041
313.689
313.337
312.983
312.629
312.275
311.921
311.567
311.215
310.863
310.513
310.163
309.813
309.464
309.116
308.767
308.419
308.071
307.723
307.376
307.03
306.685
306.342
306
305.66
305.321
304.984
304.647
304.312
303.977
303.642
303.308
302.975
302.642
302.31
301.98
301.651
301.323
300.997
300.672
300.349
300.028
299.707
299.387
299.068
298.749
298.431
298.113
297.796
297.479
297.164
296.85
296.538
296.226
295.917
295.608
295.301
294.994
294.688
294.383
294.078
293.773
293.469
293.165
292.861
292.559
292.257
291.957
291.657
291.359
291.061
290.764
290.467
290.17
289.872
289.572
289.271
288.968
288.663
317.793
317.468
317.138
316.805
316.468
316.13
315.789
315.445
315.1
314.753
314.403
314.051
313.698
313.343
312.987
312.631
312.274
311.919
311.564
311.211
310.859
310.509
310.159
309.81
309.462
309.113
308.764
308.415
308.066
307.717
307.369
307.022
306.677
306.333
305.991
305.651
305.313
304.976
304.641
304.306
303.971
303.637
303.303
302.969
302.635
302.303
301.971
301.641
301.313
300.987
300.663
300.341
300.02
299.7
299.381
299.062
298.744
298.425
298.107
297.789
297.472
297.156
296.842
296.529
296.218
295.909
295.601
295.295
294.989
294.684
294.379
294.074
293.769
293.465
293.16
292.856
292.554
292.252
291.952
291.653
291.356
291.06
290.765
290.47
290.174
289.878
289.58
289.28
288.977
288.672
317.828
317.5
317.167
316.831
316.493
316.152
315.809
315.465
315.118
314.769
314.418
314.064
313.708
313.351
312.992
312.632
312.273
311.916
311.56
311.206
310.854
310.504
310.155
309.807
309.459
309.11
308.761
308.412
308.061
307.711
307.361
307.013
306.666
306.321
305.98
305.64
305.303
304.968
304.633
304.299
303.965
303.631
303.296
302.962
302.627
302.293
301.96
301.629
301.301
300.975
300.652
300.331
300.011
299.693
299.375
299.057
298.738
298.42
298.101
297.782
297.463
297.146
296.831
296.518
296.207
295.899
295.592
295.287
294.983
294.679
294.375
294.071
293.766
293.46
293.155
292.85
292.546
292.244
291.944
291.647
291.351
291.057
290.765
290.473
290.18
289.887
289.591
289.293
288.991
288.685
317.87
317.538
317.202
316.862
316.52
316.177
315.832
315.487
315.139
314.789
314.436
314.08
313.721
313.36
312.997
312.633
312.27
311.91
311.552
311.197
310.845
310.496
310.149
309.803
309.456
309.109
308.76
308.409
308.057
307.704
307.351
307
306.651
306.306
305.964
305.626
305.291
304.957
304.625
304.293
303.96
303.626
303.291
302.954
302.617
302.281
301.946
301.614
301.285
300.96
300.637
300.318
300.001
299.684
299.368
299.051
298.733
298.414
298.094
297.773
297.453
297.134
296.817
296.504
296.194
295.886
295.581
295.279
294.976
294.674
294.372
294.068
293.762
293.456
293.149
292.842
292.537
292.234
291.934
291.637
291.344
291.053
290.764
290.476
290.188
289.899
289.606
289.31
289.009
288.703
317.92
317.583
317.241
316.896
316.55
316.204
315.858
315.511
315.163
314.813
314.459
314.101
313.738
313.372
313.003
312.633
312.265
311.9
311.539
311.184
310.833
310.487
310.143
309.8
309.456
309.11
308.761
308.408
308.053
307.696
307.339
306.984
306.632
306.286
305.944
305.608
305.275
304.945
304.616
304.287
303.956
303.623
303.287
302.948
302.607
302.267
301.929
301.594
301.264
300.939
300.619
300.302
299.988
299.676
299.363
299.048
298.73
298.41
298.088
297.764
297.44
297.118
296.799
296.485
296.175
295.87
295.568
295.268
294.97
294.671
294.37
294.067
293.761
293.452
293.142
292.832
292.524
292.219
291.919
291.623
291.332
291.046
290.762
290.48
290.198
289.915
289.627
289.335
289.035
288.728
317.979
317.635
317.284
316.932
316.58
316.23
315.883
315.538
315.192
314.842
314.488
314.128
313.761
313.387
313.009
312.631
312.254
311.883
311.52
311.164
310.816
310.473
310.135
309.797
309.458
309.115
308.766
308.412
308.052
307.688
307.324
306.963
306.607
306.258
305.917
305.583
305.256
304.931
304.609
304.284
303.957
303.624
303.286
302.943
302.597
302.25
301.906
301.568
301.236
300.912
300.595
300.283
299.975
299.668
299.359
299.048
298.732
298.41
298.084
297.755
297.425
297.098
296.775
296.459
296.151
295.848
295.551
295.257
294.964
294.67
294.372
294.07
293.762
293.45
293.135
292.82
292.507
292.198
291.897
291.602
291.315
291.034
290.757
290.484
290.211
289.936
289.656
289.369
289.072
288.764
318.051
317.694
317.331
316.966
316.606
316.253
315.907
315.565
315.224
314.879
314.527
314.165
313.792
313.409
313.018
312.625
312.236
311.856
311.488
311.133
310.789
310.455
310.125
309.797
309.466
309.128
308.78
308.423
308.056
307.682
307.306
306.934
306.57
306.219
305.879
305.551
305.231
304.916
304.603
304.286
303.964
303.633
303.292
302.943
302.587
302.23
301.876
301.531
301.197
300.874
300.562
300.258
299.959
299.662
299.361
299.055
298.74
298.416
298.084
297.746
297.406
297.07
296.742
296.424
296.116
295.819
295.529
295.244
294.96
294.673
294.381
294.08
293.771
293.453
293.129
292.804
292.482
292.168
291.864
291.571
291.288
291.015
290.749
290.486
290.226
289.963
289.696
289.419
289.126
288.816
318.138
317.765
317.378
316.995
316.623
316.266
315.924
315.592
315.262
314.926
314.579
314.217
313.838
313.441
313.03
312.613
312.205
311.812
311.439
311.086
310.75
310.428
310.114
309.802
309.483
309.154
308.809
308.448
308.069
307.678
307.281
306.892
306.518
306.162
305.825
305.505
305.198
304.899
304.601
304.297
303.983
303.655
303.312
302.952
302.58
302.203
301.834
301.479
301.142
300.822
300.518
300.227
299.943
299.66
299.371
299.073
298.761
298.435
298.093
297.74
297.382
297.031
296.693
296.373
296.068
295.779
295.501
295.23
294.961
294.686
294.401
294.103
293.791
293.464
293.126
292.783
292.446
292.123
291.815
291.524
291.249
290.987
290.734
290.487
290.243
289.999
289.75
289.489
289.206
288.893
318.252
317.853
317.422
317.007
316.616
316.259
315.927
315.615
315.307
314.989
314.654
314.294
313.91
313.492
313.05
312.59
312.151
311.739
311.362
311.013
310.692
310.389
310.102
309.816
309.517
309.202
308.861
308.497
308.101
307.682
307.245
306.829
306.437
306.079
305.747
305.442
305.154
304.88
304.608
304.323
304.023
303.7
303.354
302.978
302.581
302.166
301.771
301.401
301.061
300.746
300.457
300.184
299.924
299.665
299.396
299.111
298.804
298.476
298.119
297.742
297.348
296.973
296.62
296.298
295.998
295.722
295.462
295.215
294.969
294.711
294.44
294.147
293.833
293.492
293.13
292.753
292.392
292.054
291.743
291.456
291.191
290.944
290.711
290.485
290.259
290.041
289.823
289.591
289.327
289.014
318.417
317.989
317.443
316.983
316.561
316.216
315.9
315.632
315.37
315.074
314.766
314.407
314.029
313.578
313.098
312.535
312.058
311.615
311.246
310.9
310.606
310.329
310.088
309.847
309.573
309.286
308.949
308.592
308.167
307.713
307.18
306.729
306.309
305.959
305.631
305.353
305.089
304.86
304.631
304.371
304.097
303.777
303.439
303.035
302.605
302.101
301.674
301.277
300.946
300.635
300.371
300.122
299.904
299.688
299.441
299.181
298.878
298.557
298.174
297.766
297.287
296.882
296.504
296.19
295.894
295.643
295.406
295.199
294.992
294.757
294.51
294.221
293.914
293.548
293.157
292.697
292.307
291.943
291.639
291.353
291.109
290.879
290.679
290.482
290.264
290.082
289.915
289.739
289.52
289.217
318.678
318.297
317.342
316.905
316.396
316.132
315.804
315.639
315.48
315.177
314.952
314.548
314.251
313.707
313.268
312.353
311.918
311.384
311.096
310.71
310.497
310.217
310.072
309.927
309.65
309.441
309.064
308.786
308.273
307.859
306.996
306.584
306.08
305.808
305.443
305.242
304.976
304.838
304.701
304.437
304.239
303.881
303.617
303.131
302.738
301.923
301.534
301.058
300.801
300.456
300.265
300.013
299.883
299.753
299.504
299.316
298.977
298.727
298.266
297.894
297.12
296.751
296.298
296.054
295.726
295.544
295.305
295.181
295.057
294.82
294.641
294.319
294.08
293.641
293.285
292.541
292.185
291.747
291.509
291.188
291.009
290.77
290.644
290.509
290.22
290.099
290.022
289.946
289.835
289.607
288.312
287.945
287.576
287.207
286.838
286.468
286.1
285.732
285.365
284.999
284.633
284.269
283.906
283.543
283.181
288.313
287.945
287.577
287.207
286.838
286.468
286.099
285.731
285.364
284.998
284.633
284.269
283.905
283.543
283.181
288.316
287.947
287.578
287.208
286.837
286.467
286.098
285.729
285.362
284.995
284.631
284.267
283.904
283.542
283.181
288.32
287.95
287.58
287.208
286.837
286.465
286.095
285.726
285.358
284.992
284.627
284.264
283.902
283.541
283.18
288.325
287.955
287.582
287.209
286.836
286.463
286.091
285.721
285.353
284.987
284.623
284.26
283.899
283.539
283.18
288.333
287.961
287.586
287.21
286.834
286.459
286.086
285.715
285.346
284.98
284.617
284.255
283.895
283.537
283.179
288.345
287.969
287.591
287.211
286.832
286.454
286.078
285.706
285.337
284.971
284.608
284.248
283.89
283.533
283.178
288.36
287.981
287.597
287.212
286.828
286.446
286.068
285.694
285.324
284.959
284.597
284.239
283.883
283.529
283.176
288.382
287.996
287.604
287.212
286.821
286.434
286.053
285.677
285.308
284.943
284.583
284.227
283.874
283.524
283.174
288.412
288.016
287.613
287.21
286.81
286.418
286.032
285.655
285.286
284.923
284.565
284.213
283.864
283.517
283.172
288.455
288.043
287.623
287.204
286.793
286.393
286.004
285.626
285.257
284.896
284.543
284.194
283.85
283.509
283.169
288.517
288.077
287.63
287.191
286.765
286.357
285.965
285.586
285.22
284.863
284.515
284.172
283.834
283.499
283.166
288.607
288.119
287.631
287.162
286.721
286.305
285.911
285.535
285.173
284.822
284.48
284.145
283.815
283.487
283.162
288.742
288.162
287.61
287.108
286.651
286.231
285.84
285.469
285.115
284.773
284.439
284.113
283.792
283.474
283.158
288.937
288.178
287.54
287.007
286.544
286.13
285.747
285.388
285.045
284.714
284.392
284.076
283.766
283.458
283.153
322.886
322.657
322.428
322.198
321.967
321.734
321.499
321.261
321.019
320.771
320.515
320.245
319.951
319.609
319.169
322.89
322.671
322.452
322.232
322.012
321.79
321.568
321.344
321.118
320.889
320.656
320.416
320.162
319.868
319.429
322.895
322.686
322.476
322.267
322.057
321.847
321.638
321.428
321.218
321.01
320.802
320.598
320.401
320.228
320.167
322.9
322.7
322.501
322.302
322.103
321.905
321.708
321.512
321.319
321.129
320.947
320.775
320.623
320.511
320.469
322.905
322.715
322.525
322.336
322.148
321.961
321.776
321.594
321.416
321.245
321.083
320.937
320.818
320.746
320.766
322.91
322.729
322.549
322.37
322.192
322.016
321.843
321.674
321.51
321.353
321.209
321.081
320.98
320.917
320.903
322.914
322.743
322.572
322.403
322.235
322.07
321.907
321.749
321.598
321.454
321.322
321.207
321.114
321.055
321.048
322.919
322.756
322.595
322.435
322.276
322.121
321.968
321.821
321.68
321.547
321.424
321.316
321.226
321.158
321.114
322.923
322.769
322.617
322.465
322.316
322.169
322.026
321.888
321.756
321.632
321.517
321.413
321.322
321.244
321.166
322.927
322.782
322.637
322.494
322.353
322.215
322.081
321.951
321.827
321.71
321.601
321.501
321.411
321.328
321.256
322.931
322.794
322.657
322.522
322.389
322.259
322.132
322.01
321.894
321.783
321.68
321.583
321.493
321.406
321.314
322.935
322.805
322.676
322.548
322.422
322.3
322.18
322.066
321.956
321.851
321.753
321.661
321.573
321.488
321.409
322.938
322.815
322.693
322.572
322.454
322.338
322.226
322.117
322.014
321.916
321.823
321.735
321.65
321.566
321.471
322.942
322.825
322.71
322.595
322.483
322.374
322.268
322.166
322.068
321.976
321.889
321.806
321.728
321.651
321.577
322.945
322.834
322.725
322.617
322.511
322.408
322.308
322.211
322.12
322.033
321.951
321.875
321.804
321.735
321.654
322.948
322.843
322.74
322.637
322.537
322.439
322.345
322.254
322.167
322.086
322.01
321.94
321.878
321.828
321.804
322.95
322.851
322.753
322.656
322.561
322.469
322.379
322.293
322.212
322.135
322.064
322
321.945
321.902
321.873
322.953
322.859
322.766
322.674
322.584
322.496
322.411
322.33
322.252
322.18
322.113
322.054
322.004
321.966
321.949
322.955
322.866
322.777
322.69
322.604
322.521
322.44
322.363
322.29
322.221
322.158
322.102
322.054
322.016
321.988
322.957
322.873
322.788
322.705
322.624
322.544
322.468
322.394
322.324
322.258
322.198
322.143
322.096
322.059
322.035
322.959
322.879
322.798
322.719
322.642
322.566
322.492
322.422
322.355
322.292
322.233
322.18
322.133
322.093
322.059
322.961
322.884
322.808
322.732
322.658
322.586
322.515
322.448
322.383
322.322
322.265
322.212
322.164
322.122
322.089
322.963
322.889
322.816
322.744
322.673
322.604
322.537
322.472
322.409
322.35
322.293
322.241
322.191
322.146
322.103
322.965
322.894
322.824
322.755
322.687
322.621
322.556
322.494
322.433
322.375
322.32
322.267
322.216
322.167
322.116
322.966
322.899
322.832
322.766
322.701
322.637
322.574
322.514
322.455
322.399
322.344
322.291
322.24
322.189
322.139
322.968
322.903
322.839
322.775
322.713
322.651
322.591
322.533
322.476
322.421
322.367
322.315
322.264
322.211
322.156
322.969
322.907
322.845
322.784
322.724
322.665
322.607
322.551
322.496
322.442
322.39
322.338
322.287
322.236
322.184
322.97
322.911
322.851
322.793
322.735
322.678
322.622
322.568
322.514
322.462
322.412
322.361
322.311
322.26
322.204
322.971
322.914
322.857
322.801
322.745
322.69
322.636
322.584
322.532
322.482
322.433
322.384
322.336
322.288
322.238
322.972
322.917
322.862
322.808
322.754
322.701
322.65
322.599
322.549
322.501
322.453
322.407
322.362
322.316
322.265
322.973
322.92
322.867
322.815
322.763
322.712
322.662
322.613
322.565
322.518
322.473
322.429
322.388
322.349
322.319
322.974
322.923
322.872
322.822
322.772
322.722
322.674
322.626
322.58
322.535
322.492
322.45
322.411
322.375
322.344
322.975
322.926
322.877
322.828
322.779
322.732
322.685
322.639
322.594
322.551
322.509
322.47
322.433
322.399
322.373
322.976
322.928
322.881
322.833
322.787
322.741
322.695
322.651
322.608
322.566
322.525
322.487
322.451
322.418
322.388
322.977
322.931
322.885
322.839
322.794
322.749
322.705
322.662
322.62
322.579
322.54
322.503
322.468
322.435
322.408
322.978
322.933
322.888
322.844
322.8
322.757
322.714
322.673
322.632
322.592
322.554
322.517
322.482
322.449
322.418
322.978
322.935
322.892
322.849
322.806
322.764
322.723
322.682
322.642
322.604
322.566
322.529
322.494
322.461
322.432
322.979
322.937
322.895
322.853
322.812
322.771
322.731
322.691
322.653
322.614
322.577
322.541
322.506
322.472
322.438
322.98
322.939
322.898
322.858
322.817
322.778
322.739
322.7
322.662
322.625
322.588
322.552
322.517
322.481
322.444
322.98
322.94
322.901
322.862
322.823
322.784
322.746
322.708
322.671
322.635
322.598
322.563
322.527
322.491
322.456
322.981
322.942
322.904
322.865
322.827
322.79
322.753
322.716
322.68
322.644
322.609
322.573
322.538
322.502
322.464
322.981
322.944
322.906
322.869
322.832
322.795
322.759
322.724
322.688
322.653
322.619
322.584
322.549
322.514
322.478
322.982
322.945
322.909
322.872
322.836
322.801
322.766
322.731
322.696
322.662
322.629
322.595
322.561
322.526
322.488
322.982
322.947
322.911
322.876
322.841
322.806
322.771
322.738
322.704
322.671
322.638
322.606
322.573
322.54
322.507
322.983
322.948
322.913
322.879
322.844
322.811
322.777
322.744
322.712
322.68
322.648
322.617
322.586
322.555
322.521
322.983
322.949
322.915
322.882
322.848
322.815
322.783
322.75
322.719
322.688
322.657
322.628
322.599
322.572
322.55
322.983
322.95
322.917
322.884
322.852
322.819
322.788
322.756
322.726
322.696
322.666
322.638
322.611
322.586
322.563
322.984
322.951
322.919
322.887
322.855
322.823
322.792
322.762
322.732
322.703
322.674
322.647
322.622
322.598
322.579
322.984
322.952
322.92
322.889
322.858
322.827
322.796
322.767
322.738
322.709
322.682
322.656
322.631
322.608
322.587
322.984
322.953
322.922
322.891
322.86
322.83
322.8
322.771
322.743
322.715
322.688
322.663
322.639
322.617
322.597
322.985
322.954
322.923
322.893
322.863
322.833
322.804
322.775
322.747
322.72
322.694
322.669
322.646
322.623
322.602
322.985
322.954
322.924
322.894
322.865
322.836
322.807
322.779
322.751
322.725
322.699
322.675
322.651
322.629
322.609
322.985
322.955
322.925
322.896
322.867
322.838
322.81
322.782
322.755
322.729
322.704
322.679
322.656
322.634
322.612
322.985
322.956
322.926
322.897
322.868
322.84
322.812
322.784
322.758
322.732
322.707
322.683
322.66
322.637
322.615
322.985
322.956
322.927
322.898
322.869
322.841
322.813
322.787
322.76
322.735
322.71
322.687
322.664
322.641
322.62
322.985
322.956
322.927
322.898
322.87
322.842
322.815
322.788
322.762
322.737
322.713
322.689
322.667
322.645
322.622
322.985
322.956
322.927
322.899
322.87
322.843
322.816
322.789
322.764
322.739
322.715
322.692
322.669
322.648
322.627
322.985
322.956
322.927
322.899
322.871
322.843
322.816
322.79
322.764
322.74
322.716
322.693
322.672
322.651
322.63
322.985
322.956
322.927
322.899
322.87
322.843
322.816
322.79
322.764
322.74
322.717
322.694
322.673
322.653
322.634
322.985
322.956
322.927
322.898
322.87
322.842
322.815
322.789
322.764
322.74
322.717
322.695
322.674
322.655
322.636
322.985
322.956
322.926
322.897
322.869
322.841
322.814
322.788
322.763
322.739
322.716
322.694
322.674
322.655
322.638
322.985
322.955
322.925
322.896
322.867
322.839
322.812
322.786
322.761
322.737
322.714
322.693
322.673
322.655
322.638
322.985
322.954
322.924
322.894
322.865
322.837
322.809
322.783
322.758
322.734
322.711
322.69
322.671
322.653
322.637
322.984
322.953
322.923
322.892
322.863
322.834
322.806
322.779
322.754
322.73
322.708
322.687
322.668
322.65
322.635
322.984
322.952
322.921
322.89
322.86
322.83
322.802
322.775
322.749
322.725
322.703
322.682
322.664
322.646
322.63
322.984
322.951
322.919
322.887
322.856
322.826
322.797
322.769
322.743
322.719
322.697
322.677
322.658
322.642
322.627
322.983
322.949
322.916
322.883
322.851
322.821
322.791
322.763
322.736
322.712
322.689
322.669
322.651
322.636
322.621
322.983
322.948
322.913
322.879
322.846
322.814
322.784
322.755
322.728
322.703
322.68
322.661
322.643
322.629
322.617
322.982
322.946
322.91
322.875
322.84
322.807
322.776
322.746
322.718
322.693
322.67
322.65
322.633
322.62
322.612
322.981
322.943
322.906
322.869
322.834
322.799
322.767
322.736
322.707
322.68
322.657
322.637
322.621
322.609
322.601
322.98
322.941
322.902
322.863
322.826
322.79
322.756
322.724
322.693
322.666
322.642
322.621
322.605
322.594
322.59
322.979
322.938
322.897
322.857
322.818
322.78
322.744
322.71
322.678
322.65
322.624
322.602
322.586
322.575
322.569
322.978
322.935
322.892
322.849
322.808
322.769
322.731
322.695
322.661
322.631
322.604
322.58
322.562
322.551
322.551
322.977
322.931
322.886
322.841
322.798
322.756
322.716
322.678
322.642
322.61
322.58
322.555
322.534
322.52
322.514
322.976
322.927
322.879
322.832
322.786
322.742
322.7
322.659
322.621
322.586
322.554
322.526
322.502
322.483
322.48
322.974
322.923
322.872
322.822
322.774
322.727
322.682
322.639
322.598
322.561
322.526
322.494
322.465
322.437
322.403
322.973
322.918
322.865
322.812
322.76
322.71
322.662
322.617
322.574
322.533
322.495
322.46
322.427
322.394
322.363
322.971
322.913
322.856
322.8
322.746
322.693
322.642
322.593
322.547
322.504
322.463
322.425
322.388
322.351
322.308
322.969
322.908
322.847
322.788
322.73
322.673
322.619
322.567
322.519
322.473
322.429
322.389
322.35
322.311
322.276
322.967
322.902
322.838
322.774
322.712
322.652
322.595
322.54
322.488
322.44
322.394
322.351
322.31
322.27
322.226
322.965
322.896
322.827
322.76
322.694
322.63
322.569
322.51
322.456
322.404
322.357
322.312
322.271
322.232
322.196
322.963
322.889
322.816
322.744
322.674
322.606
322.54
322.479
322.42
322.366
322.317
322.272
322.23
322.191
322.15
322.96
322.882
322.804
322.727
322.652
322.579
322.51
322.444
322.382
322.326
322.274
322.228
322.188
322.153
322.124
322.958
322.874
322.791
322.709
322.629
322.551
322.477
322.407
322.341
322.281
322.227
322.181
322.141
322.109
322.092
322.955
322.866
322.777
322.689
322.604
322.521
322.441
322.366
322.296
322.232
322.176
322.128
322.089
322.056
322.017
322.952
322.857
322.762
322.668
322.577
322.488
322.402
322.321
322.246
322.178
322.118
322.07
322.033
322.007
321.985
322.949
322.847
322.746
322.646
322.548
322.453
322.361
322.273
322.191
322.117
322.054
322.003
321.97
321.956
321.961
322.946
322.837
322.73
322.623
322.518
322.415
322.316
322.22
322.131
322.05
321.98
321.925
321.893
321.892
321.931
322.942
322.827
322.712
322.598
322.486
322.375
322.268
322.164
322.065
321.974
321.895
321.831
321.794
321.8
321.879
322.939
322.816
322.694
322.573
322.452
322.334
322.217
322.104
321.994
321.891
321.798
321.719
321.665
321.659
321.759
289.142
288.08
287.381
286.849
286.403
286.007
285.642
285.298
284.969
284.652
284.342
284.038
283.739
283.442
283.147
288.768
287.739
287.12
286.646
286.24
285.873
285.531
285.206
284.893
284.59
284.293
284.001
283.712
283.426
283.142
287.29
287.115
286.758
286.395
286.05
285.722
285.408
285.105
284.811
284.523
284.24
283.96
283.684
283.41
283.136
286.709
286.616
286.4
286.132
285.848
285.562
285.278
284.999
284.724
284.452
284.184
283.918
283.655
283.392
283.131
286.16
286.202
286.079
285.881
285.648
285.4
285.145
284.89
284.634
284.38
284.127
283.875
283.624
283.374
283.125
285.911
285.904
285.811
285.653
285.458
285.241
285.014
284.78
284.544
284.306
284.069
283.831
283.593
283.356
283.119
285.653
285.665
285.586
285.452
285.282
285.091
284.886
284.672
284.454
284.233
284.01
283.787
283.562
283.337
283.112
285.537
285.49
285.4
285.275
285.122
284.95
284.764
284.568
284.367
284.161
283.953
283.743
283.531
283.319
283.106
285.445
285.343
285.24
285.117
284.976
284.818
284.648
284.468
284.282
284.091
283.897
283.7
283.501
283.301
283.1
285.287
285.198
285.092
284.973
284.84
284.695
284.538
284.373
284.201
284.024
283.842
283.658
283.471
283.283
283.095
285.184
285.064
284.954
284.839
284.714
284.579
284.435
284.283
284.124
283.959
283.79
283.617
283.443
283.266
283.089
285.016
284.922
284.819
284.71
284.595
284.47
284.338
284.197
284.05
283.897
283.74
283.579
283.415
283.25
283.083
284.906
284.788
284.688
284.587
284.481
284.367
284.246
284.116
283.98
283.838
283.692
283.542
283.389
283.234
283.078
284.721
284.641
284.556
284.468
284.373
284.27
284.159
284.04
283.914
283.783
283.647
283.507
283.364
283.219
283.073
284.588
284.497
284.428
284.354
284.271
284.178
284.077
283.968
283.852
283.731
283.604
283.474
283.34
283.205
283.068
284.328
284.339
284.302
284.245
284.174
284.092
284.001
283.901
283.794
283.682
283.564
283.443
283.318
283.192
283.064
284.212
284.214
284.191
284.146
284.086
284.013
283.931
283.839
283.741
283.636
283.527
283.414
283.298
283.179
283.06
284.085
284.108
284.094
284.059
284.006
283.941
283.866
283.782
283.691
283.594
283.493
283.387
283.279
283.168
283.056
284.021
284.027
284.014
283.982
283.935
283.876
283.807
283.73
283.646
283.556
283.461
283.362
283.261
283.157
283.053
283.947
283.958
283.945
283.916
283.873
283.819
283.755
283.683
283.604
283.52
283.432
283.339
283.244
283.147
283.049
283.909
283.905
283.889
283.86
283.819
283.767
283.707
283.64
283.567
283.488
283.405
283.319
283.229
283.138
283.046
283.866
283.861
283.842
283.811
283.771
283.722
283.665
283.602
283.533
283.459
283.381
283.3
283.216
283.13
283.044
283.845
283.827
283.803
283.77
283.73
283.682
283.628
283.568
283.502
283.433
283.359
283.282
283.203
283.123
283.041
283.828
283.799
283.768
283.734
283.693
283.647
283.594
283.537
283.475
283.409
283.339
283.267
283.192
283.116
283.039
283.799
283.77
283.738
283.701
283.661
283.615
283.565
283.51
283.45
283.387
283.321
283.253
283.182
283.11
283.037
283.78
283.744
283.71
283.672
283.632
283.587
283.538
283.485
283.428
283.368
283.305
283.24
283.173
283.104
283.035
283.75
283.718
283.683
283.646
283.606
283.562
283.514
283.463
283.409
283.351
283.291
283.229
283.165
283.099
283.033
283.731
283.694
283.658
283.621
283.582
283.539
283.493
283.443
283.391
283.336
283.278
283.219
283.157
283.095
283.032
283.7
283.669
283.635
283.599
283.56
283.519
283.474
283.426
283.375
283.322
283.267
283.21
283.151
283.091
283.03
283.679
283.645
283.613
283.578
283.541
283.5
283.457
283.411
283.362
283.31
283.257
283.202
283.145
283.087
283.029
283.639
283.62
283.592
283.56
283.523
283.484
283.442
283.397
283.349
283.3
283.248
283.194
283.14
283.084
283.028
283.623
283.601
283.575
283.543
283.508
283.47
283.429
283.385
283.339
283.29
283.24
283.188
283.135
283.082
283.027
283.606
283.587
283.56
283.53
283.495
283.458
283.418
283.375
283.329
283.282
283.233
283.183
283.132
283.079
283.026
283.599
283.576
283.549
283.519
283.485
283.448
283.408
283.366
283.322
283.276
283.228
283.179
283.128
283.077
283.026
283.592
283.568
283.541
283.51
283.476
283.44
283.4
283.359
283.315
283.27
283.223
283.175
283.126
283.076
283.025
283.589
283.563
283.535
283.504
283.47
283.433
283.394
283.353
283.31
283.265
283.219
283.172
283.123
283.074
283.025
283.586
283.56
283.531
283.499