/*--------------------------------*- C++ -*----------------------------------*\
| =========                 |                                                 |
| \\      /  F ield         | OpenFOAM: The Open Source CFD Toolbox           |
|  \\    /   O peration     | Version:  5.x                                   |
|   \\  /    A nd           | Web:      www.OpenFOAM.org                      |
|    \\/     M anipulation  |                                                 |
\*---------------------------------------------------------------------------*/
FoamFile
{
    version     2.0;
    format      ascii;
    class       volScalarField;
    location    "18";
    object      gradTy;
}
// * * * * * * * * * * * * * * * * * * * * * * * * * * * * * * * * * * * * * //

dimensions      [0 -1 0 1 0 0 0];

internalField   nonuniform List<scalar> 
6300
(
32284.1
32252.1
32220.1
32187.9
32155.4
32122.6
32089.5
32055.9
32021.8
31987.3
31952.1
31916.4
31880.1
31843.2
31805.7
0.0533393
0.159522
0.264181
0.366191
0.464262
0.556906
0.642414
0.718872
0.784228
0.836417
0.873545
0.89414
0.897442
0.883676
0.854247
0.0894517
0.267567
0.443257
0.614706
0.779817
0.936128
1.08077
1.21048
1.32171
1.41079
1.4743
1.50947
1.51472
1.49022
1.4383
0.126353
0.37804
0.626577
0.869568
1.10418
1.32704
1.53408
1.72061
1.88136
2.01078
2.10345
2.15478
2.16183
2.12427
2.04524
0.164275
0.491666
0.815451
1.13282
1.44034
1.73378
2.00794
2.25655
2.47241
2.64758
2.77403
2.84446
2.85363
2.79989
2.68676
0.20336
0.608904
1.01076
1.40592
1.79059
2.15985
2.50738
2.82532
3.10421
3.33321
3.50071
3.59549
3.60845
3.535
3.37795
0.243623
0.729839
1.21277
1.68955
2.1563
2.60768
3.03647
3.43322
3.78599
4.08042
4.30022
4.42845
4.44976
4.3538
4.14002
0.284917
0.854069
1.42094
1.98324
2.53741
3.07815
3.59768
4.08518
4.52621
4.90234
5.19136
5.36839
5.40836
5.29041
5.00507
0.326896
0.980588
1.63372
2.28507
2.93202
3.56987
4.19097
4.7837
5.33141
5.81142
6.1945
6.44534
6.52473
6.39419
6.02477
0.368981
1.10767
1.84831
2.59134
3.33577
4.07841
4.8127
5.52731
6.20436
6.81742
7.32977
7.69351
7.8506
7.73625
7.28535
0.41034
1.23283
2.06054
2.89622
3.74137
4.59536
5.45418
6.30854
7.14129
7.92403
8.61337
9.14778
9.44693
9.41336
8.92986
0.449895
1.35278
2.26481
3.19167
4.13817
5.10754
6.10015
7.11138
8.12815
9.12384
10.0514
10.8362
11.3739
11.5366
11.1738
0.486361
1.46358
2.45429
3.46751
4.51213
5.59651
6.72754
7.90865
9.13599
10.3915
11.6312
12.77
13.6712
14.1755
14.2219
0.518336
1.56089
2.62127
3.71197
4.84636
6.03887
7.30486
8.65966
10.1155
11.6744
13.3108
14.9384
16.3563
17.2468
17.6718
0.544433
1.64038
2.75794
3.91277
5.1225
6.40777
7.7934
9.30954
10.992
12.8794
14.9984
17.3121
19.5527
20.7269
17.9808
31770.7
31738.6
31706.2
31673.4
31640.2
31606.8
31573.1
31539.2
31505.1
31470.7
31436.2
31401.5
31366.7
31331.7
31296.7
31261.6
31226.5
31191.3
31156.2
31121.1
31086
31051
31016
30981
30946.1
30911.2
30876.4
30841.7
30807
30772.4
30737.8
30703.4
30669
30634.7
30600.6
30566.6
30532.6
30498.8
30465.1
30431.5
30397.9
30364.5
30331.1
30297.9
30264.7
30231.7
30198.7
30165.9
30133.2
30100.6
30068.1
30035.7
30003.5
29971.3
29939.3
29907.3
29875.4
29843.7
29812
29780.3
29748.8
29717.4
29686.1
29654.9
29623.7
29592.7
29561.8
29531
29500.2
29469.6
29439
29408.4
29377.9
29347.5
29317.2
29286.9
29256.7
29226.5
29196.4
29166.3
29136.3
29106.3
29076.3
29046.3
29016.2
28986.1
28955.9
28925.7
28895.3
28864.9
0.815297
0.773082
0.726335
0.677269
0.627733
0.578963
0.531455
0.48498
0.438765
0.39178
0.343087
0.292162
0.239137
0.184895
0.131007
0.0795119
0.0325808
-0.00786071
-0.0404824
-0.0647969
-0.0812626
-0.0912259
-0.0967162
-0.100131
-0.103862
-0.109923
-0.119641
-0.133458
-0.150876
-0.170572
-0.190646
-0.208979
-0.223624
-0.233156
-0.236931
-0.235188
-0.22901
-0.22013
-0.210642
-0.202643
-0.197891
-0.197505
-0.201785
-0.210158
-0.221286
-0.233299
-0.244134
-0.251903
-0.255222
-0.253449
-0.246789
-0.236241
-0.223428
-0.210308
-0.19885
-0.190696
-0.186886
-0.187682
-0.192521
-0.200114
-0.208669
-0.216211
-0.220926
-0.221483
-0.217248
-0.208387
-0.195817
-0.181031
-0.16583
-0.151998
-0.140981
-0.133617
-0.129953
-0.129202
-0.129827
-0.129762
-0.126724
-0.11857
-0.103642
-0.0810356
-0.0507789
-0.0138824
0.0277181
0.0713236
0.11372
0.151491
0.181378
0.200646
0.207418
0.200927
1.36978
1.2958
1.21437
1.12965
1.04511
0.963025
0.884187
0.807938
0.732527
0.655691
0.575349
0.490253
0.400466
0.307562
0.21451
0.125236
0.0439613
-0.0255525
-0.0806942
-0.120489
-0.145792
-0.159173
-0.164514
-0.166405
-0.169422
-0.177415
-0.192911
-0.216724
-0.247855
-0.283695
-0.320516
-0.354164
-0.380831
-0.397744
-0.403652
-0.39903
-0.38598
-0.367858
-0.34871
-0.33259
-0.32289
-0.321773
-0.329814
-0.345896
-0.367407
-0.390703
-0.411762
-0.426907
-0.433456
-0.43018
-0.41749
-0.397337
-0.372869
-0.347879
-0.326174
-0.310931
-0.304165
-0.306384
-0.316498
-0.331996
-0.349392
-0.364838
-0.374815
-0.376746
-0.369427
-0.353205
-0.329885
-0.302384
-0.274215
-0.248867
-0.229181
-0.216831
-0.211979
-0.21317
-0.217497
-0.221016
-0.219355
-0.2084
-0.184951
-0.147227
-0.0951862
-0.0306064
0.0430275
0.120823
0.196922
0.265063
0.319227
0.354322
0.366831
0.355298
1.9412
1.82935
1.70724
1.58185
1.45904
1.34249
1.23326
1.12975
1.02839
0.924687
0.814484
0.695118
0.566293
0.43045
0.292577
0.159443
0.0384066
-0.0639398
-0.143006
-0.197049
-0.22749
-0.238697
-0.237281
-0.231057
-0.227816
-0.234105
-0.254204
-0.289453
-0.338055
-0.395408
-0.454954
-0.509401
-0.552084
-0.578179
-0.585538
-0.575011
-0.550252
-0.517064
-0.482418
-0.453293
-0.435528
-0.432855
-0.446264
-0.473815
-0.510958
-0.551329
-0.587905
-0.614288
-0.625839
-0.620469
-0.598935
-0.564649
-0.52306
-0.48072
-0.444193
-0.418959
-0.408505
-0.41372
-0.43272
-0.461147
-0.492921
-0.521341
-0.540291
-0.545329
-0.534425
-0.508246
-0.469972
-0.424697
-0.37854
-0.337582
-0.306815
-0.289249
-0.285305
-0.292624
-0.306329
-0.319728
-0.325368
-0.316224
-0.286814
-0.234037
-0.157649
-0.0603688
0.0523442
0.172765
0.291584
0.398762
0.484534
0.540524
0.560862
0.543079
2.53763
2.37782
2.20495
2.03049
1.86405
1.71155
1.5742
1.44855
1.32769
1.2031
1.06685
0.913634
0.742243
0.556274
0.363829
0.17623
0.00594043
-0.13585
-0.241353
-0.307596
-0.336887
-0.336397
-0.316972
-0.291416
-0.272488
-0.270909
-0.293681
-0.342955
-0.415653
-0.503963
-0.596736
-0.681579
-0.747224
-0.785595
-0.793178
-0.771485
-0.726661
-0.668371
-0.608175
-0.557636
-0.526434
-0.52078
-0.542349
-0.587922
-0.649859
-0.717418
-0.77873
-0.823025
-0.842589
-0.834035
-0.798742
-0.742476
-0.674331
-0.605193
-0.545948
-0.505704
-0.49028
-0.501205
-0.53537
-0.585475
-0.641282
-0.69148
-0.7258
-0.736869
-0.721419
-0.680705
-0.620138
-0.548282
-0.475377
-0.41162
-0.365443
-0.34205
-0.34241
-0.362883
-0.3956
-0.429615
-0.45267
-0.453231
-0.422326
-0.354846
-0.250198
-0.112354
0.0505621
0.227012
0.403009
0.563288
0.692726
0.778065
0.809788
0.783767
3.16909
2.94521
2.70511
2.46772
2.24913
2.05894
1.8984
1.76057
1.63246
1.49838
1.34372
1.15836
0.939216
0.691441
0.428112
0.1681
-0.0675626
-0.26001
-0.396237
-0.471353
-0.489171
-0.461364
-0.405491
-0.342232
-0.292179
-0.272649
-0.294994
-0.362727
-0.470769
-0.606091
-0.749935
-0.881405
-0.981637
-1.03735
-1.04298
-1.00127
-0.922461
-0.822421
-0.720029
-0.634135
-0.580551
-0.569504
-0.603869
-0.678465
-0.780666
-0.892505
-0.994057
-1.06738
-1.09983
-1.0861
-1.02875
-0.937409
-0.827031
-0.715418
-0.620344
-0.556706
-0.534115
-0.555226
-0.615063
-0.701594
-0.79772
-0.884482
-0.944791
-0.966594
-0.944794
-0.881751
-0.786562
-0.673378
-0.559042
-0.460341
-0.391261
-0.360648
-0.370553
-0.41551
-0.483004
-0.555283
-0.612361
-0.63555
-0.610506
-0.529177
-0.390548
-0.200443
0.0292912
0.281912
0.53707
0.772223
0.96442
1.09281
1.14187
1.10449
3.84962
3.53604
3.20144
2.878
2.59342
2.36377
2.19003
2.05873
1.94595
1.82339
1.66485
1.4518
1.17745
0.849034
0.487633
0.124917
-0.203291
-0.465126
-0.639119
-0.717618
-0.707155
-0.626747
-0.504647
-0.374033
-0.267916
-0.214088
-0.23095
-0.324454
-0.486605
-0.695948
-0.920955
-1.12621
-1.28017
-1.36121
-1.36094
-1.28448
-1.14884
-0.97986
-0.808124
-0.664106
-0.573415
-0.552835
-0.607456
-0.729258
-0.897596
-1.0824
-1.25004
-1.37058
-1.42356
-1.401
-1.30771
-1.15975
-0.981509
-0.801828
-0.649473
-0.548598
-0.515019
-0.553481
-0.656317
-0.803896
-0.967642
-1.11558
-1.21923
-1.25911
-1.22756
-1.12909
-0.978898
-0.80013
-0.620193
-0.466409
-0.361685
-0.320902
-0.348219
-0.435685
-0.563516
-0.702839
-0.820853
-0.887326
-0.879735
-0.786019
-0.605025
-0.345597
-0.024936
0.333158
0.699936
1.04302
1.32799
1.52181
1.5984
1.54491
4.60149
4.15711
3.68164
3.23232
2.85863
2.58816
2.42064
2.33033
2.27364
2.20031
2.06458
1.83356
1.49361
1.05415
0.54907
0.0320569
-0.43459
-0.796731
-1.01951
-1.09199
-1.02586
-0.852167
-0.616063
-0.370561
-0.168358
-0.0537348
-0.0565405
-0.187332
-0.434482
-0.76325
-1.12041
-1.4449
-1.68368
-1.80217
-1.78863
-1.6529
-1.42321
-1.14127
-0.856304
-0.61729
-0.465316
-0.427879
-0.514303
-0.713037
-0.990809
-1.29703
-1.57384
-1.77107
-1.85606
-1.81774
-1.6654
-1.42571
-1.13805
-0.848889
-0.60447
-0.443585
-0.392185
-0.459035
-0.633142
-0.882917
-1.16033
-1.41043
-1.58551
-1.65448
-1.60669
-1.4509
-1.21238
-0.928567
-0.643684
-0.401829
-0.240036
-0.183089
-0.239272
-0.397734
-0.627478
-0.88108
-1.10356
-1.24575
-1.27298
-1.16854
-0.932449
-0.578926
-0.133066
0.3719
0.896923
1.39749
1.82281
2.11964
2.24225
2.16567
5.46468
4.8227
4.12394
3.47747
2.97501
2.66427
2.54007
2.55359
2.62539
2.66715
2.60161
2.37226
1.95312
1.35379
0.627718
-0.133316
-0.816367
-1.32901
-1.61634
-1.66595
-1.49946
-1.16746
-0.741013
-0.304738
0.0573154
0.275715
0.302167
0.117347
-0.264832
-0.789666
-1.36691
-1.88703
-2.26039
-2.43325
-2.39229
-2.15661
-1.77283
-1.30706
-0.838309
-0.445135
-0.192287
-0.124562
-0.259422
-0.583004
-1.04306
-1.554
-2.01224
-2.33318
-2.46614
-2.39867
-2.14886
-1.76075
-1.29677
-0.831518
-0.439178
-0.180915
-0.0990674
-0.210142
-0.501004
-0.922137
-1.39235
-1.81331
-2.1046
-2.21796
-2.14136
-1.89182
-1.51111
-1.05854
-0.605214
-0.221961
0.0325924
0.117633
0.016958
-0.257137
-0.657084
-1.10413
-1.5019
-1.76973
-1.85583
-1.74064
-1.42897
-0.94522
-0.32631
0.381759
1.12913
1.86033
2.50266
2.96834
3.17292
3.06384
6.51833
5.56968
4.49068
3.51477
2.81471
2.47143
2.46112
2.69291
3.02043
3.2886
3.37459
3.18432
2.67215
1.836
0.756734
-0.410964
-1.44352
-2.18574
-2.55549
-2.55108
-2.21139
-1.61877
-0.880111
-0.132037
0.48985
0.881566
0.965109
0.70622
0.110242
-0.740607
-1.69569
-2.54048
-3.12585
-3.37222
-3.27635
-2.87359
-2.24053
-1.47711
-0.71149
-0.0709117
0.34732
0.470476
0.267216
-0.256447
-1.02203
-1.88687
-2.64837
-3.16596
-3.36483
-3.24216
-2.83146
-2.20506
-1.4573
-0.709158
-0.0808147
0.335792
0.471858
0.297645
-0.181278
-0.890677
-1.6953
-2.40292
-2.87992
-3.05498
-2.92506
-2.52165
-1.91329
-1.1896
-0.465839
0.143235
0.54932
0.685785
0.522914
0.0646869
-0.618869
-1.39814
-2.08735
-2.55538
-2.72856
-2.59565
-2.1733
-1.50614
-0.647942
0.335032
1.38461
2.45112
3.4369
4.19303
4.55525
4.40404
7.93175
6.50371
4.70951
3.1552
2.13958
1.79829
2.03317
2.69431
3.50095
4.17242
4.54545
4.45998
3.85775
2.66834
1.01312
-0.883203
-2.48873
-3.57883
-4.03342
-3.919
-3.28753
-2.28038
-1.03277
0.222375
1.25383
1.93119
2.12115
1.7805
0.85233
-0.541455
-2.18327
-3.5675
-4.47947
-4.804
-4.60233
-3.9222
-2.89596
-1.65033
-0.404611
0.62349
1.31184
1.53555
1.25523
0.41848
-0.85809
-2.36852
-3.63574
-4.45772
-4.72653
-4.50043
-3.82467
-2.82415
-1.61836
-0.414293
0.582449
1.25648
1.48959
1.24422
0.470335
-0.722091
-2.13794
-3.32461
-4.09005
-4.33115
-4.10257
-3.44661
-2.48155
-1.32078
-0.161305
0.800733
1.4543
1.68498
1.45418
0.710986
-0.44283
-1.82182
-2.9913
-3.76563
-4.04205
-3.86745
-3.27017
-2.34215
-1.14925
0.192399
1.61569
3.15819
4.70184
5.98494
6.67694
6.48768
10.0861
7.9598
4.58481
2.02592
0.493846
0.294234
0.990614
2.48585
4.176
5.486
6.37659
6.47984
5.88897
4.17148
1.61674
-1.77418
-4.27612
-5.88707
-6.3307
-6.03149
-4.90465
-3.28824
-1.19628
0.898901
2.52769
3.68267
4.04128
3.7008
2.26491
0.014864
-3.0418
-5.27456
-6.67901
-6.9935
-6.61731
-5.46919
-3.86731
-1.82368
0.215638
1.80713
2.94543
3.32643
3.04452
1.72674
-0.357391
-3.20038
-5.26427
-6.54603
-6.80089
-6.40622
-5.28553
-3.73883
-1.77693
0.179116
1.71042
2.81209
3.19633
2.95184
1.72465
-0.231776
-2.91059
-4.85289
-6.05523
-6.28366
-5.89551
-4.81667
-3.33162
-1.4501
0.427539
1.90243
2.96825
3.3487
3.1233
1.94858
0.0574609
-2.5472
-4.46427
-5.69285
-6.00501
-5.7479
-4.84332
-3.55957
-1.86476
-0.0677971
1.67511
3.86359
6.34196
8.62805
10.0676
9.93019
13.8396
11.1717
3.26818
-0.562302
-3.05979
-2.49744
-1.20189
1.99671
5.39844
7.40357
9.34153
9.49928
9.54257
6.8803
3.42449
-3.94525
-7.34653
-9.87624
-9.69768
-9.33577
-7.22675
-4.98091
-1.36442
2.24703
4.48386
6.58091
6.96808
7.19851
4.84985
1.73272
-5.08675
-8.17439
-10.4481
-10.1776
-9.74388
-7.66959
-5.47479
-1.99083
1.48075
3.64338
5.66955
6.07188
6.32545
4.13855
1.23606
-5.15414
-8.01908
-10.1131
-9.81056
-9.35749
-7.35985
-5.25142
-1.92705
1.38415
3.45707
5.40079
5.80844
6.07455
4.02907
1.29877
-4.74381
-7.44669
-9.42285
-9.12405
-8.68304
-6.77168
-4.75262
-1.57383
1.59635
3.59318
5.46913
5.88486
6.15944
4.21779
1.58525
-4.26272
-6.92865
-8.93975
-8.78768
-8.56074
-6.96246
-5.3689
-2.72738
-0.250152
1.09292
4.15152
8.25899
12.4902
15.7292
16.2005
20.7829
21.672
-4.14056
-5.1087
-11.0172
-6.34333
-6.13434
1.21531
8.63206
9.41794
14.87
12.6836
17.0922
10.7319
10.8683
-11.8309
-11.672
-17.7653
-13.3287
-15.1559
-9.74588
-8.64733
-1.52527
5.57458
6.64133
11.9414
10.1206
14.4101
8.5414
8.78192
-12.5055
-12.2463
-17.8808
-13.5967
-15.2329
-10.0435
-8.93866
-2.14016
4.63077
5.67612
10.732
9.03157
13.1207
7.58079
7.85184
-12.1843
-11.8841
-17.1311
-13.037
-14.5329
-9.5937
-8.51496
-2.0582
4.37228
5.3898
10.2014
8.62435
12.526
7.31963
7.599
-11.3862
-11.087
-16.0664
-12.1692
-13.5879
-8.88174
-7.84365
-1.68514
4.45477
5.458
10.0727
8.62428
12.3869
7.48187
7.74328
-10.5604
-10.336
-15.3016
-11.6782
-13.3483
-9.07478
-8.68731
-3.35343
1.20068
-1.95961
2.92908
9.99789
17.781
25.3761
29.6268
30.191
70.5972
-47.3517
-2.56611
-34.2222
-3.76165
-21.3496
0.337228
21.4141
4.71283
31.3979
6.37094
40.1491
5.22804
51.1954
-52.6321
-6.99431
-40.8175
-7.93983
-31.3975
-6.05653
-20.9876
-1.65415
17.5898
2.70291
27.5557
4.47437
36.2495
3.43568
46.8314
-50.9515
-7.83115
-39.5965
-8.49044
-30.5506
-6.53587
-20.6013
-2.24979
16.0256
1.93375
25.5234
3.65434
33.7817
2.65526
43.71
-48.4988
-7.761
-37.6003
-8.21393
-28.975
-6.26844
-19.5229
-2.1515
15.1551
1.85904
24.2017
3.55094
32.0929
2.71075
41.6402
-45.7981
-7.12609
-35.4922
-7.55966
-27.3125
-5.70982
-18.3081
-1.76967
14.71
2.12229
23.4072
3.85974
31.096
3.30618
40.635
-43.5385
-6.26962
-34.0317
-6.94598
-26.6948
-5.5912
-19.1285
-2.85663
13.7602
-16.6027
-1.43271
10.7082
23.3425
39.8388
66.3788
28831.3
28794.5
28757.7
28720.7
28683.8
28646.9
28610
28573.2
28536.4
28499.8
28463.3
28426.9
28390.6
28354.3
28318.1
0.179693
0.140628
0.0903605
0.0346368
-0.0206958
-0.0704848
-0.110783
-0.139059
-0.154154
-0.156093
-0.145823
-0.124952
-0.0955237
-0.0598458
-0.0203725
0.317089
0.24679
0.156659
0.0573171
-0.0406107
-0.127969
-0.197948
-0.246367
-0.271506
-0.273695
-0.254801
-0.217752
-0.166144
-0.103957
-0.0353665
0.483103
0.372784
0.232167
0.0785833
-0.0710952
-0.202833
-0.306675
-0.376953
-0.411809
-0.41238
-0.381933
-0.32511
-0.247344
-0.154472
-0.0525029
0.694009
0.529074
0.320644
0.0959438
-0.11952
-0.305593
-0.448964
-0.542962
-0.586397
-0.582082
-0.535443
-0.45341
-0.343648
-0.214086
-0.0726755
0.971931
0.728858
0.425392
0.104068
-0.197335
-0.451056
-0.640628
-0.759534
-0.808734
-0.794109
-0.724345
-0.609438
-0.459755
-0.285547
-0.0967888
1.34832
0.989037
0.547998
0.092271
-0.322832
-0.660667
-0.902956
-1.04581
-1.0949
-1.06127
-0.958391
-0.800244
-0.600385
-0.371559
-0.125721
1.86952
1.33097
0.68529
0.0398508
-0.525598
-0.965824
-1.26472
-1.42586
-1.46377
-1.3977
-1.2477
-1.03276
-0.769981
-0.474582
-0.16026
2.6062
1.78005
0.822339
-0.0925597
-0.853587
-1.41231
-1.76424
-1.92912
-1.93664
-1.81803
-1.60196
-1.31312
-0.972197
-0.596528
-0.200995
3.66979
2.36068
0.916578
-0.378842
-1.38388
-2.06559
-2.45081
-2.58974
-2.53565
-2.33583
-2.02899
-1.64556
-1.20916
-0.738339
-0.248189
5.24148
3.07631
0.862135
-0.955506
-2.23749
-3.01538
-3.38366
-3.44338
-3.28037
-2.96066
-2.53261
-2.03096
-1.48054
-0.89948
-0.301611
7.61887
3.84093
0.411159
-2.06782
-3.59521
-4.37477
-4.62507
-4.51976
-4.18181
-3.6938
-3.10985
-2.46512
-1.78256
-1.07743
-0.360384
11.2527
4.25738
-0.990606
-4.13172
-5.70077
-6.26341
-6.22208
-5.82878
-5.23331
-4.5229
-3.74786
-2.93712
-2.10715
-1.26731
-0.422875
16.4844
2.92646
-4.49924
-7.7677
-8.81274
-8.75601
-8.17107
-7.33995
-6.39977
-5.41661
-4.42158
-3.42833
-2.44163
-1.46176
-0.486686
20.9368
-4.5367
-12.1651
-13.6271
-13.0265
-11.7768
-10.3662
-8.9602
-7.6092
-6.32218
-5.09352
-3.91298
-2.76929
-1.65142
-0.548794
0.562448
1.69523
2.85217
4.05112
5.3128
6.66263
8.13321
9.76814
11.6277
13.7965
16.3918
19.5541
23.3217
26.8415
23.8732
0.572821
1.7267
2.90587
4.12917
5.41882
6.80263
8.31751
10.0152
11.9726
14.3117
17.2425
21.1694
27.0037
37.2478
60.3632
0.57747
1.74061
2.92891
4.16113
5.45943
6.85162
8.37486
10.0819
12.0524
14.4163
17.4038
21.4696
27.644
38.6622
62.9848
0.576423
1.73703
2.92143
4.14719
5.43481
6.80959
8.3046
9.96552
11.8591
14.0879
16.8171
20.3146
24.9732
31.0235
35.999
0.569981
1.71693
2.88521
4.09028
5.34964
6.68405
8.11912
9.68768
11.4329
13.4118
15.6955
18.3517
21.3578
24.3206
26.0217
0.558683
1.68201
2.82342
3.99563
5.21233
6.48857
7.84092
9.2872
10.8446
12.5242
14.3145
16.14
17.7573
18.5217
16.8897
0.54324
1.63452
2.74022
3.87005
5.03363
6.24019
7.49748
8.80954
10.1717
11.5601
12.9098
14.0722
14.7412
14.385
12.5962
0.524461
1.57699
2.64026
3.72099
4.82505
5.95651
7.11594
8.29706
9.48062
10.6231
11.6359
12.3481
12.4355
11.2429
7.06994
0.503169
1.51201
2.52814
3.55569
4.59737
5.65336
6.71928
7.78282
8.81807
9.77615
10.5709
11.0586
11.0188
10.1707
8.46532
0.480138
1.44194
2.40808
3.38054
4.35972
5.34326
6.3242
7.28817
8.20905
9.04268
9.71908
10.1358
10.1633
9.69398
8.80371
0.456042
1.36886
2.28361
3.2007
4.11901
5.03489
5.94082
6.82337
7.66053
8.41834
9.04762
9.4833
9.65289
9.50963
9.12107
0.431436
1.29442
2.15751
3.02
3.87993
4.73338
5.5736
6.39001
7.16704
7.88317
8.51054
9.01555
9.3597
9.4956
9.3412
0.406752
1.2199
2.03181
2.84106
3.64533
4.441
5.22286
5.98393
6.71576
7.40954
8.05833
8.65943
9.21106
9.68308
9.9324
0.382312
1.14624
1.90795
2.66557
3.41668
4.15819
4.88652
5.5981
6.29083
6.96708
7.63914
8.33758
9.11759
10.0251
10.7936
0.358357
1.07412
1.78693
2.4946
3.19467
3.88452
4.56178
5.2253
5.87728
6.52747
7.20156
7.959
8.93549
10.4636
13.4816
0.335067
1.00404
1.66947
2.32889
2.97975
3.61958
4.24655
4.86048
5.46494
6.07121
6.70603
7.42822
8.37024
9.86727
12.9543
0.312585
0.936412
1.55619
2.16913
2.77247
3.36357
3.94037
4.50222
5.05132
5.59508
6.14979
6.74473
7.4195
8.16674
8.52721
0.291035
0.871603
1.44764
2.01605
2.5737
3.11747
3.64456
4.15281
4.64137
5.11132
5.56559
6.00578
6.4184
6.73472
6.77927
0.270528
0.80994
1.34439
1.87045
2.38455
2.88297
3.36182
3.81706
4.24435
4.63844
4.99115
5.28594
5.48415
5.49141
5.06338
0.251162
0.751727
1.24696
1.73314
2.2063
2.66205
3.09547
3.50071
3.87039
4.19429
4.45691
4.63314
4.6825
4.55037
4.22882
0.233019
0.697215
1.15582
1.60489
2.04012
2.45665
2.8487
3.20906
3.5282
3.79268
3.98267
4.06845
4.00688
3.74085
3.1904
0.216155
0.646585
1.0713
1.48624
1.88694
2.26824
2.62392
2.94604
3.22398
3.4428
3.58079
3.60608
3.47325
3.12884
2.59199
0.200598
0.599924
0.993569
1.37749
1.74723
2.09763
2.42244
2.71371
2.96082
3.14904
3.25717
3.25353
3.08655
2.65047
1.61189
0.186339
0.557208
0.922589
1.27859
1.62096
1.94479
2.24426
2.51203
2.73856
2.9109
3.01116
3.01439
2.88674
2.59049
2.1493
0.173335
0.518305
0.85812
1.18917
1.50754
1.80888
2.08808
2.33901
2.55392
2.72282
2.83254
2.86615
2.804
2.63116
2.35731
0.161513
0.48298
0.799739
1.10854
1.40597
1.68833
1.95155
2.19099
2.40125
2.57583
2.70678
2.78442
2.79812
2.74197
2.64105
0.150774
0.450926
0.746884
1.03582
1.31485
1.58107
1.83152
2.06324
2.27335
2.45914
2.61803
2.74708
2.84076
2.88387
2.82879
0.141003
0.421786
0.698907
0.969965
1.23264
1.48477
1.7245
1.95049
2.16235
2.36113
2.55001
2.7343
2.91852
3.09395
3.21312
0.132083
0.395188
0.65514
0.909934
1.15775
1.39708
1.62701
1.84757
2.06043
2.27
2.48517
2.72156
3.00238
3.34311
3.63105
0.123899
0.37078
0.614955
0.854752
1.08874
1.31593
1.53603
1.74998
1.96078
2.17499
2.4056
2.67797
3.04464
3.62892
4.78023
0.11635
0.348253
0.577809
0.8036
1.02447
1.2397
1.44932
1.65458
1.85876
2.0686
2.29702
2.5689
2.93577
3.52097
4.68972
0.109354
0.327356
0.543277
0.755867
0.964105
1.16736
1.36564
1.55994
1.75282
1.94931
2.15825
2.39387
2.6753
3.00776
3.24597
0.102849
0.307904
0.51106
0.711155
0.9072
1.09849
1.28473
1.46628
1.64436
1.82137
2.00095
2.18703
2.37938
2.56
2.67456
0.0967904
0.289771
0.480968
0.669255
0.853599
1.03311
1.20708
1.37502
1.53664
1.69166
1.83915
1.97584
2.09159
2.15813
2.09603
0.0911487
0.272876
0.452898
0.630093
0.803356
0.97158
1.13362
1.28816
1.43352
1.56716
1.68484
1.77918
1.838
1.84558
1.80631
0.0859028
0.257165
0.42679
0.593663
0.756611
0.914347
1.06535
1.20767
1.33853
1.45375
1.54673
1.6072
1.61998
1.56556
1.41888
0.0810343
0.24259
0.402595
0.559957
0.713485
0.861789
1.00313
1.13514
1.25441
1.35577
1.43122
1.46833
1.44861
1.34963
1.18172
0.0765217
0.229094
0.380233
0.528915
0.673987
0.814068
0.947374
1.07145
1.18272
1.2758
1.34232
1.36892
1.3323
1.18155
0.750682
0.0723364
0.216592
0.359578
0.500379
0.637956
0.771051
0.898033
1.01665
1.12367
1.21426
1.28115
1.31341
1.29525
1.20801
1.06304
0.0684407
0.204972
0.34044
0.474082
0.605038
0.73228
0.854497
0.969917
1.07603
1.16918
1.24401
1.29293
1.30616
1.27456
1.19667
0.0647877
0.194091
0.322571
0.44965
0.574698
0.696998
0.815682
0.929644
1.03739
1.13681
1.22488
1.29724
1.3482
1.37326
1.38374
0.0613236
0.183782
0.305675
0.426628
0.546267
0.664226
0.780148
0.893689
1.00453
1.11234
1.21666
1.3164
1.40824
1.48207
1.50681
0.0579905
0.173866
0.289432
0.404517
0.519003
0.63287
0.746266
0.85961
0.973767
1.09028
1.21162
1.34105
1.48077
1.62498
1.7467
0.0547308
0.164163
0.273524
0.382823
0.492168
0.601842
0.71242
0.824968
0.94137
1.06488
1.20097
1.35855
1.55019
1.7835
1.99321
0.0514914
0.154511
0.25766
0.361096
0.465104
0.570186
0.677207
0.787649
0.904038
1.03073
1.17541
1.35239
1.59068
1.95842
2.64983
0.0482267
0.144768
0.241595
0.338973
0.437296
0.537182
0.639617
0.7462
0.859554
0.984084
1.12743
1.30364
1.54129
1.90856
2.60734
0.0449008
0.134828
0.225149
0.316193
0.408403
0.502409
0.599149
0.700048
0.80731
0.924375
1.05662
1.21222
1.40187
1.62849
1.81181
0.041488
0.124613
0.2082
0.292604
0.378262
0.465737
0.555792
0.649478
0.748259
0.854125
0.969597
1.09716
1.23679
1.37849
1.49281
0.0379715
0.114078
0.190684
0.268146
0.346859
0.427274
0.509913
0.595372
0.684287
0.777203
0.874176
0.973731
1.07026
1.1475
1.15933
0.0343411
0.103197
0.172573
0.242818
0.314274
0.387267
0.462077
0.538865
0.617537
0.697465
0.776962
0.852403
0.917123
0.961938
0.988664
0.0305904
0.0919539
0.15386
0.216649
0.280621
0.346
0.412867
0.48105
0.549916
0.618027
0.682565
0.73852
0.777813
0.788937
0.754102
0.0267127
0.0803342
0.134534
0.189659
0.245993
0.303699
0.362744
0.422761
0.482821
0.54107
0.594128
0.636208
0.658064
0.647855
0.610525
0.0226989
0.0683133
0.114564
0.161831
0.210411
0.260468
0.311947
0.364441
0.416985
0.467717
0.513317
0.547942
0.560585
0.525605
0.356789
0.0185346
0.0558501
0.0938904
0.13309
0.173803
0.21625
0.260445
0.306088
0.352408
0.397929
0.440129
0.474941
0.496177
0.496299
0.48136
0.0141994
0.0428837
0.0724112
0.103299
0.135992
0.170819
0.207938
0.247266
0.288387
0.330449
0.372071
0.411367
0.446434
0.477453
0.512734
0.00966609
0.0293318
0.0499872
0.0722552
0.0966997
0.123796
0.153897
0.187198
0.223712
0.263274
0.30563
0.350732
0.399502
0.455649
0.529363
0.00490117
0.0150927
0.0264436
0.0397
0.055566
0.074687
0.0976339
0.1249
0.156922
0.194159
0.237284
0.28755
0.347447
0.421647
0.518325
-0.000133955
4.84705e-05
0.00157699
0.00533266
0.0121724
0.0229214
0.0383723
0.0592996
0.08651
0.120958
0.163978
0.217682
0.285462
0.372035
0.480236
-0.00548177
-0.0159304
-0.0248361
-0.0311761
-0.0339357
-0.0321089
-0.0246921
-0.0106632
0.0110728
0.0418038
0.0832544
0.13804
0.210426
0.307407
0.440117
-0.0111871
-0.0329806
-0.0530307
-0.0701709
-0.0832285
-0.0910207
-0.0923476
-0.0859774
-0.0706102
-0.0447936
-0.00672852
0.0461755
0.118311
0.217967
0.359268
-0.0172957
-0.0512415
-0.0832459
-0.112001
-0.136178
-0.154422
-0.165348
-0.167539
-0.159549
-0.139896
-0.107015
-0.0590425
0.00708631
0.09961
0.252332
-0.0238527
-0.0708504
-0.115717
-0.157009
-0.193246
-0.222904
-0.244413
-0.25617
-0.256587
-0.244183
-0.217782
-0.176868
-0.122467
-0.0605498
-0.0212836
-0.0309012
-0.0919389
-0.150672
-0.205528
-0.254883
-0.297046
-0.33025
-0.352677
-0.362526
-0.35819
-0.338625
-0.304058
-0.257238
-0.204978
-0.154369
-0.0384807
-0.114628
-0.188318
-0.257866
-0.321515
-0.377408
-0.423571
-0.457918
-0.478315
-0.482772
-0.469886
-0.439756
-0.395785
-0.348259
-0.323889
-0.0466256
-0.139023
-0.228841
-0.314301
-0.393532
-0.464526
-0.525097
-0.572845
-0.605172
-0.619398
-0.613122
-0.585065
-0.536799
-0.475459
-0.4132
-0.0553634
-0.165209
-0.272389
-0.375061
-0.471268
-0.558883
-0.635527
-0.698481
-0.744598
-0.77026
-0.771482
-0.744408
-0.686891
-0.603295
-0.520035
-0.0647136
-0.193245
-0.319069
-0.44031
-0.554972
-0.660859
-0.755464
-0.835809
-0.898229
-0.938095
-0.949489
-0.924892
-0.855093
-0.730898
-0.559371
-0.0746857
-0.223161
-0.368931
-0.510128
-0.644768
-0.770668
-0.885303
-0.985584
-1.06752
-1.1257
-1.15249
-1.13677
-1.06107
-0.891368
-0.524549
-0.08528
-0.254956
-0.421969
-0.584498
-0.740634
-0.888301
-1.02511
-1.1481
-1.25331
-1.3351
-1.38502
-1.39029
-1.33232
-1.18873
-0.96353
-0.0964881
-0.288601
-0.478121
-0.663306
-0.842381
-1.01348
-1.17451
-1.32295
-1.45538
-1.56664
-1.64854
-1.68772
-1.66305
-1.54275
-1.2712
-0.108296
-0.324046
-0.537282
-0.746359
-0.949669
-1.14564
-1.33265
-1.50893
-1.67213
-1.81857
-1.94173
-2.02948
-2.06019
-2.0018
-1.84271
-0.120688
-0.361237
-0.599332
-0.833416
-1.06206
-1.28401
-1.49825
-1.70399
-1.90052
-2.08668
-2.25952
-2.41085
-2.51919
-2.5308
-2.30689
-0.133653
-0.400133
-0.664167
-0.924251
-1.17909
-1.42774
-1.66976
-1.90546
-2.1361
-2.36403
-2.59224
-2.82208
-3.04538
-3.22334
-3.26345
-0.147193
-0.440727
-0.731745
-1.01873
-1.30043
-1.57607
-1.84565
-2.11043
-2.37357
-2.64119
-2.92383
-3.23784
-3.60306
-4.0116
-4.21367
-0.161325
-0.483067
-0.802127
-1.11687
-1.42597
-1.7286
-2.02489
-2.31654
-2.60792
-2.90793
-3.23362
-3.61804
-4.13064
-4.94324
-6.58979
-0.176087
-0.527269
-0.875503
-1.21895
-1.55599
-1.88553
-2.20735
-2.52284
-2.83627
-3.15682
-3.50265
-3.90922
-4.44991
-5.29574
-6.91783
-0.191538
-0.573517
-0.952208
-1.32546
-1.69124
-2.04783
-2.39419
-2.73059
-3.05967
-3.38816
-3.72948
-4.10726
-4.55726
-5.10917
-5.63644
-0.207752
-0.622048
-1.03269
-1.43716
-1.83286
-2.21723
-2.58795
-2.94341
-3.28348
-3.6106
-3.931
-4.25516
-4.59384
-4.93971
-5.22031
-0.224805
-0.673117
-1.11746
-1.55495
-1.98236
-2.39611
-2.7923
-3.16692
-3.51629
-3.8377
-4.12991
-4.39297
-4.62543
-4.81557
-4.92018
-0.242759
-0.726943
-1.20699
-1.67973
-2.14134
-2.58719
-3.01163
-3.40795
-3.76853
-4.08507
-4.34905
-4.55203
-4.68641
-4.75083
-4.77767
-0.261641
-0.783639
-1.3016
-1.81223
-2.31127
-2.79314
-3.25048
-3.67381
-4.05134
-4.36895
-4.61056
-4.75872
-4.79596
-4.71219
-4.54084
-0.281414
-0.843136
-1.40131
-1.95278
-2.49314
-3.01613
-3.51294
-3.97148
-4.37576
-4.7056
-4.93696
-5.04245
-4.98956
-4.73435
-4.28178
-0.301955
-0.905098
-1.50567
-2.10104
-2.68706
-3.25729
-3.80198
-4.30684
-4.75188
-5.11065
-5.35076
-5.43617
-5.32365
-4.89357
-3.44536
-0.323029
-0.968845
-1.61365
-2.25578
-2.89194
-3.5162
-4.11867
-4.68372
-5.18791
-5.5981
-5.87199
-5.96733
-5.87827
-5.75984
-6.38845
-0.344272
-1.03329
-1.72349
-2.41468
-3.10509
-3.79025
-4.46134
-5.10288
-5.68922
-6.18019
-6.51721
-6.62656
-6.45328
-6.10733
-6.42237
-0.365182
-1.09693
-1.83262
-2.57412
-3.3219
-4.07405
-4.82454
-5.56037
-6.25677
-6.8692
-7.32053
-7.48206
-7.1482
-5.9958
-3.37647
-0.38513
-1.15783
-1.93773
-2.72918
-3.53567
-4.35901
-5.19792
-6.04524
-6.88262
-7.67007
-8.32512
-8.68157
-8.41155
-6.90296
-3.20115
-0.403383
-1.21373
-2.03482
-2.87381
-3.73773
-4.63316
-5.56547
-6.53702
-7.54316
-8.56288
-9.53706
-10.3161
-10.535
-9.33319
-4.90117
-0.419149
-1.26216
-2.11948
-3.00113
-3.91791
-4.88169
-5.90575
-7.00479
-8.19425
-9.48732
-10.8845
-12.3397
-13.6451
-14.0066
-10.3306
-0.431638
-1.30067
-2.18724
-3.10406
-4.06544
-5.08838
-6.19397
-7.40975
-8.77341
-10.3395
-12.1916
-14.4673
-17.4107
-21.4838
-27.5552
-11.2484
-25.7304
-24.3177
-20.7658
-17.467
-14.7021
-12.3872
-10.4068
-8.66874
-7.10619
-5.67093
-4.32748
-3.04869
-1.81287
-0.601623
-110.998
-57.8587
-37.3301
-27.1917
-21.1486
-17.041
-13.9804
-11.5428
-9.5014
-7.7238
-6.12705
-4.65572
-3.27039
-1.94115
-0.643625
-123.416
-67.3407
-43.127
-30.7735
-23.4862
-18.6528
-15.1411
-12.4038
-10.1509
-8.21581
-6.49607
-4.92425
-3.45314
-2.04739
-0.678493
-67.7868
-54.6969
-40.6878
-30.8373
-24.1195
-19.3469
-15.7639
-12.9283
-10.5796
-8.5583
-6.76237
-5.12283
-3.5905
-2.12805
-0.705088
-47.8425
-42.6913
-35.3607
-28.7255
-23.402
-19.2149
-15.8676
-13.1147
-10.7809
-8.74432
-6.92005
-5.24696
-3.67935
-2.18128
-0.722806
-30.3696
-32.1993
-29.5505
-25.7028
-21.8953
-18.4998
-15.5584
-13.0102
-10.7757
-8.78291
-6.97276
-5.29785
-3.71989
-2.20701
-0.731593
-22.3962
-24.8174
-24.573
-22.6522
-20.1023
-17.4695
-14.9763
-12.6878
-10.6027
-8.69468
-6.93154
-5.28142
-3.71524
-2.20673
-0.731886
-12.4371
-19.2865
-20.7597
-20.0384
-18.3671
-16.3421
-14.2518
-12.2244
-10.3066
-8.50588
-6.81182
-5.20671
-3.67053
-2.18306
-0.724493
-14.995
-17.4893
-18.4702
-18.0844
-16.8774
-15.2602
-13.4838
-11.6847
-9.92916
-8.24301
-6.63034
-5.08412
-3.59201
-2.13931
-0.71045
-15.6428
-16.7428
-17.13
-16.7007
-15.6725
-14.2889
-12.7314
-11.1148
-9.50357
-7.92913
-6.40271
-4.92396
-3.48611
-2.07902
-0.690877
-16.2481
-16.4915
-16.3568
-15.7327
-14.7145
-13.4383
-12.02
-10.5411