/*--------------------------------*- C++ -*----------------------------------*\
| =========                 |                                                 |
| \\      /  F ield         | OpenFOAM: The Open Source CFD Toolbox           |
|  \\    /   O peration     | Version:  5.x                                   |
|   \\  /    A nd           | Web:      www.OpenFOAM.org                      |
|    \\/     M anipulation  |                                                 |
\*---------------------------------------------------------------------------*/
FoamFile
{
    version     2.0;
    format      ascii;
    class       volScalarField;
    location    "18";
    object      gradTx;
}
// * * * * * * * * * * * * * * * * * * * * * * * * * * * * * * * * * * * * * //

dimensions      [0 -1 0 1 0 0 0];

internalField   nonuniform List<scalar> 
6300
(
-31.9528
-32.0235
-32.1643
-32.3737
-32.6494
-32.9884
-33.3863
-33.8378
-34.3361
-34.8732
-35.4396
-36.0251
-36.6184
-37.2085
-37.7846
-31.8821
-31.9535
-32.0957
-32.3073
-32.5862
-32.9294
-33.3328
-33.791
-34.2974
-34.8438
-35.4206
-36.0171
-36.6217
-37.2224
-37.8079
-31.7399
-31.8127
-31.9576
-32.1736
-32.4587
-32.8102
-33.2244
-33.696
-34.2186
-34.7839
-35.3819
-36.0012
-36.6289
-37.2517
-37.8565
-31.5251
-31.5997
-31.7485
-31.9707
-32.2648
-32.6285
-33.0584
-33.5501
-34.0971
-34.6912
-35.3219
-35.9767
-36.641
-37.2989
-37.9345
-31.2355
-31.3125
-31.4661
-31.696
-32.0012
-32.3803
-32.8308
-33.3487
-33.9284
-34.5618
-35.2379
-35.9428
-36.6594
-37.3683
-38.049
-30.8691
-30.9485
-31.1074
-31.3458
-31.6638
-32.0609
-32.5356
-33.0856
-33.706
-34.3895
-35.1251
-35.8971
-36.6855
-37.4657
-38.2104
-30.4233
-30.5051
-30.6691
-30.9161
-31.2473
-31.6636
-32.1653
-32.7519
-33.4205
-34.1653
-34.9756
-35.8351
-36.7199
-37.5988
-38.4339
-29.8957
-29.9794
-30.1477
-30.4023
-30.7457
-31.1807
-31.7101
-32.3361
-33.0588
-33.8753
-34.777
-35.7476
-36.7602
-37.7755
-38.7409
-29.2843
-29.369
-29.5399
-29.7997
-30.1524
-30.6033
-31.1583
-31.8234
-32.6034
-33.5001
-34.5096
-35.6181
-36.7979
-38.002
-39.1595
-28.5882
-28.6725
-28.8432
-29.104
-29.4609
-29.9217
-30.4963
-31.1956
-32.0311
-33.0122
-34.1431
-35.4173
-36.8113
-38.2754
-39.7214
-27.8076
-27.8897
-28.0562
-28.3122
-28.6653
-29.1264
-29.7094
-30.4317
-31.3133
-32.3747
-33.6335
-35.0972
-36.7551
-38.5673
-40.4471
-26.945
-27.0223
-27.1798
-27.4232
-27.7617
-28.2089
-28.7831
-29.5085
-30.4156
-31.5402
-32.9193
-34.5838
-36.5458
-38.7925
-41.2937
-26.005
-26.0748
-26.2173
-26.4389
-26.7495
-27.1644
-27.7055
-28.4037
-29.3008
-30.4515
-31.9211
-33.7747
-36.0548
-38.7674
-41.9966
-24.9951
-25.0544
-25.1759
-25.3653
-25.6327
-25.9935
-26.471
-27.1001
-27.9328
-29.0449
-30.5408
-32.5438
-35.1403
-38.2418
-41.6644
-23.9257
-23.9719
-24.0663
-24.2138
-24.4226
-24.7059
-25.0848
-25.593
-26.2861
-27.2562
-28.6571
-30.7292
-33.7463
-37.4519
-38.1777
-38.2934
-38.733
-39.1484
-39.5378
-39.9002
-40.2355
-40.5442
-40.8266
-41.0831
-41.3135
-41.5172
-41.6931
-41.8404
-41.9581
-42.0463
-42.1057
-42.1382
-42.1469
-42.1355
-42.1083
-42.0696
-42.0231
-41.9717
-41.9173
-41.8603
-41.8002
-41.7355
-41.6643
-41.5846
-41.495
-41.3948
-41.2845
-41.1654
-41.0399
-40.9107
-40.7808
-40.6528
-40.5284
-40.4087
-40.2933
-40.1811
-40.0702
-39.9582
-39.8429
-39.7226
-39.5964
-39.4643
-39.3274
-39.1878
-39.0477
-38.9098
-38.7764
-38.6491
-38.5284
-38.4141
-38.305
-38.199
-38.0939
-37.9875
-37.8779
-37.7644
-37.6468
-37.5263
-37.4045
-37.2838
-37.1666
-37.055
-36.9507
-36.8542
-36.7654
-36.6833
-36.6061
-36.5321
-36.4596
-36.3876
-36.316
-36.2458
-36.1791
-36.1192
-36.0698
-36.035
-36.0185
-36.0231
-36.0507
-36.1013
-36.1733
-36.2634
-36.3666
-36.4766
-36.5867
-38.3236
-38.7677
-39.186
-39.5767
-39.9392
-40.274
-40.5819
-40.864
-41.1207
-41.352
-41.5571
-41.7345
-41.8828
-42.0007
-42.0877
-42.1443
-42.1726
-42.1758
-42.1583
-42.125
-42.0807
-42.03
-41.9761
-41.9209
-41.8648
-41.8068
-41.7449
-41.6765
-41.5989
-41.5102
-41.4095
-41.2971
-41.1747
-41.0451
-40.9118
-40.7781
-40.6474
-40.5218
-40.4023
-40.2887
-40.1793
-40.0717
-39.9629
-39.8501
-39.7312
-39.6048
-39.4712
-39.3315
-39.1883
-39.0445
-38.9034
-38.7677
-38.6394
-38.5192
-38.4068
-38.3004
-38.1978
-38.0958
-37.9919
-37.8837
-37.7702
-37.6512
-37.528
-37.4029
-37.2787
-37.1584
-37.0447
-36.9393
-36.8432
-36.7559
-36.6761
-36.6015
-36.5299
-36.4589
-36.387
-36.3139
-36.2406
-36.1694
-36.1041
-36.0489
-36.0087
-35.9879
-35.9901
-36.0175
-36.0704
-36.1474
-36.2446
-36.3566
-36.4765
-36.5966
-38.3865
-38.8397
-39.2634
-39.6562
-40.0182
-40.3511
-40.657
-40.9378
-41.195
-41.4283
-41.6367
-41.8179
-41.9691
-42.0879
-42.1727
-42.2238
-42.2431
-42.2346
-42.2038
-42.1573
-42.1013
-42.0416
-41.9824
-41.9258
-41.8721
-41.8191
-41.7638
-41.7018
-41.6291
-41.5427
-41.4409
-41.3241
-41.1944
-41.0559
-40.9131
-40.7713
-40.6347
-40.5064
-40.3877
-40.278
-40.1749
-40.0748
-39.9734
-39.8663
-39.7504
-39.6238
-39.4866
-39.3407
-39.1896
-39.0376
-38.8892
-38.7484
-38.6179
-38.4989
-38.3906
-38.2906
-38.1954
-38.1007
-38.0024
-37.8973
-37.7837
-37.6616
-37.5326
-37.4001
-37.2681
-37.1409
-37.0222
-36.9147
-36.8194
-36.7356
-36.6612
-36.5929
-36.5268
-36.4594
-36.3883
-36.3122
-36.2323
-36.1514
-36.0742
-36.0064
-35.9544
-35.9243
-35.9209
-35.9475
-36.0051
-36.0921
-36.2044
-36.3353
-36.4763
-36.6176
-38.4871
-38.9542
-39.3854
-39.7798
-40.1392
-40.4671
-40.768
-41.046
-41.3034
-41.5406
-41.7556
-41.9444
-42.102
-42.2239
-42.3065
-42.349
-42.3535
-42.3254
-42.2722
-42.2031
-42.1272
-42.0525
-41.9848
-41.9268
-41.878
-41.835
-41.7921
-41.7424
-41.6792
-41.5974
-41.494
-41.3695
-41.227
-41.0725
-40.9133
-40.7569
-40.61
-40.4771
-40.36
-40.2577
-40.1663
-40.08
-39.9918
-39.8953
-39.785
-39.6581
-39.5146
-39.3576
-39.1922
-39.0254
-38.864
-38.7142
-38.58
-38.4632
-38.3624
-38.274
-38.1923
-38.1106
-38.0226
-37.9232
-37.8096
-37.6817
-37.5423
-37.3965
-37.2505
-37.111
-36.9837
-36.8725
-36.779
-36.7018
-36.6376
-36.5809
-36.5255
-36.4655
-36.3965
-36.3162
-36.2255
-36.1282
-36.0307
-35.9412
-35.8688
-35.8221
-35.8084
-35.8328
-35.8974
-36.0006
-36.1375
-36.2995
-36.4754
-36.6522
-38.6342
-39.1205
-39.5604
-39.954
-40.3054
-40.622
-40.9123
-41.1837
-41.441
-41.685
-41.9122
-42.1157
-42.2867
-42.4163
-42.4979
-42.5288
-42.5111
-42.4523
-42.3636
-42.2586
-42.1513
-42.0533
-41.9732
-41.9145
-41.8757
-41.8508
-41.8302
-41.8024
-41.7563
-41.683
-41.5777
-41.4406
-41.277
-41.096
-40.9093
-40.729
-40.5651
-40.425
-40.3111
-40.2217
-40.1504
-40.0877
-40.0225
-39.9439
-39.8434
-39.7161
-39.5622
-39.3863
-39.197
-39.0053
-38.8222
-38.6573
-38.5172
-38.4043
-38.3165
-38.2478
-38.1891
-38.1297
-38.0593
-37.9696
-37.8559
-37.7184
-37.5614
-37.393
-37.2236
-37.0635
-36.9219
-36.805
-36.7148
-36.6495
-36.6032
-36.567
-36.5308
-36.4847
-36.4208
-36.3351
-36.2281
-36.1052
-35.9756
-35.8514
-35.746
-35.6723
-35.6411
-35.6604
-35.7339
-35.8606
-36.0343
-36.2437
-36.4732
-36.7044
-38.8416
-39.3534
-39.8022
-40.1889
-40.5219
-40.8149
-41.0836
-41.3418
-41.598
-41.8536
-42.103
-42.3339
-42.5309
-42.678
-42.7625
-42.7784
-42.728
-42.6222
-42.4783
-42.3177
-42.1617
-42.0286
-41.9308
-41.8734
-41.8534
-41.8605
-41.8785
-41.8888
-41.8724
-41.8147
-41.7072
-41.5501
-41.3518
-41.1277
-40.8964
-40.6771
-40.4863
-40.3349
-40.2271
-40.1596
-40.1221
-40.0991
-40.0724
-40.0243
-39.9403
-39.8127
-39.6413
-39.4342
-39.2054
-38.9728
-38.7541
-38.5649
-38.4153
-38.3091
-38.2431
-38.2072
-38.1869
-38.1647
-38.1237
-38.0503
-37.9368
-37.7831
-37.5968
-37.3912
-37.1831
-36.9894
-36.8248
-36.6988
-36.615
-36.5699
-36.5541
-36.5533
-36.5505
-36.5293
-36.4765
-36.3847
-36.2538
-36.0917
-35.9126
-35.7346
-35.5778
-35.4611
-35.4012
-35.4099
-35.4938
-35.6529
-35.8797
-36.159
-36.4685
-36.7813
-39.1307
-39.6773
-40.1334
-40.5012
-40.796
-41.0429
-41.2703
-41.5028
-41.7557
-42.0315
-42.3202
-42.6011
-42.847
-43.0296
-43.1259
-43.1236
-43.0249
-42.8467
-42.6172
-42.3702
-42.1393
-41.9529
-41.8303
-41.7785
-41.7922
-41.8542
-41.9383
-42.0133
-42.0483
-42.018
-41.9081
-41.7187
-41.4641
-41.1696
-40.8661
-40.5843
-40.3505
-40.182
-40.0852
-40.0543
-40.0728
-40.1157
-40.1533
-40.1561
-40.1003
-39.9722
-39.772
-39.5132
-39.2195
-38.92
-38.6438
-38.4153
-38.2508
-38.1563
-38.126
-38.1443
-38.1873
-38.2269
-38.2349
-38.1887
-38.0754
-37.8949
-37.6599
-37.393
-37.1218
-36.8736
-36.6719
-36.532
-36.4592
-36.4482
-36.4836
-36.5422
-36.5967
-36.6196
-36.5885
-36.4903
-36.3244
-36.1029
-35.8479
-35.5875
-35.3515
-35.1685
-35.0623
-35.0511
-35.1455
-35.3478
-35.6496
-36.0308
-36.4592
-36.8939
-39.5347
-40.1313
-40.5919
-40.9185
-41.139
-41.299
-41.4497
-41.6347
-41.8804
-42.191
-42.5489
-42.9188
-43.2542
-43.5057
-43.6314
-43.6075
-43.4361
-43.1451
-42.7813
-42.3994
-42.0527
-41.7856
-41.6276
-41.5893
-41.6615
-41.8161
-42.011
-42.1955
-42.3182
-42.3359
-42.2235
-41.9811
-41.6338
-41.2246
-40.8043
-40.4226
-40.1207
-39.926
-39.8482
-39.878
-39.9886
-40.1399
-40.2841
-40.3724
-40.3641
-40.2356
-39.9871
-39.6424
-39.2419
-38.8337
-38.4646
-38.1734
-37.9858
-37.9107
-37.9392
-38.0459
-38.1928
-38.3343
-38.4242
-38.4239
-38.3108
-38.085
-37.769
-37.4012
-37.0271
-36.691
-36.43
-36.2684
-36.2145
-36.2597
-36.3795
-36.5371
-36.6882
-36.7877
-36.7971
-36.6935
-36.4752
-36.1624
-35.791
-35.405
-35.0493
-34.765
-34.5866
-34.54
-34.642
-34.8993
-35.3052
-35.8345
-36.4408
-37.06
-40.1043
-40.7811
-41.2432
-41.4888
-41.5689
-41.5685
-41.5797
-41.6792
-41.9117
-42.2824
-42.7603
-43.2863
-43.7823
-44.1631
-44.3524
-44.304
-44.0194
-43.5486
-42.9715
-42.3778
-41.8515
-41.4612
-41.2523
-41.2413
-41.412
-41.72
-42.0986
-42.4668
-42.7394
-42.8411
-42.7261
-42.3946
-41.8928
-41.2956
-40.6869
-40.1458
-39.7366
-39.5018
-39.4564
-39.5852
-39.8456
-40.1745
-40.4955
-40.7279
-40.801
-40.6719
-40.3409
-39.8519
-39.2755
-38.6912
-38.1733
-37.7825
-37.5586
-37.516
-37.6397
-37.8896
-38.2059
-38.516
-38.7436
-38.8214
-38.7084
-38.4051
-37.9528
-37.4185
-36.8775
-36.4005
-36.0451
-35.8495
-35.8271
-35.9638
-36.2211
-36.5413
-36.8542
-37.0855
-37.1685
-37.0616
-36.7621
-36.3062
-35.7552
-35.1788
-34.644
-34.2092
-33.9213
-33.8151
-33.9148
-34.2367
-34.783
-35.5275
-36.404
-37.3088
-40.9161
-41.7401
-42.2061
-42.2972
-42.1148
-41.8209
-41.5825
-41.5323
-41.7441
-42.2195
-42.9027
-43.697
-44.4764
-45.0962
-45.416
-45.3404
-44.8709
-44.1051
-43.1856
-42.2591
-41.4545
-40.8754
-40.5923
-40.6313
-40.9649
-41.5223
-42.201
-42.8759
-43.4066
-43.6584
-43.5403
-43.0533
-42.2893
-41.3829
-40.4723
-39.6792
-39.1013
-38.8046
-38.8139
-39.1027
-39.6039
-40.2205
-40.8342
-41.3128
-41.5293
-41.3987
-40.9222
-40.1871
-39.3205
-38.453
-37.6991
-37.1509
-36.8707
-36.8816
-37.1585
-37.6378
-38.2278
-38.8166
-39.2786
-39.4935
-39.3802
-38.9397
-38.2546
-37.4453
-36.6357
-35.9347
-35.4301
-35.1813
-35.2106
-35.4943
-35.972
-36.5559
-37.138
-37.5966
-37.8135
-37.7072
-37.2739
-36.5871
-35.7561
-34.8927
-34.0948
-33.4418
-32.9943
-32.7935
-32.8677
-33.251
-33.9756
-35.0302
-36.3262
-37.6901
-42.0794
-43.2143
-43.7091
-43.4999
-42.8209
-41.9928
-41.3139
-41.008
-41.1969
-41.8574
-42.8854
-44.1292
-45.4003
-46.4616
-47.0488
-46.9443
-46.1491
-44.883
-43.4099
-41.9649
-40.7327
-39.8636
-39.4682
-39.5973
-40.1957
-41.1497
-42.309
-43.4927
-44.4756
-45.0082
-44.8859
-44.1108
-42.8909
-41.4762
-40.0886
-38.9029
-38.0608
-37.6669
-37.769
-38.3146
-39.1959
-40.2706
-41.3678
-42.275
-42.7575
-42.6235
-41.8758
-40.7116
-39.3669
-38.0512
-36.9288
-36.1335
-35.7636
-35.8642
-36.3857
-37.2264
-38.2517
-39.2998
-40.1696
-40.6382
-40.5231
-39.8266
-38.7352
-37.4726
-36.2375
-35.1864
-34.4466
-34.1126
-34.2277
-34.7456
-35.57
-36.573
-37.5996
-38.4556
-38.9239
-38.8238
-38.1507
-37.0757
-35.8036
-34.5125
-33.3366
-32.3788
-31.7119
-31.376
-31.3755
-31.774
-32.6927
-34.1854
-36.1507
-38.2913
-43.7186
-45.6068
-46.2244
-45.3812
-43.7431
-41.9486
-40.5073
-39.771
-39.9704
-40.9661
-42.5577
-44.5222
-46.6263
-48.5098
-49.6778
-49.5427
-48.1057
-45.9587
-43.5938
-41.364
-39.4882
-38.1697
-37.589
-37.8874
-38.9144
-40.4815
-42.3819
-44.3985
-46.193
-47.3011
-47.1716
-45.8087
-43.7731
-41.5303
-39.4142
-37.6316
-36.375
-35.815
-36.0853
-37.043
-38.5094
-40.2884
-42.1747
-43.8488
-44.8737
-44.7318
-43.4292
-41.496
-39.3718
-37.3708
-35.6876
-34.5033
-33.9789
-34.2406
-35.1535
-36.5492
-38.2426
-40.0397
-41.6382
-42.6234
-42.5032
-41.2823
-39.4625
-37.4603
-35.5742
-33.9895
-32.8791
-32.397
-32.6648
-33.5556
-34.9109
-36.556
-38.3068
-39.873
-40.8529
-40.7654
-39.6065
-37.848
-35.8783
-33.9665
-32.2644
-30.8967
-29.9528
-29.4756
-29.3088
-29.5476
-30.5835
-32.6601
-35.7229
-39.2767
-45.8175
-49.8158
-50.8297
-48.4091
-44.899
-41.3967
-38.684
-37.1856
-37.5967
-39.2167
-41.6928
-44.7143
-48.1703
-51.5883
-54.1836
-54.0157
-51.0846
-47.3485
-43.5832
-40.2536
-37.4408
-35.4136
-34.4437
-35.1285
-36.8552
-39.3334
-42.2872
-45.6243
-48.8987
-51.3763
-51.2332
-48.4754
-44.9536
-41.4021
-38.2594
-35.6029
-33.6862
-32.7674
-33.412
-35.0388
-37.3727
-40.1517
-43.2874
-46.3573
-48.6701
-48.5117
-45.8906
-42.5555
-39.1992
-36.2327
-33.7279
-31.9231
-31.062
-31.6794
-33.2262
-35.4433
-38.0839
-41.0658
-43.9899
-46.2005
-46.0685
-43.6002
-40.4522
-37.2809
-34.4771
-32.1097
-30.4068
-29.6016
-30.2047
-31.6968
-33.8345
-36.3869
-39.2797
-42.1346
-44.3189
-44.2499
-41.9255
-38.9246
-35.8696
-33.1185
-30.7106
-28.8045
-27.5218
-27.1282
-26.6578
-26.1737
-26.9754
-29.7147
-34.5882
-40.9776
-47.3372
-58.2925
-60.3052
-52.9747
-46.0653
-39.7191
-35.1143
-31.8506
-33.4821
-36.2344
-40.0428
-44.281
-49.7691
-55.8515
-62.6685
-62.4679
-55.2229
-48.7801
-42.9453
-38.3989
-34.2623
-31.1349
-28.9155
-30.8695
-33.7137
-37.5004
-41.6407
-46.9404
-52.7519
-59.225
-59.0601
-52.2423
-46.1769
-40.6853
-36.4046
-32.5087
-29.5605
-27.4683
-29.3243
-32.0164
-35.5952
-39.5013
-44.4947
-49.9561
-56.0249
-55.838
-49.3799
-43.6458
-38.4651
-34.4299
-30.7603
-27.984
-26.0162
-27.7797
-30.3336
-33.7276
-37.434
-42.175
-47.3691
-53.1509
-52.9978
-46.8971
-41.4753
-36.5726
-32.7514
-29.273
-26.6417
-24.7782
-26.4644
-28.9083
-32.1609
-35.7276
-40.3073
-45.362
-51.0295
-50.9821
-45.2189
-40.0789
-35.4235
-31.7762
-28.4342
-25.8146
-23.8103
-24.8912
-24.0268
-20.9484
-20.5771
-23.6959
-31.2705
-44.1086
-41.3567
-79.7239
-82.9666
-56.6611
-46.3805
-35.5372
-29.6136
-19.4659
-27.7535
-31.7311
-37.774
-42.0477
-50.5123
-59.057
-81.2589
-81.0641
-58.2059
-49.3365
-40.4519
-35.9542
-29.6306
-25.5489
-17.3774
-25.3286
-29.215
-35.1583
-39.3247
-47.5194
-55.6525
-76.6326
-76.4671
-54.9258
-46.5741
-38.2246
-33.9956
-28.0498
-24.2021
-16.484
-24.0325
-27.7174
-33.3462
-37.2853
-45.0283
-52.6799
-72.3882
-72.1948
-51.8267
-43.9391
-36.0814
-32.1008
-26.5064
-22.8805
-15.5973
-22.7418
-26.2312
-31.5618
-35.2945
-42.6315
-49.9023
-68.6475
-68.4916
-49.2165
-41.7509
-34.3068
-30.5321
-25.2166
-21.7708
-14.8435
-21.6329
-24.9553
-30.035
-33.6098
-40.6506
-47.707
-65.9696
-65.945
-47.615
-40.5352
-33.5257
-29.9944
-25.1174
-21.9389
-15.6562
-25.4556
-24.5837
-11.8247
-9.15312
-11.2608
-20.3732
-50.2139
-36.6991
-36.8029
-36.8781
-36.9192
-36.9244
-36.8956
-36.8375
-36.7569
-36.662
-36.5613
-36.4632
-36.375
-36.3032
-36.2525
-36.2263
-36.719
-36.8316
-36.9122
-36.955
-36.9585
-36.9249
-36.8599
-36.7712
-36.6678
-36.5588
-36.4532
-36.3587
-36.282
-36.228
-36.2001
-36.7613
-36.8923
-36.9841
-37.0302
-37.0295
-36.9857
-36.906
-36.8003
-36.679
-36.553
-36.4321
-36.3247
-36.2381
-36.1773
-36.1461
-36.831
-36.992
-37.1017
-37.1523
-37.1438
-37.0823
-36.9783
-36.8448
-36.6951
-36.5421
-36.3973
-36.2701
-36.1682
-36.0972
-36.0608
-36.937
-37.1432
-37.2783
-37.3335
-37.311
-37.2213
-37.0802
-36.9054
-36.7145
-36.5231
-36.3448
-36.1902
-36.0674
-35.9825
-35.9391
-37.0939
-37.3654
-37.5348
-37.5925
-37.5453
-37.4117
-37.2157
-36.9822
-36.7342
-36.4912
-36.2686
-36.0783
-35.9289
-35.8262
-35.774
-37.3247
-37.6897
-37.9031
-37.9562
-37.8661
-37.6646
-37.3886
-37.0735
-36.749
-36.4388
-36.1601
-35.9256
-35.7435
-35.6195
-35.5568
-37.6676
-38.1657
-38.4316
-38.4633
-38.2982
-37.9918
-37.6008
-37.1741
-36.7497
-36.3547
-36.0076
-35.7203
-35.5002
-35.3516
-35.2768
-38.1863
-38.874
-39.1942
-39.1671
-38.8718
-38.4037
-37.8487
-37.2726
-36.7209
-36.2227
-35.7952
-35.4478
-35.1854
-35.0098
-34.9219
-38.993
-39.9496
-40.3042
-40.1392
-39.618
-38.9025
-38.1176
-37.3465
-36.6386
-36.02
-35.5027
-35.0905
-34.7836
-34.5804
-34.4792
-40.2964
-41.6272
-41.9337
-41.4676
-40.5585
-39.4706
-38.3728
-37.3574
-36.467
-35.716
-35.1049
-34.628
-34.2781
-34.0488
-33.9354
-42.5177
-44.3289
-44.336
-43.2389
-41.6779
-40.0486
-38.5456
-37.2433
-36.1559
-35.2722
-34.573
-34.0385
-33.6521
-33.4014
-33.2782
-46.5958
-48.8349
-47.8425
-45.474
-42.8655
-40.5005
-38.5178
-36.9142
-35.641
-34.6441
-33.8762
-33.3007
-32.8905
-32.6267
-32.4976
-54.9106
-56.5723
-52.7251
-47.949
-43.8095
-40.57
-38.111
-36.2545
-34.85
-33.7868
-32.9872
-32.3977
-31.9823
-31.7172
-31.588
-74.491
-69.8185
-58.5366
-49.7875
-43.8538
-39.8588
-37.1018
-35.1429
-33.7177
-32.6659
-31.8879
-31.3208
-30.9239
-30.6717
-30.5492
-22.9032
-22.9351
-23.0004
-23.1019
-23.2448
-23.4379
-23.6955
-24.0424
-24.5232
-25.2234
-26.3204
-28.2177
-31.894
-39.6169
-53.9973
-21.9514
-21.9695
-22.0061
-22.0622
-22.1392
-22.2403
-22.3705
-22.54
-22.7689
-23.1013
-23.6466
-24.726
-27.5051
-37.1891
-79.938
-20.9869
-20.9909
-20.9983
-21.0077
-21.0169
-21.0223
-21.0184
-20.9965
-20.9428
-20.8318
-20.6056
-20.0834
-18.4953
-11.8173
25.496
-20.0197
-20.01
-19.989
-19.9534
-19.8972
-19.8107
-19.6787
-19.4754
-19.1568
-18.6418
-17.769
-16.1925
-13.1779
-7.73845
-3.80796
-19.0591
-19.0368
-18.9899
-18.9133
-18.7983
-18.6308
-18.3884
-18.0345
-17.5075
-16.7001
-15.4168
-13.2866
-9.57123
-2.62916
13.4219
-18.1139
-18.0806
-18.0112
-17.8997
-17.7357
-17.5028
-17.1756
-16.7139
-16.0534
-15.0896
-13.6524
-11.4739
-8.20376
-3.85184
-1.98192
-17.1918
-17.1495
-17.0618
-16.9225
-16.7208
-16.4403
-16.0562
-15.5314
-14.81
-13.8085
-12.4036
-10.4175
-7.58643
-3.35222
4.89468
-16.2991
-16.2498
-16.1483
-15.9885
-15.7606
-15.4496
-15.0345
-14.4854
-13.7612
-12.8079
-11.5589
-9.94774
-7.94316
-5.63937
-3.48395
-15.4406
-15.3863
-15.2752
-15.1018
-14.8579
-14.5312
-14.1058
-13.5608
-12.8717
-12.0125
-10.966
-9.75113
-8.5075
-7.82355
-10.366
-14.6198
-14.5623
-14.4452
-14.2642
-14.0125
-13.6814
-13.26
-12.7364
-12.1001
-11.3472
-10.4902
-9.57449
-8.68311
-7.76724
-5.05779
-13.8389
-13.7797
-13.6597
-13.4755
-13.2223
-12.8942
-12.485
-11.9901
-11.4096
-10.7541
-10.0551
-9.38095
-8.87568
-8.95655
-11.8246
-13.099
-13.0393
-12.9187
-12.7347
-12.484
-12.1632
-11.7696
-11.3033
-10.771
-10.1913
-9.60272
-9.07009
-8.66116
-8.21043
-5.58875
-12.4007
-12.3413
-12.2217
-12.0401
-11.7945
-11.4828
-11.1045
-10.6623
-10.1653
-9.63455
-9.11145
-8.67331
-8.47564
-8.97197
-12.5273
-11.7435
-11.6851
-11.5677
-11.3901
-11.1507
-10.8486
-10.4838
-10.0592
-9.58298
-9.07248
-8.56114
-8.10948
-7.80812
-7.6093
-5.49732
-11.1269
-11.0699
-10.9556
-10.7828
-10.5506
-10.2579
-9.90457
-9.492
-9.02446
-8.51095
-7.96937
-7.44126
-7.06935
-7.57527
-13.4386
-10.5498
-10.4947
-10.384
-10.217
-9.99246
-9.70934
-9.36647
-8.96296
-8.49784
-7.96891
-7.3682
-6.66454
-5.72097
-3.82087
3.39101
-10.0109
-9.95794
-9.85154
-9.69095
-9.47503
-9.20224
-8.87049
-8.47668
-8.01552
-7.47671
-6.83852
-6.05442
-5.03681
-3.75523
-3.61387
-9.50894
-9.45832
-9.35672
-9.20338
-8.9971
-8.73609
-8.41759
-8.03717
-7.58713
-7.05352
-6.41016
-5.60645
-4.53596
-2.89778
0.776814
-9.04208
-8.9941
-8.89783
-8.75257
-8.55718
-8.30986
-8.00771
-7.646
-7.21676
-6.70653
-6.09314
-5.34374
-4.42936
-3.45451
-3.57811
-8.60855
-8.56344
-8.47296
-8.33658
-8.15333
-7.9217
-7.63919
-7.30172
-6.90264
-6.43119
-5.87058
-5.19561
-4.36474
-3.24842
-0.994161
-8.20634
-8.16427
-8.07998
-7.95312
-7.78309
-7.56888
-7.30883
-7.00024
-6.63878
-6.21776
-5.72743
-5.15575
-4.49834
-3.83258
-3.86941
-7.83335
-7.79444
-7.71657
-7.59966
-7.44353
-7.24789
-7.01217
-6.73547
-6.4163
-6.05247
-5.64077
-5.17543
-4.63774
-3.92883
-2.43958
-7.48739
-7.45165
-7.38027
-7.27342
-7.13143
-6.95473
-6.74399
-6.50018
-6.22482
-5.92042
-5.59135
-5.24536
-4.89604
-4.56697
-4.30614
-7.16625
-7.13363
-7.06859
-6.9716
-6.84342
-6.68522
-6.49878
-6.28682
-6.05352
-5.80551
-5.55369
-5.31761
-5.14029
-5.15771
-5.99154
-6.86777
-6.83811
-6.77911
-6.69145
-6.57626
-6.43531
-6.27129
-6.08827
-5.89243
-5.69325
-5.50511
-5.34905
-5.2493
-5.1815
-4.64618
-6.58988
-6.56297
-6.50954
-6.43042
-6.32699
-6.20143
-6.057
-5.89861
-5.73368
-5.57333
-5.43425
-5.3414
-5.33612
-5.52995
-6.53882
-6.33069
-6.30625
-6.25781
-6.18626
-6.09311
-5.98066
-5.8524
-5.71351
-5.57173
-5.43865
-5.33129
-5.27293
-5.28467
-5.31239
-4.69918
-6.08847
-6.06621
-6.02213
-5.95711
-5.87262
-5.77088
-5.65519
-5.53042
-5.40376
-5.2861
-5.1943
-5.15579
-5.22212
-5.53992
-6.86651
-5.8617
-5.84134
-5.801
-5.74148
-5.6641
-5.57078
-5.4643
-5.34863
-5.22953
-5.1156
-5.02032
-4.96584
-4.98495
-5.06689
-4.54088
-5.64907
-5.63033
-5.59318
-5.53827
-5.46666
-5.37983
-5.27979
-5.16924
-5.05173
-4.93215
-4.81801
-4.72478
-4.70417
-5.01603
-7.26412
-5.44947
-5.43212
-5.39769
-5.34666
-5.27978
-5.19804
-5.10259
-4.99468
-4.87536
-4.74492
-4.60117
-4.4333
-4.1925
-3.62056
-1.13442
-5.2619
-5.24578
-5.21372
-5.16605
-5.10324
-5.02578
-4.93406
-4.82804
-4.70671
-4.56693
-4.40109
-4.19249
-3.91078
-3.5544
-3.69228
-5.08554
-5.07052
-5.04059
-4.99597
-4.93687
-4.86343
-4.77545
-4.67203
-4.55088
-4.40706
-4.2307
-4.00243
-3.68093
-3.14501
-1.78423
-4.91961
-4.90561
-4.87768
-4.83594
-4.78046
-4.71117
-4.62756
-4.52835
-4.4108
-4.26977
-4.09637
-3.87713
-3.59997
-3.30842
-3.49279
-4.76341
-4.75037
-4.72436
-4.68544
-4.63366
-4.56886
-4.49052
-4.3974
-4.28702
-4.15497
-3.99388
-3.79206
-3.52902
-3.14131
-2.23431
-4.61626
-4.60415
-4.58
-4.54389
-4.49589
-4.43596
-4.36375
-4.27843
-4.1783
-4.06034
-3.91969
-3.7495
-3.54464
-3.33482
-3.44099
-4.47752
-4.4663
-4.44394
-4.41059
-4.36642
-4.31158
-4.24609
-4.16975
-4.08196
-3.98147
-3.86601
-3.73103
-3.56371
-3.30889
-2.6591
-4.34657
-4.33618
-4.31552
-4.28481
-4.24437
-4.19459
-4.13596
-4.06903
-3.99443
-3.913
-3.82589
-3.735
-3.64356
-3.55723
-3.48819
-4.22284
-4.21321
-4.19409
-4.1658
-4.12879
-4.08375
-4.0316
-3.97363
-3.91167
-3.84847
-3.78841
-3.73937
-3.71985
-3.79357
-4.2693
-4.10579
-4.09682
-4.07904
-4.05283
-4.01881
-3.97786
-3.93129
-3.88099
-3.82976
-3.78177
-3.74326
-3.72325
-3.73139
-3.75074
-3.51533
-3.99499
-3.98654
-3.96983
-3.9453
-3.91363
-3.87587
-3.83357
-3.78902
-3.74562
-3.70848
-3.68528
-3.68758
-3.73516
-3.88482
-4.46325
-3.89006
-3.882
-3.86607
-3.84273
-3.81268
-3.77704
-3.73742
-3.69624
-3.65712
-3.62552
-3.60957
-3.62049
-3.66805
-3.72112
-3.42104
-3.79074
-3.78291
-3.76746
-3.74481
-3.71563
-3.68097
-3.64235
-3.60203
-3.56341
-3.5317
-3.51522
-3.52794
-3.5971
-3.80267
-4.5622
-3.69685
-3.68913
-3.67386
-3.65142
-3.62239
-3.58765
-3.54847
-3.50665
-3.46489
-3.42731
-3.4006
-3.3962
-3.43144
-3.49952
-3.22613
-3.60833
-3.60058
-3.58525
-3.5626
-3.53311
-3.49743
-3.45641
-3.41124
-3.36348
-3.31536
-3.2705
-3.23692
-3.24297
-3.43349
-4.70482
-3.52518
-3.51732
-3.50171
-3.47855
-3.44815
-3.4109
-3.36725
-3.31763
-3.26233
-3.20116
-3.13256
-3.05014
-2.92641
-2.61689
-1.23483
-3.4475
-3.43944
-3.42341
-3.39952
-3.36794
-3.32882
-3.28223
-3.22796
-3.16525
-3.09214
-3.0042
-2.89204
-2.73887
-2.54512
-2.63656
-3.37541
-3.36711
-3.35057
-3.32583
-3.29297
-3.25195
-3.20255
-3.14416
-3.07539
-2.9934
-2.89268
-2.76243
-2.57952
-2.27528
-1.50111
-3.30908
-3.30052
-3.28342
-3.2578
-3.22366
-3.18088
-3.12911
-3.06757
-2.99471
-2.90769
-2.80167
-2.66939
-2.50444
-2.33176
-2.42866
-3.2487
-3.23985
-3.22218
-3.19569
-3.16036
-3.11607
-3.06247
-2.99885
-2.92386
-2.83516
-2.72891
-2.59903
-2.43471
-2.20105
-1.67675
-3.19446
-3.18532
-3.16706
-3.13972
-3.10329
-3.05771
-3.00278
-2.93802
-2.86254
-2.77483
-2.67256
-2.55258
-2.41316
-2.27215
-2.30744
-3.14658
-3.13713
-3.11827
-3.09005
-3.05257
-3.00586
-2.94993
-2.88464
-2.80972
-2.72462
-2.6285
-2.51965
-2.3927
-2.2208
-1.84399
-3.10526
-3.09547
-3.07596
-3.04683
-3.00826
-2.96042
-2.90356
-2.83796
-2.76395
-2.68208
-2.59328
-2.4993
-2.40345
-2.31176
-2.23747
-3.07073
-3.06057
-3.04033
-3.01018
-2.97037
-2.92125
-2.86328
-2.79711
-2.72365
-2.64435
-2.56165
-2.48027
-2.41131
-2.39063
-2.57932
-3.04327
-3.03268
-3.01159
-2.98024
-2.93896
-2.88822
-2.8287
-2.76132
-2.68742
-2.60898
-2.5291
-2.4526
-2.38565
-2.32411
-2.15053
-3.02317
-3.01206
-2.98999
-2.9572
-2.9141
-2.86129
-2.79958
-2.73007
-2.65433
-2.57461
-2.49421
-2.4183
-2.35624
-2.33538
-2.50283
-3.01077
-2.99908
-2.97582
-2.94131
-2.896
-2.84056
-2.77586
-2.70314
-2.62402
-2.54071
-2.45622
-2.37437
-2.29822
-2.21589
-1.99447
-3.0065
-2.99411
-2.96948
-2.93293
-2.88495
-2.82624
-2.75773
-2.68066
-2.59662
-2.50764
-2.41639
-2.32649
-2.24449
-2.19299
-2.30923
-3.01084
-2.99765
-2.97142
-2.93248
-2.88135
-2.81872
-2.74555
-2.66303
-2.57264
-2.47616
-2.37562
-2.27314
-2.16959
-2.05358
-1.8117
-3.02435
-3.01024
-2.98219
-2.94051
-2.88573
-2.81853
-2.73986
-2.65086
-2.55289
-2.44749
-2.33619
-2.22052
-2.10335
-2.00158
-2.03917
-3.04765
-3.03252
-3.00241
-2.95765
-2.89872
-2.82632
-2.74135
-2.64491
-2.53832
-2.42292
-2.29981
-2.16894
-2.02643
-1.85278
-1.54489
-3.08146
-3.0652
-3.03282
-2.98462
-2.92108
-2.84284
-2.75079
-2.64603
-2.52986
-2.40371
-2.26881
-2.12543
-1.97114
-1.79721
-1.58462
-3.12657
-3.10907
-3.07421
-3.02226
-2.95364
-2.86896
-2.76907
-2.65506
-2.52833
-2.39058
-2.24371
-2.08951
-1.9295
-1.76846
-1.64808
-3.18383
-3.16501
-3.12748
-3.07147
-2.99734
-2.90565
-2.79715
-2.67292
-2.53445
-2.3838
-2.2237
-2.05761
-1.88858
-1.71148
-1.45655
-3.25416
-3.23394
-3.19358
-3.13325
-3.05325
-2.95401
-2.83616
-2.70068
-2.54904
-2.38356
-2.20786
-2.02776
-1.85325
-1.70855
-1.70372
-3.33854
-3.31685
-3.27354
-3.20871
-3.12253
-3.01529
-2.88742
-2.73965
-2.57325
-2.39042
-2.19509
-1.99401
-1.79724
-1.60848
-1.33176
-3.43797
-3.41479
-3.36845
-3.29899
-3.20644
-3.09089
-2.95249
-2.79157
-2.60886
-2.40596
-2.18632
-1.95726
-1.73566
-1.5695
-1.64595
-3.5535
-3.52882
-3.47943
-3.40529
-3.30632
-3.18236
-3.03321
-2.85862
-2.65848
-2.43314
-2.18409
-1.91534
-1.63558
-1.36205
-1.13487
-3.68618
-3.66
-3.60759
-3.52885
-3.42356
-3.29134
-3.13159
-2.94342
-2.72562
-2.47677
-2.19554
-1.88108
-1.53116
-1.1224
-0.466015
-3.83703
-3.80939
-3.75405
-3.67085
-3.55949
-3.41943
-3.24971
-3.04879
-2.81432
-2.54289
-2.23008
-1.87143
-1.46761
-1.05472
-0.91711
-4.00708
-3.97802
-3.91985
-3.8324
-3.71536
-3.56811
-3.38949
-3.17748
-2.9287
-2.63774
-2.29644
-1.89317
-1.41036
-0.795864
0.303158
-4.19732
-4.16688
-4.10597
-4.0145
-3.89222
-3.73858
-3.55245
-3.33169
-3.07236
-2.76756
-2.40583
-1.97015
-1.44455
-0.873486
-0.780732
-4.40869
-4.37689
-4.31333
-4.21801
-4.09086
-3.93161
-3.73947
-3.51269
-3.2476
-2.93691
-2.56658
-2.10957
-1.51031
-0.618946
1.26718
-4.64214
-4.60897
-4.54274
-4.44361
-4.31179
-4.14747
-3.95055
-3.72031
-3.4545
-3.14767
-2.78753
-2.34776
-1.77893
-1.05521
-0.855194
-4.89862
-4.86402
-4.795
-4.69191
-4.55531
-4.38596
-4.18478
-3.95262
-3.6899
-3.39546
-3.06379
-2.67559
-2.15511
-1.12779
2.64146
-5.17913
-5.14298
-5.07091
-4.96347
-4.82156
-4.64657
-4.4405
-4.20617
-3.94732
-3.6691
-3.37929
-3.09528
-2.88326
-3.1045
-6.05712
-5.48475
-5.44687
-5.37139
-5.25898
-5.1108
-4.92875
-4.71587
-4.47673
-4.21821
-3.95077
-3.69079
-3.46497
-3.31054
-3.1844
-1.99335
-5.81668
-5.77687
-5.69753
-5.57933
-5.42354
-5.23236
-5.00947
-4.76074
-4.49531
-4.22727
-3.97855
-3.78509
-3.71818
-4.00382
-5.8976
-6.17625
-6.13432
-6.05065
-5.92579
-5.76085
-5.55799
-5.32102
-5.05634
-4.77421
-4.49037
-4.22792
-4.01734
-3.881
-3.70646
-2.32182
-6.56495
-6.52075
-6.43239
-6.30008
-6.12451
-5.90731
-5.65181
-5.36406
-5.05429
-4.73862
-4.44127
-4.19803
-4.07035
-4.24944
-5.88281
-6.98434
-6.93784
-6.84464
-6.70442
-6.51707
-6.28323
-6.00498
-5.68709
-5.33847
-4.97414
-4.61705
-4.29847
-4.04667
-3.78251
-2.47973
-7.43601
-7.38738
-7.28955
-7.14147
-6.94194
-6.68998
-6.3857
-6.03145
-5.63357
-5.20463
-4.76608
-4.35253
-4.03157
-4.03684
-5.62392
-7.92146
-7.87109
-7.76934
-7.61427
-7.4032
-7.13306
-6.80111
-6.40611
-5.95024
-5.4418
-4.89776
-4.3423
-3.78992
-3.19269
-2.41827
-8.44189
-8.39048
-8.28616
-8.12596
-7.90548
-7.61908
-7.26032
-6.82304
-6.30342
-5.7037
-5.03735
-4.32995
-3.57941
-2.4716
1.32519
-8.99802
-8.94661
-8.84179
-8.67952
-8.45355
-8.15534
-7.77405
-7.29714
-6.71222
-6.01186
-5.20545
-4.34754
-3.61701
-3.61785
-6.95696
-9.58986
-9.53982
-9.43732
-9.2773
-9.05179
-8.74928
-8.35418
-7.84627
-7.20117
-6.39369
-5.40932
-4.27667
-3.14672
-2.44584
-2.89566
-10.2165
-10.1695
-10.0728
-9.92058
-9.7035
-9.40754
-9.01265
-8.49067
-7.8029
-6.89834
-5.71617
-4.20393
-2.37846
-0.474742
0.853265
-10.8757
-10.8337
-10.7468
-10.6089
-10.41
-10.1345
-9.75937
-9.25019
-8.55519
-7.59576
-6.25224
-4.3487
-1.66454
1.89616
5.52443
-11.564
-11.529
-11.4562
-11.3397
-11.1696
-10.9307
-10.5992
-10.1387
-9.49112
-8.55992
-7.17722
-5.03557
-1.55934
4.22014
12.7152
-12.2768
-12.2506
-12.1959
-12.1076
-11.9771
-11.791
-11.5286
-11.1573
-10.624
-9.83762
-8.62924
-6.64923
-3.05361
4.65828
25.8054
-146.467
-88.0196
-61.5423
-48.8918
-42.1171
-38.0721
-35.445
-33.6346
-32.3374
-31.3873
-30.6871
-30.1774
-29.821
-29.5946
-29.4845
-182.17
-82.3642
-54.6727
-43.9972
-38.6428
-35.4632
-33.3717
-31.907
-30.8417
-30.0515
-29.4632
-29.0316
-28.7281
-28.5346
-28.4403
46.8962
-26.6297
-35.9864
-35.4073
-33.6583
-32.0987
-30.8632
-29.9021
-29.1549
-28.5754
-28.1304
-27.7969
-27.5589
-27.4056
-27.3306
-7.05577
-15.4571
-24.2
-27.6298
-28.5422
-28.509
-28.1642
-27.7485
-27.3517
-27.0058
-26.7202
-26.4959
-26.3307
-26.2224
-26.1687
25.8912
-4.04719
-16.1034
-21.6003
-24.083
-25.1356
-25.5143
-25.5818
-25.5133
-25.3944
-25.2675
-25.1537
-25.0632
-25.0011
-24.9696
-1.436
-5.05549
-12.5618
-17.6642
-20.6168
-22.2303
-23.0807
-23.5096
-23.7097
-23.7885
-23.8058
-23.7953
-23.776
-23.7586
-23.7487
11.4424
-3.3646
-10.6896
-15.221
-18.0805
-19.855
-20.9396
-21.5962
-21.9905
-22.2253
-22.3633
-22.443
-22.4875
-22.5109
-22.5208
-3.08859
-6.86952
-10.7575
-13.9386
-16.2979
-17.9586
-19.096
-19.8649
-20.3821
-20.7292
-20.9614
-21.115
-21.2138
-21.2725
-21.2998
-14.9939
-10.3001
-11.3162
-13.2271
-15.0003
-16.4256
-17.5081
-18.3085