/*--------------------------------*- C++ -*----------------------------------*\
| =========                 |                                                 |
| \\      /  F ield         | OpenFOAM: The Open Source CFD Toolbox           |
|  \\    /   O peration     | Version:  5.x                                   |
|   \\  /    A nd           | Web:      www.OpenFOAM.org                      |
|    \\/     M anipulation  |                                                 |
\*---------------------------------------------------------------------------*/
FoamFile
{
    version     2.0;
    format      ascii;
    class       volScalarField;
    location    "9.9999";
    object      gradTy;
}
// * * * * * * * * * * * * * * * * * * * * * * * * * * * * * * * * * * * * * //

dimensions      [0 -1 0 1 0 0 0];

internalField   nonuniform List<scalar> 
6300
(
32284.1
32252.2
32220.2
32188.1
32155.7
32123
32089.9
32056.4
32022.4
31987.9
31952.8
31917.2
31880.9
31844
31806.6
0.0534112
0.159734
0.264525
0.366652
0.464822
0.557543
0.643102
0.719583
0.784934
0.837091
0.874165
0.89469
0.897914
0.884072
0.854579
0.0895716
0.267921
0.443832
0.615478
0.780755
0.937192
1.08192
1.21166
1.32287
1.41189
1.4753
1.51034
1.51544
1.4908
1.43876
0.126526
0.37855
0.627405
0.870679
1.10553
1.32856
1.53572
1.72229
1.883
2.01232
2.10482
2.15594
2.16275
2.12497
2.04574
0.164507
0.49235
0.816561
1.1343
1.44214
1.73582
2.01012
2.25878
2.47457
2.64957
2.77576
2.84587
2.85469
2.80061
2.68718
0.203658
0.609785
1.01219
1.40784
1.79291
2.16246
2.51017
2.82815
3.10693
3.33568
3.50282
3.59714
3.60958
3.53564
3.37815
0.243997
0.730946
1.21456
1.69196
2.15921
2.61097
3.03997
3.43676
3.78937
4.08344
4.30273
4.43033
4.45093
4.35427
4.13986
0.285381
0.855442
1.42317
1.98622
2.54103
3.08223
3.60202
4.08956
4.53037
4.90604
5.19439
5.37058
5.40961
5.29072
5.00451
0.327465
0.982272
1.63646
2.28874
2.93648
3.57491
4.19634
4.78912
5.33657
5.81601
6.19826
6.44807
6.52631
6.39459
6.02398
0.369674
1.10973
1.85165
2.59583
3.34124
4.08461
4.81934
5.53405
6.21082
6.82325
7.33465
7.69726
7.85314
7.73756
7.28511
0.411178
1.23532
2.06459
2.90169
3.74805
4.60298
5.4624
6.31696
7.14948
7.93157
8.61995
9.15336
9.45182
9.41802
8.93351
0.450903
1.35577
2.26971
3.1983
4.14631
5.11689
6.11033
7.12194
8.1386
9.13371
10.0604
10.8449
11.3838
11.5512
11.1948
0.487568
1.46717
2.46016
3.47551
4.52201
5.60795
6.74013
7.92189
9.14933
10.4044
11.6435
12.7828
13.6898
14.2148
14.3064
0.51977
1.56516
2.62828
3.72156
4.85828
6.05279
7.32036
8.6762
10.1325
11.6911
13.3267
14.9548
16.3837
17.3293
17.9369
0.546124
1.64542
2.76625
3.92417
5.13677
6.42458
7.81233
9.33004
11.0134
12.9007
15.0181
17.3284
19.572
20.8221
18.5454
31771.7
31739.7
31707.3
31674.5
31641.4
31608.1
31574.4
31540.6
31506.5
31472.2
31437.7
31403
31368.2
31333.3
31298.4
31263.3
31228.2
31193.1
31158
31123
31087.9
31052.9
31018
30983
30948.1
30913.3
30878.5
30843.8
30809.1
30774.5
30740
30705.5
30671.2
30636.9
30602.8
30568.7
30534.8
30501
30467.2
30433.6
30400
30366.6
30333.2
30299.9
30266.7
30233.6
30200.6
30167.8
30135
30102.4
30069.8
30037.4
30005.1
29972.9
29940.8
29908.8
29876.8
29845
29813.2
29781.5
29750
29718.5
29687.1
29655.8
29624.6
29593.6
29562.6
29531.7
29500.9
29470.2
29439.5
29409
29378.4
29348
29317.6
29287.3
29257
29226.8
29196.6
29166.5
29136.5
29106.4
29076.4
29046.4
29016.3
28986.2
28956
28925.7
28895.4
28864.9
0.815588
0.77335
0.726597
0.677544
0.628041
0.579328
0.531899
0.485529
0.439446
0.392623
0.344123
0.293421
0.240648
0.186684
0.133094
0.0819124
0.0353033
-0.00481341
-0.0371119
-0.0611082
-0.0772624
-0.0869212
-0.0921135
-0.0952357
-0.0986787
-0.104456
-0.113897
-0.127441
-0.144598
-0.164045
-0.183889
-0.202013
-0.216475
-0.225854
-0.229508
-0.22768
-0.221456
-0.212572
-0.203123
-0.195209
-0.190587
-0.190377
-0.194877
-0.203512
-0.214937
-0.227277
-0.238463
-0.246599
-0.250295
-0.248907
-0.242635
-0.232481
-0.220067
-0.207358
-0.196324
-0.188611
-0.185259
-0.18653
-0.191858
-0.199947
-0.208997
-0.217023
-0.222203
-0.223198
-0.219368
-0.210875
-0.198634
-0.184139
-0.169194
-0.155586
-0.144763
-0.137565
-0.134042
-0.133405
-0.134117
-0.134112
-0.131104
-0.12295
-0.107994
-0.0853324
-0.054997
-0.0180029
0.0237088
0.0674335
0.109951
0.147842
0.177842
0.197214
0.204082
0.197679
1.37017
1.29614
1.2147
1.13
1.04552
0.963535
0.884834
0.808765
0.733579
0.657018
0.577003
0.492287
0.402929
0.310499
0.217956
0.129215
0.0484876
-0.0204761
-0.0750731
-0.114334
-0.139116
-0.151989
-0.156835
-0.158239
-0.160776
-0.168296
-0.183325
-0.20668
-0.237369
-0.272788
-0.309217
-0.34251
-0.368865
-0.385517
-0.391219
-0.386451
-0.37332
-0.355187
-0.336101
-0.320119
-0.310636
-0.309816
-0.318228
-0.334753
-0.356769
-0.380621
-0.402275
-0.41804
-0.425225
-0.422592
-0.410548
-0.391048
-0.367241
-0.342929
-0.321926
-0.307415
-0.301415
-0.304432
-0.31537
-0.331707
-0.349941
-0.366209
-0.376974
-0.379644
-0.373006
-0.357399
-0.334626
-0.307607
-0.279861
-0.254881
-0.235514
-0.223441
-0.218823
-0.220205
-0.224679
-0.228299
-0.226689
-0.215735
-0.192235
-0.154414
-0.102235
-0.0374843
0.0363439
0.114346
0.190656
0.259001
0.313357
0.348627
0.361293
0.349902
1.94158
1.82966
1.70752
1.58217
1.45944
1.34304
1.234
1.13075
1.02971
0.926399
0.816664
0.697843
0.569637
0.434479
0.297343
0.164979
0.0447307
-0.0568282
-0.13512
-0.188409
-0.218121
-0.228619
-0.226514
-0.219613
-0.215701
-0.221324
-0.240762
-0.275361
-0.32333
-0.380079
-0.439062
-0.492997
-0.53523
-0.560948
-0.568007
-0.557267
-0.532387
-0.499176
-0.46461
-0.435675
-0.418214
-0.41596
-0.4299
-0.458088
-0.49596
-0.537134
-0.574567
-0.601839
-0.614294
-0.609831
-0.589201
-0.555819
-0.515144
-0.473739
-0.438182
-0.413968
-0.404588
-0.410933
-0.431108
-0.460738
-0.49372
-0.523323
-0.543404
-0.549499
-0.53956
-0.514246
-0.476734
-0.432126
-0.386548
-0.346094
-0.315768
-0.298583
-0.294966
-0.302557
-0.316473
-0.330019
-0.335733
-0.326587
-0.2971
-0.244176
-0.167578
-0.0700397
0.0429652
0.163695
0.282826
0.390303
0.476351
0.532589
0.553144
0.535551
2.53785
2.37793
2.20502
2.0306
1.86428
1.71197
1.57487
1.44956
1.32912
1.20505
1.06941
0.916921
0.746359
0.56131
0.369857
0.183295
0.0140582
-0.126687
-0.231175
-0.296439
-0.324794
-0.323401
-0.3031
-0.276683
-0.256897
-0.254459
-0.27637
-0.324788
-0.396649
-0.484154
-0.576175
-0.660335
-0.725379
-0.763246
-0.770428
-0.748446
-0.703451
-0.645116
-0.585011
-0.534707
-0.503893
-0.498785
-0.521057
-0.56748
-0.630396
-0.699034
-0.761494
-0.806973
-0.827727
-0.820351
-0.786217
-0.731095
-0.664095
-0.596128
-0.538106
-0.499157
-0.485118
-0.497517
-0.533233
-0.584942
-0.642364
-0.694146
-0.729976
-0.742443
-0.728255
-0.688657
-0.62906
-0.55804
-0.485857
-0.422725
-0.377097
-0.354187
-0.354968
-0.375799
-0.408802
-0.443016
-0.466173
-0.466732
-0.435716
-0.368025
-0.263078
-0.124866
0.038463
0.215347
0.391776
0.552464
0.682273
0.767935
0.79993
0.774136
3.16899
2.94494
2.70477
2.46743
2.24898
2.05903
1.89881
1.76139
1.6338
1.50035
1.34646
1.16202
0.943944
0.697364
0.435325
0.17666
-0.0576445
-0.248762
-0.383714
-0.457624
-0.474304
-0.445415
-0.388496
-0.324205
-0.273114
-0.252531
-0.273807
-0.340462
-0.447438
-0.581729
-0.724608
-0.855201
-0.954665
-1.00973
-1.01485
-0.972764
-0.893724
-0.793606
-0.6913
-0.605675
-0.552556
-0.542183
-0.577435
-0.653122
-0.756591
-0.869833
-0.972873
-1.04771
-1.08167
-1.0694
-1.01346
-0.923474
-0.81444
-0.704198
-0.610564
-0.548477
-0.527576
-0.550524
-0.612329
-0.700918
-0.799131
-0.887941
-0.950189
-0.973767
-0.953543
-0.891864
-0.797835
-0.685631
-0.572129
-0.47415
-0.40571
-0.375674
-0.3861
-0.431515
-0.499384
-0.571934
-0.629156
-0.652342
-0.627145
-0.545521
-0.406476
-0.215861
0.0144421
0.267655
0.523396
0.759091
0.951767
1.08056
1.12993
1.0928
3.84903
3.53522
3.20052
2.87712
2.59269
2.36332
2.18995
2.05912
1.94693
1.82511
1.6675
1.45558
1.18258
0.855679
0.495936
0.134946
-0.19154
-0.451717
-0.624157
-0.701223
-0.689438
-0.607795
-0.48451
-0.35272
-0.245403
-0.19033
-0.205898
-0.298074
-0.458893
-0.666941
-0.890732
-1.09489
-1.24789
-1.32814
-1.32724
-1.2503
-1.11435
-0.945246
-0.773572
-0.629832
-0.539665
-0.519883
-0.575589
-0.698759
-0.868713
-1.05532
-1.22486
-1.34732
-1.40216
-1.38136
-1.28971
-1.14329
-0.966527
-0.78835
-0.637595
-0.538488
-0.506894
-0.547578
-0.652856
-0.803033
-0.96944
-1.11998
-1.22609
-1.26817
-1.23852
-1.14165
-0.99278
-0.815089
-0.636048
-0.483039
-0.379019
-0.338898
-0.366845
-0.454894
-0.583226
-0.722926
-0.841146
-0.907624
-0.899826
-0.805704
-0.624135
-0.364006
-0.0425686
0.316326
0.683879
1.02767
1.31325
1.50756
1.5845
1.53126
4.60032
4.15564
3.68007
3.23077
2.8572
2.58702
2.41987
2.33004
2.27396
2.20144
2.06678
1.83712
1.49883
1.06129
0.558342
0.0435433
-0.420923
-0.781018
-1.00194
-1.07277
-1.00517
-0.830144
-0.592771
-0.345997
-0.142461
-0.0264061
-0.0276734
-0.156843
-0.402338
-0.729484
-1.08513
-1.40826
-1.64587
-1.76341
-1.74911
-1.61281
-1.38273
-1.10059
-0.815616
-0.576848
-0.42542
-0.388881
-0.476597
-0.677026
-0.956853
-1.26539
-1.54465
-1.7443
-1.83158
-1.79533
-1.64483
-1.40679
-1.12065
-0.833016
-0.590255
-0.431279
-0.38213
-0.451617
-0.628727
-0.881779
-1.16259
-1.41602
-1.59418
-1.66584
-1.62032
-1.46633
-1.22922
-0.946492
-0.662481
-0.421383
-0.260312
-0.204101
-0.261044
-0.420263
-0.650699
-0.904846
-1.12765
-1.26986
-1.29681
-1.19181
-0.954921
-0.600434
-0.153516
0.352528
0.878582
1.38007
1.80616
2.10356
2.22655
2.15017
5.46292
4.82059
4.12184
3.47546
2.97297
2.6624
2.5385
2.55239
2.62472
2.66727
2.60287
2.37509
1.95799
1.36112
0.63781
-0.120338
-0.800603
-1.31073
-1.59587
-1.64364
-1.47561
-1.14227
-0.71457
-0.277014
0.0864524
0.30646
0.334729
0.151895
-0.228208
-0.750993
-1.32633
-1.84478
-2.21676
-2.38851
-2.34669
-2.11035
-1.72609
-1.26
-0.79113
-0.398095
-0.145736
-0.0789527
-0.215299
-0.540959
-1.00365
-1.51763
-1.97907
-2.30311
-2.43889
-2.37383
-2.12602
-1.73954
-1.27695
-0.81306
-0.422263
-0.165921
-0.0865288
-0.200682
-0.495239
-0.920551
-1.39518
-1.82044
-2.11563
-2.23228
-2.15829
-1.9107
-1.53135
-1.07974
-0.627117
-0.244489
0.00939334
0.0936404
-0.00796331
-0.283077
-0.684026
-1.13191
-1.53018
-1.79809
-1.88381
-1.76783
-1.45505
-0.96996
-0.349606
0.359919
1.10866
1.84106
2.48437
2.95073
3.15568
3.0467
6.51613
5.56667
4.48805
3.51301
2.81261
2.46908
2.45875
2.69062
3.01838
3.28714
3.37424
3.18573
2.67602
1.84303
0.767448
-0.396372
-1.42529
-2.1644
-2.53163
-2.52528
-2.18409
-1.59029
-0.850562
-0.101344
0.521946
0.915426
1.00112
0.7447
0.151381
-0.696823
-1.64947
-2.49221
-3.07598
-3.32114
-3.22437
-2.82092
-2.18729
-1.4234
-0.657447
-0.0167722
0.401176
0.52348
0.318611
-0.207571
-0.976589
-1.84553
-2.61134
-3.13301
-3.33539
-3.21552
-2.80687
-2.18189
-1.43511
-0.687855
-0.0606554
0.354244
0.487777
0.310037
-0.173463
-0.888313
-1.69884
-2.41216
-2.89417
-3.07322
-2.94625
-2.54479
-1.93756
-1.21443
-0.490962
0.117803
0.523375
0.659008
0.494973
0.0353115
-0.649773
-1.43039
-2.12045
-2.58864
-2.76128
-2.62722
-2.20329
-1.53427
-0.674099
0.310842
1.36225
2.43036
3.41738
4.17433
4.5369
4.38557
7.93078
6.49857
4.70411
3.15433
2.13877
1.79633
2.03037
2.69081
3.49702
4.16862
4.54251
4.45889
3.85959
2.6743
1.02415
-0.866663
-2.4673
-3.55356
-4.00538
-3.88905
-3.25636
-2.24842
-1.00023
0.255661
1.28836
1.9676
2.16015
1.82264
0.898003
-0.492258
-2.13087
-3.51258
-4.42279
-4.74615
-4.5437
-3.86293
-2.83607
-1.58977
-0.343367
0.685276
1.37381
1.59704
1.31521
0.475499
-0.80564
-2.32193
-3.59519
-4.42268
-4.69592
-4.47306
-3.79925
-2.79962
-1.59394
-0.389778
0.606663
1.27958
1.51031
1.26105
0.481458
-0.718298
-2.14249
-3.33698
-4.10895
-4.35486
-4.12946
-3.47518
-2.51065
-1.34962
-0.189627
0.772692
1.42607
1.6559
1.42362
0.67831
-0.477947
-1.85928
-3.03021
-3.80481
-4.08037
-3.90404
-3.30447
-2.37384
-1.17825
0.166048
1.59181
3.13642
4.6817
5.96582
6.65813
6.46843
10.1006
7.95498
4.56569
2.02148
0.49486
0.294069
0.988362
2.4813
4.16958
5.47884
6.36963
6.47465
5.88699
4.17497
1.6274
-1.75479
-4.25004
-5.85629
-6.29724
-5.9964
-4.869
-3.25251
-1.16097
0.934053
2.56376
3.72062
4.08247
3.74603
2.31513
0.0699214
-2.98219
-5.21191
-6.61465
-6.92835
-6.55179
-5.40331
-3.80085
-1.75627
0.28428
1.87708
3.01649
3.39789
3.11515
1.79422
-0.296068
-3.14832
-5.22093
-6.51049
-6.77084
-6.37996
-5.2608
-3.71408
-1.75059
0.207418
1.73986
2.84165
3.22405
2.97573
1.74142
-0.22509
-2.91692
-4.8702
-6.08128
-6.31517
-5.93028
-4.85232
-3.36671
-1.48332
0.396365
1.87246
2.93868
3.31823
3.09101
1.91308
0.0179964
-2.59117
-4.51068
-5.73957
-6.05017
-5.79032
-4.88236
-3.59497
-1.89655
-0.0960495
1.65023
3.84153
6.32207
8.60953
10.0495
9.91112
13.9546
11.2319
3.22168
-0.591416
-3.06644
-2.49925
-1.2041
1.99043
5.38795
7.39169
9.32829
9.4879
9.53349
6.87885
3.43251
-3.92013
-7.3129
-9.83708
-9.65729
-9.29399
-7.18593
-4.94065
-1.32676
2.2825
4.52007
6.61846
7.01031
7.24544
4.90485
1.79404
-5.01775
-8.1021
-10.3747
-10.1045
-9.67147
-7.5974
-5.40229
-1.91699
1.5567
3.72175
5.75068
6.15513
6.41006
4.22084
1.31072
-5.09739
-7.97427
-10.0803
-9.78353
-9.33559
-7.33803
-5.22869
-1.89935
1.41743
3.4932
5.43963
5.84604
6.11022
4.05575
1.31258
-4.75487
-7.4722
-9.46077
-9.16652
-8.7291
-6.81647
-4.79556
-1.6117
1.56354
3.56244
5.4401
5.8543
6.12744
4.18056
1.54221
-4.31614
-6.98566
-8.99668
-8.84143
-8.60988
-7.00663
-5.40798
-2.76183
-0.280068
1.06781
4.13014
8.24046
12.4737
15.7136
16.1836
21.3771
22.3026
-4.0035
-5.10365
-11.0105
-6.34205
-6.13203
1.20713
8.61335
9.40122
14.8458
12.6654
17.0683
10.7228
10.8627
-11.7877
-11.6265
-17.7116
-13.2816
-15.104
-9.70047
-8.59958
-1.48586
5.60617
6.67678
11.9737
10.1638
14.4539
8.60369
8.84757
-12.4208
-12.1611
-17.7966
-13.5151
-15.1542
-9.9658
-8.8616
-2.06097
4.71354
5.76243
10.8241
9.12765
13.2246
7.68555
7.95461
-12.1314
-11.8376
-17.1104
-13.0138
-14.5227
-9.57621
-8.50008
-2.03004
4.4145
5.43278
10.2553
8.67283
12.5836
7.36178
7.63724
-11.417
-11.1236
-16.1275
-12.224
-13.6522
-8.93656
-7.89905
-1.72765
4.42464
5.42699
10.0489
8.59351
12.3607
7.44374
7.70324
-10.633
-10.4089
-15.3732
-11.7426
-13.4047
-9.12426
-8.72938
-3.3904
1.16871
-1.9834
2.90964
9.98189
17.7682
25.3661
29.6171
32.2078
72.6077
-47.5058
-2.67587
-34.1761
-3.76317
-21.3257
0.327297
21.3691
4.70498
31.3435
6.36265
40.081
5.22772
51.111
-52.5039
-6.94557
-40.7278
-7.90224
-31.3196
-6.01914
-20.917
-1.61374
17.6007
2.74757
27.5629
4.53331
36.2644
3.52702
46.8788
-50.8244
-7.73118
-39.4988
-8.40013
-30.4686
-6.45292
-20.5238
-2.16733
16.1153
2.02464
25.6294
3.75771
33.9147
2.78663
43.9098
-48.5124
-7.685
-37.6322
-8.17236
-29.0055
-6.24109
-19.5387
-2.12402
15.2254
1.89428
24.2939
3.5894
32.2079
2.7517
41.7966
-45.9397
-7.14706
-35.6208
-7.60385
-27.4226
-5.7601
-18.3953
-1.81611
14.7016
2.07935
23.409
3.81213
31.0992
3.25277
40.6422
-43.677
-6.36061
-34.1265
-7.02214
-26.7568
-5.64672
-19.1703
-2.89599
13.7216
-16.6197
-1.44892
10.695
23.3341
39.8384
66.3927
28831.3
28794.5
28757.7
28720.7
28683.8
28646.8
28609.9
28573.1
28536.4
28499.8
28463.3
28426.9
28390.6
28354.3
28318.1
0.176535
0.137564
0.0873945
0.0317807
-0.0234241
-0.0730618
-0.113183
-0.141253
-0.156116
-0.157798
-0.14725
-0.126081
-0.0963405
-0.06034
-0.0205379
0.311836
0.241685
0.151709
0.052542
-0.0451787
-0.132289
-0.201974
-0.250051
-0.274802
-0.27656
-0.257197
-0.219648
-0.167516
-0.104788
-0.0356445
0.47576
0.36563
0.225212
0.071856
-0.0775448
-0.208943
-0.312376
-0.382174
-0.416482
-0.416442
-0.385331
-0.327799
-0.249289
-0.15565
-0.052897
0.684589
0.519862
0.311652
0.0872155
-0.127913
-0.313562
-0.456411
-0.549787
-0.592508
-0.587396
-0.539887
-0.456926
-0.346192
-0.215625
-0.0731906
0.960459
0.717579
0.41432
0.0932677
-0.207761
-0.460981
-0.649918
-0.768057
-0.816368
-0.800745
-0.729894
-0.613827
-0.462928
-0.287467
-0.0974312
1.33483
0.975675
0.534782
0.0792969
-0.335416
-0.672684
-0.914222
-1.05615
-1.10416
-1.06932
-0.965117
-0.805561
-0.604227
-0.373882
-0.126499
1.85408
1.31551
0.669836
0.0245549
-0.540516
-0.980114
-1.27813
-1.43817
-1.4748
-1.40727
-1.25569
-1.03907
-0.774537
-0.477335
-0.161181
2.58891
1.76244
0.804498
-0.110396
-0.871087
-1.42912
-1.78003
-1.9436
-1.94959
-1.82925
-1.61131
-1.32049
-0.977515
-0.59974
-0.202069
3.65079
2.34087
0.896109
-0.39955
-1.40431
-2.08525
-2.46926
-2.60663
-2.5507
-2.34884
-2.03981
-1.65407
-1.21529
-0.742039
-0.249425
5.221
3.05413
0.838624
-0.979599
-2.26136
-3.03832
-3.40511
-3.46294
-3.29774
-2.97561
-2.54501
-2.04069
-1.48754
-0.903698
-0.303019
7.59726
3.81601
0.383861
-2.09611
-3.62322
-4.40154
-4.64994
-4.54229
-4.2017
-3.71086
-3.12393
-2.47615
-1.79048
-1.08219
-0.361973
11.2306
4.22881
-1.02309
-4.16546
-5.73387
-6.29468
-6.25082
-5.85457
-5.25592
-4.54217
-3.76372
-2.94949
-2.11602
-1.27263
-0.424652
16.4623
2.89172
-4.53955
-7.80879
-8.85212
-8.79248
-8.20408
-7.36926
-6.42524
-5.4382
-4.43927
-3.44209
-2.45147
-1.46766
-0.488654
20.9139
-4.58466
-12.218
-13.678
-13.0733
-11.819
-10.4038
-8.99313
-7.63759
-6.34611
-5.11305
-3.92814
-2.7801
-1.6579
-0.550954
0.564396
1.70105
2.86177
4.06436
5.32946
6.68241
8.1557
9.79283
11.6539
13.8234
16.4173
19.5717
23.3161
26.8251
24.2742
0.575021
1.73328
2.91675
4.14422
5.43786
6.82538
8.3436
10.0441
12.0038
14.3446
17.2761
21.1977
26.9943
37.074
59.7835
0.579941
1.748
2.94116
4.17815
5.48104
6.8776
8.40488
10.1155
12.0891
14.4555
17.4456
21.515
27.6837
38.5911
62.2487
0.579181
1.74529
2.93514
4.16629
5.45916
6.83902
8.33884
10.0042
11.9015
14.1334
16.8652
20.3682
25.0449
31.1204
35.9084
0.573037
1.72609
2.90045
4.11155
5.37687
6.71712
8.15783
9.73171
11.4817
13.4644
15.7504
18.4076
21.4197
24.4082
26.0758
0.562044
1.69209
2.84022
4.01915
5.24254
6.52543
7.88431
9.3369
10.9002
12.5849
14.3788
16.2053
17.822
18.5941
16.9505
0.546909
1.64553
2.75861
3.89585
5.06689
6.28093
7.5457
8.86515
10.2344
11.6292
12.9842
14.1493
14.8172
14.4594
12.658
0.528435
1.58894
2.66022
3.74906
4.86135
6.00119
7.16911
8.35877
9.55077
10.7012
11.721
12.4382
12.5261
11.3278
7.12622
0.507438
1.52484
2.54963
3.58598
4.63667
5.70192
6.77738
7.85073
8.89595
9.86392
10.668
11.1636
11.1286
10.2816
8.57422
0.484683
1.45562
2.43101
3.41294
4.40187
5.39555
6.3871
7.3622
8.29473
9.14042
9.829
10.2574
10.295
9.8328
8.94264
0.460838
1.3833
2.30785
3.23501
4.16377
5.09063
6.00821
6.90322
7.75377
8.52599
9.17068
9.62252
9.80843
9.68117
9.31064
0.436447
1.30951
2.18288
3.05597
3.92698
4.79215
5.64497
6.47508
7.26719
8.00009
8.64624
9.17224
9.5393
9.69842
9.56152
0.411936
1.23553
2.05809
2.87837
3.69422
4.50225
5.29749
6.07331
6.82169
7.5344
8.20521
8.8323
9.41453
9.92121
10.206
0.387623
1.16225
1.93489
2.70385
3.4669
4.22121
4.96348
5.69057
6.40095
7.09778
7.79452
8.52347
9.34217
10.2981
11.114
0.36374
1.09034
1.81424
2.53342
3.24564
3.94852
4.64001
5.31943
5.9896
6.6612
7.36142
8.15229
9.17451
10.7721
13.9157
0.340468
1.02032
1.69687
2.36784
3.03086
3.68373
4.32493
4.95471
5.57725
6.20473
6.86535
7.62042
8.60727
10.1725
13.3842
0.31795
0.952581
1.58339
2.20777
2.82312
3.42704
4.01777
4.595
5.16145
5.72524
6.30369
6.92756
7.63836
8.42941
8.82861
0.296311
0.887501
1.47437
2.05397
2.62332
3.17952
3.71997
4.24279
4.74749
5.23557
5.71047
6.17432
6.61372
6.95844
7.02861
0.275669
0.825423
1.37039
1.90728
2.43266
2.94294
3.4344
3.90316
4.34508
4.75503
5.12493
5.43804
5.6548
5.67812
5.2557
0.256126
0.766668
1.27203
1.7686
2.25249
2.71943
3.16459
3.58218
3.96485
4.30232
4.57882
4.76866
4.83023
4.70732
4.39226
0.23777
0.711509
1.17978
1.63871
2.08408
2.51106
2.91392
3.28546
3.61601
3.89193
4.0929
4.18835
4.13376
3.86995
3.31362
0.220666
0.66015
1.09401
1.51825
1.92843
2.31943
2.68502
3.01718
3.30512
3.53358
3.68024
3.71225
3.58256
3.23571
2.69151
0.204847
0.612694
1.01493
1.40755
1.78611
2.14546
2.47931
2.77961
3.03555
3.23202
3.34722
3.34842
3.18218
2.73851
1.67027
0.190309
0.569136
0.942523
1.30661
1.65713
1.9892
2.29691
2.57286
2.80727
2.9869
3.09335
3.10087
2.97446
2.67504
2.22703
0.177015
0.529357
0.876578
1.21508
1.54097
1.84984
2.13658
2.39493
2.61703
2.79261
2.90818
2.94633
2.8869
2.71473
2.44065
0.164894
0.493133
0.816687
1.13232
1.43661
1.72586
1.99595
2.2422
2.45908
2.63998
2.77676
2.85956
2.87761
2.8252
2.7286
0.15385
0.460161
0.762296
1.05743
1.3427
1.61518
1.87188
2.10984
2.32613
2.518
2.68284
2.81774
2.91726
2.96635
2.91753
0.14377
0.43009
0.712764
0.989399
1.25768
1.51544
1.76084
1.99253
2.21014
2.41477
2.60971
2.80048
2.99192
3.17549
3.30303
0.134536
0.402551
0.667426
0.927165
1.17995
1.4243
1.6593
1.885
2.10315
2.31828
2.53947
2.78276
3.07203
3.42353
3.72373
0.126035
0.377192
0.625654
0.869758
1.10809
1.33966
1.56421
1.78272
1.99827
2.21757
2.45388
2.73312
3.10893
3.70718
4.88381
0.118166
0.353706
0.586907
0.81636
1.04092
1.25988
1.47331
1.68249
1.89077
2.10505
2.33847
2.6164
2.99135
3.58918
4.78357
0.110849
0.331843
0.550762
0.76636
0.977629
1.18395
1.38536
1.58287
1.77912
1.97923
2.19215
2.43231
2.71897
3.05692
3.2961
0.104021
0.31142
0.516922
0.719367
0.917773
1.11144
1.30011
1.48413
1.66479
1.8445
2.02692
2.21592
2.41098
2.59323
2.70667
0.0976387
0.292314
0.485204
0.675178
0.861207
1.0424
1.21807
1.38773
1.55111
1.70789
1.85712
1.99533
2.11189
2.17732
2.10931
0.0916742
0.274449
0.455509
0.633728
0.807995
0.977205
1.14021
1.2957
1.442
1.57653
1.69497
1.78977
1.84829
1.85408
1.81078
0.086108
0.257775
0.427788
0.595022
0.758296
0.916316
1.06756
1.21006
1.34106
1.45633
1.54925
1.60939
1.62132
1.56493
1.41357
0.080923
0.242248
0.401997
0.559065
0.712244
0.860132
1.00098
1.13242
1.25103
1.35166
1.42628
1.46249
1.44179
1.34173
1.17239
0.0760996
0.227817
0.378068
0.525809
0.669866
0.808839
0.94093
1.06368
1.1735
1.26504
1.32999
1.35511
1.31737
1.16664
0.739758
0.0716111
0.214403
0.355883
0.495111
0.631019
0.762324
0.887374
1.0039
1.10867
1.19689
1.26137
1.29138
1.27143
1.18332
1.03812
0.0674216
0.201899
0.335263
0.466718
0.595369
0.720155
0.839733
0.952302
1.05534
1.14522
1.21669
1.26234
1.27281
1.23966
1.16285
0.0634864
0.190168
0.315969
0.440271
0.562404
0.681604
0.79696
0.907318
1.01115
1.10635
1.18993
1.25773
1.30448
1.32632
1.33467
0.0597533
0.17905
0.297717
0.415333
0.531476
0.645725
0.757659
0.866868
0.972957
1.07554
1.17414
1.26775
1.35347
1.42235
1.44646
0.0561661
0.16837
0.280195
0.391417
0.501865
0.611453
0.720252
0.828585
0.937201
1.0475
1.16181
1.28325
1.41414
1.54949
1.66441
0.0526684
0.157952
0.263091
0.368041
0.472852
0.577733
0.683169
0.790109
0.900276
1.01669
1.14452
1.29218
1.47173
1.69081
1.88974
0.0492078
0.147636
0.246119
0.344764
0.443791
0.543627
0.645045
0.749395
0.859013
0.977965
1.11347
1.27898
1.50186
1.84614
2.49373
0.0457387
0.137281
0.229037
0.321221
0.414169
0.508426
0.604888
0.705024
0.811273
0.927743
1.06158
1.22596
1.44768
1.79085
2.44598
0.0422248
0.126778
0.211659
0.297149
0.383639
0.471696
0.562181
0.656412
0.756438
0.865464
0.988495
1.13312
1.30917
1.51893
1.68539
0.0386393
0.116048
0.193858
0.272385
0.352022
0.433283
0.516875
0.603778
0.695357
0.793463
0.900419
1.01845
1.14727
1.27708
1.37971
0.0349641
0.105039
0.175561
0.246853
0.319278
0.393254
0.469273
0.547901
0.629746
0.715322
0.80466
0.896288
0.984701
1.05411
1.06005
0.0311872
0.09372
0.156729
0.220535
0.285458
0.351809
0.419863
0.489794
0.561547
0.634572
0.707316
0.776365
0.835335
0.875216
0.896949
0.0273005
0.0820711
0.137346
0.193443
0.250648
0.309184
0.369151
0.430425
0.492471
0.554021
0.612542
0.663448
0.699232
0.708934
0.674866
0.0232964
0.0700729
0.117392
0.165582
0.214917
0.265569
0.317535
0.370522
0.423742
0.47558
0.52306
0.561038
0.581248
0.573053
0.540646
0.0191649
0.0576989
0.0968336
0.136929
0.178274
0.221042
0.265213
0.310462
0.355977
0.400169
0.440183
0.470971
0.482996
0.453992
0.309029
0.014892
0.0449084
0.0756096
0.107409
0.140646
0.175544
0.212145
0.25022
0.289134
0.327665
0.363719
0.393939
0.41324
0.415464
0.405952
0.0104579
0.0316431
0.0536245
0.0768914
0.101866
0.128866
0.158058
0.189398
0.222563
0.256885
0.29131
0.324494
0.35535
0.385091
0.423266
0.00583699
0.0178257
0.0307479
0.04519
0.0616819
0.0806689
0.102482
0.127312
0.155194
0.186039
0.219768
0.256671
0.298241
0.348866
0.418138
0.00099779
0.00336068
0.00681693
0.012067
0.0197673
0.0305117
0.0448155
0.0631107
0.0857701
0.113194
0.146028
0.185614
0.23485
0.299698
0.392184
-0.0040962
-0.0118629
-0.0183584
-0.0227558
-0.024259
-0.0221146
-0.0156199
-0.00411719
0.0130422
0.0365983
0.0676048
0.107861
0.160625
0.231345
0.32548
-0.00948558
-0.0279684
-0.0449896
-0.0595868
-0.0708159
-0.077759
-0.0795296
-0.0752693
-0.0641231
-0.0451663
-0.0172355
0.0214282
0.0739373
0.146742
0.257911
-0.0152138
-0.0450881
-0.0733029
-0.0987549
-0.120347
-0.136992
-0.147624
-0.151199
-0.146708
-0.133157
-0.109523
-0.0746119
-0.0268357
0.0355045
0.107465
-0.0213262
-0.0633594
-0.103533
-0.140602
-0.17331
-0.2004
-0.220615
-0.232727
-0.235579
-0.228145
-0.209635
-0.179579
-0.137714
-0.0824026
0.000986466
-0.0278681
-0.0829212
-0.135919
-0.185475
-0.230174
-0.268578
-0.299228
-0.320683
-0.331587
-0.33082
-0.31776
-0.292738
-0.257921
-0.219797
-0.201475
-0.0348841
-0.103909
-0.170695
-0.233718
-0.291407
-0.342137
-0.384225
-0.415961
-0.435695
-0.442027
-0.434184
-0.412692
-0.380417
-0.343428
-0.306258
-0.042416
-0.126451
-0.208083
-0.285662
-0.357471
-0.421696
-0.476407
-0.51957
-0.549106
-0.563073
-0.560081
-0.540127
-0.506179
-0.467176
-0.445804
-0.0505009
-0.150662
-0.248284
-0.341613
-0.4288
-0.507857
-0.576605
-0.632639
-0.673324
-0.69589
-0.697751
-0.677276
-0.635444
-0.578672
-0.519647
-0.0591693
-0.176636
-0.291465
-0.401826
-0.505774
-0.601175
-0.68563
-0.756363
-0.810119
-0.843082
-0.850927
-0.829249
-0.775078
-0.691727
-0.6042
-0.0684432
-0.20444
-0.337746
-0.466493
-0.58868
-0.702093
-0.804179
-0.891873
-0.961351
-1.00771
-1.0246
-1.00378
-0.934972
-0.807676
-0.629656
-0.0783347
-0.234112
-0.387194
-0.535713
-0.677677
-0.810874
-0.932722
-1.04003
-1.12863
-1.19281
-1.22445
-1.21163
-1.13548
-0.958845
-0.568528
-0.0888455
-0.265655
-0.439808
-0.609483
-0.77276
-0.927533
-1.07136
-1.20118
-1.31287
-1.4005
-1.45518
-1.46347
-1.40575
-1.2584
-1.02597
-0.0999679
-0.299043
-0.495532
-0.687695
-0.873746
-1.05179
-1.21972
-1.37491
-1.5138
-1.63106
-1.71812
-1.76113
-1.73828
-1.61704
-1.34158
-0.111688
-0.334226
-0.55426
-0.77015
-0.980287
-1.18308
-1.37692
-1.55995
-1.72977
-1.88258
-2.01165
-2.10453
-2.13912
-2.08277
-1.92383
-0.123989
-0.371146
-0.615865
-0.856598
-1.09192
-1.3206
-1.54161
-1.75417
-1.95755
-2.15059
-2.33031
-2.48841
-2.6031
-2.61974
-2.39674
-0.13686
-0.40976
-0.680237
-0.9468
-1.20817
-1.46343
-1.71218
-1.95475
-2.19249
-2.42785
-2.66398
-2.90242
-3.13517
-3.32313
-3.37265
-0.1503
-0.450057
-0.747325
-1.0406
-1.32867
-1.61079
-1.88702
-2.15869
-2.42909
-2.70458
-2.99603
-3.32039
-3.69834
-4.12264
-4.33976
-0.164326
-0.492081
-0.817183
-1.13803
-1.4533
-1.76224
-2.06504
-2.3635
-2.66216
-2.97021
-3.30522
-3.70114
-4.22933
-5.06602
-6.75767
-0.178976
-0.535946
-0.889998
-1.23931
-1.58232
-1.91795
-2.24606
-2.56817
-2.8887
-3.21713
-3.57211
-3.99002
-4.54607
-5.41568
-7.0829
-0.194309
-0.581836
-0.966103
-1.34498
-1.71646
-2.07888
-2.43125
-2.77394
-3.10974
-3.4456
-3.79529
-4.18297
-4.64507
-5.21142
-5.75019
-0.210397
-0.629991
-1.04595
-1.45578
-1.8569
-2.24678
-2.62316
-2.98449
-3.33074
-3.66447
-3.99209
-4.32424
-4.67166
-5.02633
-5.31377
-0.22732
-0.680667
-1.13006
-1.57262
-2.00514
-2.42407
-2.82551
-3.20551
-3.56043
-3.88758
-4.18575
-4.45489
-4.6932
-4.88791
-4.993
-0.245142
-0.734091
-1.21891
-1.69642
-2.16283
-2.61349
-3.04276
-3.44395
-3.8094
-4.13082
-4.39956
-4.60696
-4.74501
-4.81173
-4.83968
-0.263889
-0.790381
-1.31283
-1.82794
-2.33145
-2.81776
-3.27951
-3.70719
-4.08896
-4.41063
-4.65595
-4.80719
-4.84636
-4.76247
-4.58732
-0.283529
-0.849476
-1.41186
-1.96751
-2.51202
-3.0391
-3.5399
-4.00231
-4.41026
-4.74345
-4.97768
-5.08525
-5.03315
-4.77659
-4.31999
-0.30394
-0.911046
-1.51556
-2.11482
-2.70469
-3.27867
-3.82697
-4.33526
-4.78346
-5.14501
-5.38735
-5.4742
-5.36192
-4.92963
-3.47097
-0.324889
-0.974415
-1.6229
-2.26867
-2.90838
-3.53608
-4.14182
-4.70992
-5.21685
-5.62934
-5.90499
-6.00144
-5.91292
-5.79541
-6.42979
-0.346013
-1.03851
-1.73214
-2.42671
-3.12041
-3.80873
-4.4828
-5.12707
-5.71581
-6.20871
-6.54708
-6.65712
-6.48404
-6.13904
-6.46124
-0.366811
-1.10181
-1.84071
-2.58535
-3.33619
-4.09127
-4.84449
-5.58279
-6.28131
-6.89538
-7.34773
-7.50941
-7.17456
-6.01932
-3.39221
-0.386656
-1.1624
-1.9453
-2.7397
-3.54903
-4.37509
-5.21653
-6.06614
-6.90546
-7.69437
-8.35023
-8.70652
-8.43479
-6.92173
-3.21022
-0.404813
-1.21801
-2.04192
-2.88367
-3.75025
-4.64823
-5.58291
-6.55662
-7.5646
-8.58575
-9.56076
-10.3398
-10.5571
-9.35085
-4.90941
-0.420491
-1.26618
-2.12614
-3.01038
-3.92967
-4.89587
-5.92219
-7.0233
-8.21461
-9.50918
-10.9074
-12.3631
-13.6678
-14.0267
-10.3429
-0.432899
-1.30444
-2.19351
-3.11276
-4.07652
-5.10175
-6.20953
-7.42735
-8.79289
-10.3606
-12.2142
-14.4912
-17.4356
-21.5098
-27.5833
-11.3081
-25.8067
-24.3879
-20.8276
-17.5212
-14.7497
-12.4289
-10.443
-8.69975
-7.13222
-5.69212
-4.34389
-3.06039
-1.81987
-0.603956
-111.196
-57.9785
-37.4181
-27.2629
-21.2088
-17.0929
-14.0255
-11.5817
-9.53464
-7.75165
-6.14968
-4.67324
-3.28286
-1.94861
-0.646112
-123.628
-67.472
-43.2227
-30.8501
-23.5505
-18.7081
-15.1889
-12.4451
-10.1861
-8.24536
-6.52007
-4.94282
-3.46636
-2.05531
-0.681129
-67.9138
-54.808
-40.7795
-30.9144
-24.1857
-19.4044
-15.814
-12.9717
-10.6167
-8.58942
-6.78766
-5.14241
-3.60444
-2.13639
-0.707867
-47.9401
-42.7849
-35.4452
-28.8006
-23.4686
-19.2738
-15.9194
-13.1599
-10.8196
-8.77688
-6.94655
-5.26749
-3.69396
-2.19003
-0.725721
-30.4443
-32.2787
-29.628
-25.7753
-21.9616
-18.5597
-15.6117
-13.0569
-10.816
-8.81683
-7.0004
-5.31928
-3.73516
-2.21616
-0.73464
-22.4584
-24.8874
-24.6456
-22.7229
-20.1687
-17.5303
-15.0309
-12.7361
-10.6444
-8.7299
-6.96027
-5.30372
-3.73113
-2.21625
-0.735059
-12.4782
-19.3506
-20.8304
-20.1091
-18.4344
-16.4043
-14.308
-12.2741
-10.3497
-8.54237
-6.84162
-5.22984
-3.68703
-2.19295
-0.727787
-15.0563
-17.5589
-18.5437
-18.1573
-16.9468
-15.3244
-13.5418
-11.7362
-9.97383
-8.28078
-6.66119
-5.10808
-3.60909
-2.14955
-0.713861
-15.7151
-16.821
-17.2093
-16.7778
-15.7452
-14.3557
-12.7917
-11.1681
-9.54979
-7.96818
-6.4346
-4.94871
-3.50376
-2.08959
-0.694401
-16.3393
-16.5816
-16.4443
-15.8157