/*--------------------------------*- C++ -*----------------------------------*\
| =========                 |                                                 |
| \\      /  F ield         | OpenFOAM: The Open Source CFD Toolbox           |
|  \\    /   O peration     | Version:  5.x                                   |
|   \\  /    A nd           | Web:      www.OpenFOAM.org                      |
|    \\/     M anipulation  |                                                 |
\*---------------------------------------------------------------------------*/
FoamFile
{
    version     2.0;
    format      ascii;
    class       volScalarField;
    location    "3.6";
    object      gradTy;
}
// * * * * * * * * * * * * * * * * * * * * * * * * * * * * * * * * * * * * * //

dimensions      [0 -1 0 1 0 0 0];

internalField   nonuniform List<scalar> 
2048
(
-26.4239
-26.3963
-26.3419
-26.2623
-26.1595
-26.0361
-25.8949
-25.7386
-25.5701
-25.3919
-25.2064
-25.0158
-24.8219
-24.6266
-24.4313
-24.2373
-24.0457
-23.8574
-23.6732
-23.4938
-23.3194
-23.1505
-22.9873
-22.8301
-22.6791
-22.5346
-22.3967
-22.2659
-22.1426
-22.0272
-21.9202
-21.8224
-21.7344
-21.6571
-21.5914
-21.5384
-21.4991
-21.4748
-21.4666
-21.4758
-21.5036
-21.5514
-21.6202
-21.7114
-21.8258
-21.9642
-22.127
-22.3142
-22.525
-22.758
-23.011
-23.2806
-23.5626
-23.8516
-24.1418
-24.4264
-24.6988
-24.9522
-25.1806
-25.3788
-25.5423
-25.6676
-25.7525
-25.7953
-26.4462
-26.418
-26.3624
-26.281
-26.1762
-26.0505
-25.907
-25.7485
-25.5779
-25.3977
-25.2105
-25.0184
-24.8232
-24.6266
-24.4302
-24.2353
-24.043
-23.8541
-23.6695
-23.4896
-23.315
-23.1458
-22.9825
-22.8251
-22.6739
-22.5291
-22.391
-22.2599
-22.1362
-22.0203
-21.9129
-21.8144
-21.7258
-21.6477
-21.5812
-21.5273
-21.4871
-21.4617
-21.4525
-21.4607
-21.4875
-21.5342
-21.6022
-21.6926
-21.8064
-21.9445
-22.1074
-22.295
-22.507
-22.7419
-22.9975
-23.2706
-23.5568
-23.8508
-24.1462
-24.4364
-24.714
-24.9724
-25.2052
-25.4068
-25.5731
-25.7004
-25.7865
-25.83
-26.4889
-26.4594
-26.4014
-26.3167
-26.2079
-26.0779
-25.93
-25.7672
-25.5925
-25.4088
-25.2182
-25.0231
-24.8253
-24.6265
-24.4281
-24.2315
-24.0377
-23.8477
-23.6622
-23.4817
-23.3065
-23.137
-22.9733
-22.8156
-22.6641
-22.5189
-22.3802
-22.2485
-22.1241
-22.0074
-21.899
-21.7994
-21.7094
-21.6299
-21.5618
-21.5062
-21.4642
-21.437
-21.4259
-21.4321
-21.4569
-21.5018
-21.568
-21.6568
-21.7695
-21.9069
-22.0697
-22.2584
-22.4724
-22.7107
-22.9714
-23.2511
-23.5454
-23.8488
-24.1546
-24.4553
-24.7433
-25.0111
-25.2521
-25.4605
-25.6319
-25.7629
-25.8514
-25.8959
-26.5502
-26.5188
-26.4571
-26.3675
-26.2528
-26.1165
-25.9622
-25.7932
-25.6129
-25.4239
-25.2288
-25.0296
-24.8281
-24.6261
-24.4249
-24.2259
-24.0301
-23.8385
-23.6518
-23.4704
-23.2946
-23.1246
-22.9605
-22.8023
-22.6502
-22.5044
-22.3651
-22.2326
-22.1072
-21.9894
-21.8795
-21.7784
-21.6866
-21.605
-21.5347
-21.4767
-21.4321
-21.4023
-21.3884
-21.3918
-21.4139
-21.456
-21.5196
-21.6062
-21.717
-21.8532
-22.0159
-22.2057
-22.4225
-22.6656
-22.9332
-23.2223
-23.5283
-23.8453
-24.166
-24.4821
-24.7851
-25.0667
-25.3195
-25.5374
-25.716
-25.8522
-25.9438
-25.9898
-26.6286
-26.5946
-26.5282
-26.4319
-26.3095
-26.1649
-26.0022
-25.8254
-25.6378
-25.4424
-25.2415
-25.0372
-24.8312
-24.6251
-24.4204
-24.2184
-24.0202
-23.8267
-23.6385
-23.456
-23.2795
-23.1089
-22.9443
-22.7857
-22.633
-22.4866
-22.3464
-22.2129
-22.0863
-21.967
-21.8554
-21.7523
-21.6582
-21.5741
-21.501
-21.4399
-21.3922
-21.359
-21.3416
-21.3415
-21.36
-21.3986
-21.4589
-21.5424
-21.6507
-21.7852
-21.9474
-22.1382
-22.3582
-22.6069
-22.8832
-23.1841
-23.505
-23.8397
-24.1798
-24.5161
-24.8387
-25.138
-25.4059
-25.6359
-25.8234
-25.9656
-26.061
-26.1088
-26.7232
-26.6859
-26.6133
-26.5087
-26.3765
-26.2215
-26.0487
-25.8624
-25.6662
-25.4632
-25.2556
-25.0454
-24.8342
-24.6234
-24.4146
-24.2091
-24.008
-23.8123
-23.6225
-23.4389
-23.2616
-23.0905
-22.9255
-22.7663
-22.613
-22.4658
-22.3247
-22.19
-22.062
-21.9411
-21.8276
-21.7221
-21.6253
-21.5381
-21.4617
-21.397
-21.3455
-21.3083
-21.2869
-21.2825
-21.2968
-21.3312
-21.3873
-21.467
-21.572
-21.7042
-21.8653
-22.0568
-22.2799
-22.535
-22.8211
-23.1359
-23.4749
-23.8311
-24.1953
-24.5566
-24.9033
-25.2244
-25.5105
-25.7545
-25.9522
-26.1012
-26.2005
-26.2502
-26.8333
-26.792
-26.7117
-26.5967
-26.4525
-26.2852
-26.1004
-25.903
-25.6971
-25.4855
-25.2705
-25.0538
-24.8367
-24.6208
-24.4074
-24.1979
-23.9935
-23.7953
-23.6038
-23.4192
-23.2413
-23.0697
-22.9043
-22.7447
-22.5907
-22.4426
-22.3005
-22.1645
-22.0351
-21.9123
-21.7967
-21.6886
-21.5887
-21.4981
-21.4178
-21.3491
-21.2932
-21.2516
-21.2255
-21.2163
-21.2257
-21.2551
-21.3064
-21.3815
-21.4825
-21.6114
-21.7707
-21.9624
-22.1883
-22.4497
-22.7466
-23.0772
-23.437
-23.8186
-24.2116
-24.6029
-24.9786
-25.3255
-25.6326
-25.8925
-26.1011
-26.257
-26.3603
-26.4116
-26.9585
-26.9122
-26.8225
-26.6949
-26.5365
-26.3545
-26.1558
-25.946
-25.7293
-25.5085
-25.2857
-25.062
-24.8387
-24.617
-24.3985
-24.1846
-23.9768
-23.7759
-23.5827
-23.397
-23.2187
-23.0469
-22.8812
-22.7212
-22.5666
-22.4176
-22.2743
-22.1371
-22.0061
-21.8814
-21.7634
-21.6525
-21.5493
-21.4548
-21.3703
-21.297
-21.2364
-21.1897
-21.1585
-21.1441
-21.148
-21.1718
-21.2176
-21.2872
-21.3832
-21.5081
-21.6645
-21.8554
-22.0835
-22.3511
-22.6592
-23.0069
-23.3902
-23.8013
-24.228
-24.6548
-25.0646
-25.4413
-25.7722
-26.0492
-26.269
-26.4315
-26.5381
-26.5909
-27.0988
-27.0463
-26.9452
-26.8025
-26.6272
-26.4282
-26.2138
-25.9902
-25.7619
-25.5315
-25.3005
-25.0696
-24.8398
-24.6121
-24.388
-24.1693
-23.9576
-23.754
-23.5591
-23.3727
-23.1941
-23.0224
-22.8567
-22.6963
-22.541
-22.391
-22.2466
-22.108
-21.9755
-21.8489
-21.7285
-21.6145
-21.5077
-21.409
-21.3198
-21.2416
-21.1758
-21.1238
-21.087
-21.0669
-21.0648
-21.0825
-21.122
-21.1854
-21.2756
-21.3952
-21.5478
-21.7367
-21.9659
-22.2388
-22.558
-22.924
-23.3333
-23.7778
-24.2436
-24.7119
-25.1615
-25.5723
-25.9294
-26.2244
-26.455
-26.623
-26.7321
-26.7856
-27.2541
-27.1941
-27.0793
-26.9187
-26.7235
-26.505
-26.2729
-26.0344
-25.7939
-25.5538
-25.3146
-25.0765
-24.84
-24.6059
-24.3758
-24.1519
-23.936
-23.7295
-23.5331
-23.3462
-23.1679
-22.9966
-22.8311
-22.6704
-22.5145
-22.3634
-22.2178
-22.0779
-21.9438
-21.8154
-21.6925
-21.5754
-21.4646
-21.3614
-21.2671
-21.1835
-21.1122
-21.0546
-21.012
-20.9857
-20.9773
-20.9883
-21.0208
-21.0773
-21.1606
-21.2741
-21.4214
-21.6069
-21.8357
-22.1127
-22.4425
-22.8272
-23.2647
-23.7468
-24.2575
-24.7741
-25.2697
-25.7192
-26.1048
-26.4178
-26.658
-26.83
-26.94
-26.9935
-27.4247
-27.3558
-27.2244
-27.0425
-26.8242
-26.5835
-26.3318
-26.0773
-25.8244
-25.5747
-25.3277
-25.0826
-24.8393
-24.5984
-24.3619
-24.1322
-23.9118
-23.7024
-23.5046
-23.3178
-23.1402
-22.9697
-22.8047
-22.6439
-22.4872
-22.335
-22.188
-22.0468
-21.9114
-21.7812
-21.6559
-21.5355
-21.4206
-21.3125
-21.2128
-21.1235
-21.0463
-20.9828
-20.9341
-20.9015
-20.8863
-20.8902
-20.9152
-20.964
-21.0396
-21.1456
-21.2863
-21.4669
-21.6934
-21.9727
-22.3117
-22.7151
-23.1827
-23.7066
-24.2688
-24.8413
-25.3902
-25.8833
-26.2993
-26.6297
-26.8774
-27.0508
-27.1597
-27.212
-27.6112
-27.5314
-27.3804
-27.1732
-26.9281
-26.6622
-26.3892
-26.1179
-25.8526
-25.5938
-25.3395
-25.0878
-24.8377
-24.5898
-24.3462
-24.1102
-23.885
-23.6726
-23.4738
-23.2874
-23.1112
-22.9423
-22.778
-22.6172
-22.4597
-22.3061
-22.1576
-22.0152
-21.8786
-21.7469
-21.6193
-21.4956
-21.3763
-21.2628
-21.1573
-21.062
-20.9787
-20.9091
-20.8542
-20.8151
-20.7929
-20.7892
-20.8061
-20.8465
-20.9135
-21.0111
-21.1437
-21.3174
-21.5394
-21.8187
-22.1649
-22.5863
-23.0854
-23.6553
-24.276
-24.9135
-25.5241
-26.0663
-26.514
-26.8603
-27.1122
-27.2838
-27.389
-27.4388
-27.8141
-27.7213
-27.5468
-27.3099
-27.0338
-26.7398
-26.4436
-26.1549
-25.8776
-25.6106
-25.3501
-25.0923
-24.8356
-24.5803
-24.329
-24.0859
-23.8553
-23.64
-23.4404
-23.2552
-23.0813
-22.9145
-22.7515
-22.5907
-22.4321
-22.2768
-22.1267
-21.9831
-21.8457
-21.7128
-21.5831
-21.456
-21.332
-21.2129
-21.1011
-20.9994
-20.9099
-20.8341
-20.773
-20.7273
-20.6979
-20.6862
-20.6945
-20.7258
-20.7835
-20.8715
-20.9947
-21.1595
-21.3744
-21.6507
-22.0014
-22.4391
-22.9704
-23.5905
-24.2778
-24.9909
-25.6733
-26.2704
-26.7507
-27.1098
-27.3617
-27.5271
-27.6255
-27.671
-28.0344
-27.9259
-27.7235
-27.4518
-27.1401
-26.8147
-26.4935
-26.187
-25.8986
-25.6249
-25.3594
-25.0964
-24.8331
-24.57
-24.3101
-24.0591
-23.8227
-23.6043
-23.4044
-23.2213
-23.0507
-22.8868
-22.7255
-22.5647
-22.4048
-22.2473
-22.0953
-21.9507
-21.8129
-21.6793
-21.5477
-21.4172
-21.2883
-21.163
-21.0445
-20.9361
-20.8402
-20.7581
-20.6908
-20.6386
-20.6019
-20.582
-20.5813
-20.603
-20.6507
-20.7281
-20.8403
-20.9943
-21.1994
-21.469
-21.8205
-22.2719
-22.8356
-23.5097
-24.2722
-25.0737
-25.8399
-26.4984
-27.0112
-27.3788
-27.6247
-27.7787
-27.8665
-27.906
-28.273
-28.1458
-27.9104
-27.5978
-27.2452
-26.8851
-26.5375
-26.2132
-25.9148
-25.6364
-25.3677
-25.1002
-24.8307
-24.5594
-24.2898
-24.0296
-23.7869
-23.5653
-23.3656
-23.1857
-23.0196
-22.8598
-22.7004
-22.5396
-22.378
-22.2178
-22.0634
-21.918
-21.7804
-21.6468
-21.5136
-21.3796
-21.2456
-21.1136
-20.9877
-20.8723
-20.7699
-20.6817
-20.6084
-20.5498
-20.5058
-20.4774
-20.4673
-20.4788
-20.5159
-20.582
-20.6819
-20.823
-21.0153
-21.2741
-21.6217
-22.0831
-22.6781
-23.4098
-24.2568
-25.1618
-26.027
-26.754
-27.2977
-27.6673
-27.9
-28.0364
-28.1096
-28.141
-28.5312
-28.3816
-28.1074
-27.7469
-27.3476
-26.9497
-26.5741
-26.2321
-25.9257
-25.645
-25.3754
-25.1044
-24.8287
-24.5489
-24.2681
-23.9973
-23.7478
-23.5229
-23.3238
-23.1484
-22.9884
-22.8338
-22.6767
-22.5157
-22.352
-22.1881
-22.0307
-21.8848
-21.7484
-21.6156
-21.4811
-21.3437
-21.2043
-21.0648
-20.9309
-20.8083
-20.6993
-20.6051
-20.5261
-20.4615
-20.4103
-20.3731
-20.353
-20.3541
-20.3801
-20.4342
-20.5207
-20.6471
-20.8236
-21.0668
-21.4047
-21.8711
-22.4953
-23.287
-24.2285
-25.2556
-26.2384
-27.0417
-27.6127
-27.9756
-28.1859
-28.2979
-28.352
-28.3732
-28.8104
-28.6339
-28.3144
-27.8979
-27.4452
-27.0065
-26.6019
-26.2424
-25.9306
-25.651
-25.3829
-25.1095
-24.8278
-24.539
-24.2452
-23.9619
-23.7049
-23.4768
-23.2788
-23.1094
-22.9574
-22.8094
-22.655
-22.4935
-22.3272
-22.1584
-21.9969
-21.8511
-21.717
-21.5862
-21.4507
-21.3098
-21.1648
-21.017
-20.8742
-20.7441
-20.6286
-20.5285
-20.4443
-20.374
-20.3158
-20.2697
-20.2392
-20.2293
-20.2441
-20.2859
-20.3579
-20.4681
-20.6257
-20.848
-21.1695
-21.6343
-22.2844
-23.1374
-24.183
-25.3548
-26.4792
-27.3667
-27.9588
-28.3034
-28.4806
-28.5605
-28.591
-28.5999
-29.1122
-28.9034
-28.5316
-28.0495
-27.5359
-27.0542
-26.6196
-26.243
-25.9289
-25.6543
-25.3912
-25.1159
-24.8282
-24.5305
-24.2212
-23.9229
-23.6583
-23.4268
-23.23
-23.0686
-22.927
-22.7874
-22.6355
-22.4732
-22.304
-22.1285
-21.9616
-21.8165
-21.6863
-21.5589
-21.4226
-21.2782
-21.1276
-20.9703
-20.8174
-20.6799
-20.5579
-20.4521
-20.3634
-20.2881
-20.223
-20.1676
-20.1263
-20.1052
-20.1088
-20.138
-20.1947
-20.2874
-20.4237
-20.6192
-20.9163
-21.3712
-22.0427
-22.9565
-24.1147
-25.4591
-26.7561
-27.7357
-28.3386
-28.6498
-28.7818
-28.8215
-28.8238
-28.8185
-29.4384
-29.1906
-28.7591
-28.2001
-27.6169
-27.0914
-26.6261
-26.2322
-25.9202
-25.6555
-25.4013
-25.1242
-24.8305
-24.5245
-24.1963
-23.8794
-23.6077
-23.3728
-23.1771
-23.0261
-22.8975
-22.7685
-22.6188
-22.4551
-22.2829
-22.0983
-21.924
-21.7807
-21.6565
-21.5344
-21.3972
-21.2491
-21.0931
-20.9248
-20.7603
-20.6157
-20.4874
-20.3759
-20.2836
-20.204
-20.1326
-20.0675
-20.0146
-19.982
-19.9747
-19.9917
-20.0321
-20.1068
-20.2198
-20.3821
-20.6457
-21.0806
-21.7679
-22.7394
-24.0161
-25.5673
-27.078
-28.1563
-28.7543
-29.0136
-29.0865
-29.0779
-29.0479
-29.0267
-29.7912
-29.4956
-28.9977
-28.3482
-27.685
-27.117
-26.6205
-26.2084
-25.9041
-25.6548
-25.4148
-25.135
-24.8346
-24.5223
-24.1706
-23.8305
-23.5533
-23.3146
-23.119
-22.9817
-22.8694
-22.7538
-22.6051
-22.4391
-22.2648
-22.0677
-21.8829
-21.7433
-21.6277
-21.5134
-21.3748
-21.2226
-21.0622
-20.8807
-20.7024
-20.5516
-20.4173
-20.2999
-20.2051
-20.1222
-20.0451
-19.9697
-19.9045
-19.86
-19.8425
-19.8478
-19.8709
-19.9276
-20.0166
-20.1385
-20.3585
-20.7611
-21.4583
-22.4816
-23.8766
-25.6776
-27.4568
-28.6376
-29.2078
-29.3922
-29.3913
-29.3267
-29.2607
-29.2223
-30.1731
-29.8178
-29.2487
-28.4919
-27.7358
-27.1307
-26.6025
-26.1695
-25.8804
-25.6527
-25.4336
-25.1483
-24.8404
-24.5262
-24.1442
-23.7742
-23.4955
-23.2524
-23.0548
-22.9355
-22.8429
-22.7447
-22.5947
-22.4251
-22.2509
-22.0366
-21.8368
-21.7039
-21.6
-21.497
-21.3554
-21.1984
-21.0359
-20.838
-20.6429
-20.4879
-20.3476
-20.2239
-20.1283
-20.0431
-19.9611
-19.8746
-19.7961
-19.7393
-19.7127
-19.7075
-19.7118
-19.7515
-19.8172
-19.8907
-20.0564
-20.4111
-21.113
-22.179
-23.6824
-25.7865
-27.909
-29.1898
-29.6997
-29.7824
-29.6926
-29.5649
-29.4602
-29.4036
-30.5874
-30.1555
-29.5145
-28.6294
-27.7637
-27.1332
-26.5721
-26.1125
-25.8492
-25.6496
-25.4606
-25.1642
-24.8468
-24.5391
-24.1174
-23.7078
-23.4352
-23.1867
-22.9825
-22.8877
-22.8185
-22.7431
-22.5874
-22.4124
-22.2431
-22.0049
-21.7835
-21.6623
-21.5733
-21.4866
-21.339
-21.1761
-21.0155
-20.7968
-20.5806
-20.4249
-20.2787
-20.1473
-20.0533
-19.967
-19.8814
-19.7825
-19.6895
-19.6196
-19.5855
-19.572
-19.5546
-19.5794
-19.6254
-19.641
-19.7413
-20.0286
-20.7324
-21.8293
-23.4142
-25.8883
-28.457
-29.8241
-30.2291
-30.1794
-29.9861
-29.7896
-29.6444
-29.5692
-31.0379
-30.5049
-29.7995
-28.7584
-27.7609
-27.1267
-26.5301
-26.0333
-25.8114
-25.6452
-25.4999
-25.1821
-24.8518
-24.5658
-24.0902
-23.6272
-23.3745
-23.1183
-22.8997
-22.8387
-22.7958
-22.7516
-22.5828
-22.3995
-22.2443
-21.9725
-21.72
-21.6185
-21.5475
-21.4842
-21.3252
-21.1545
-21.0033
-20.7571
-20.5134
-20.3634
-20.2109
-20.0695
-19.9807
-19.8942
-19.8068
-19.6938
-19.5845
-19.5007
-19.4613
-19.443
-19.3991
-19.4121
-19.4457
-19.3914
-19.4163
-19.6104
-20.3189
-21.4333
-23.0462
-25.9739
-29.1319
-30.5518
-30.7928
-30.5774
-30.2672
-29.998
-29.8117
-29.718
-31.5301
-30.8592
-30.1106
-28.8768
-27.7166
-27.116
-26.4785
-25.9259
-25.7687
-25.6387
-25.5572
-25.2006
-24.8515
-24.613
-24.0628
-23.526
-23.3167
-23.0484
-22.8025
-22.7897
-22.7744
-22.7741
-22.5802
-22.3841
-22.2587
-21.9392
-21.6419
-21.573
-21.522
-21.493
-21.3134
-21.1316
-21.0025
-20.7188
-20.4384
-20.3048
-20.1447
-19.9889
-19.911
-19.8246
-19.7384
-19.6085
-19.4813
-19.3819
-19.3401
-19.3224
-19.2438
-19.2498
-19.2839
-19.1436
-19.0859
-19.1511
-19.8764
-20.9969
-22.5435
-26.0296
-29.9768
-31.3835
-31.3848
-30.9692
-30.5315
-30.1879
-29.9611
-29.8496
-32.0714
-31.2065
-30.459
-28.9823
-27.6156
-27.1094
-26.4201
-25.7818
-25.7248
-25.6274
-25.6408
-25.2177
-24.8398
-24.6908
-24.0351
-23.3949
-23.2676
-22.9792
-22.685
-22.743
-22.7523
-22.8158
-22.578
-22.3619
-22.2929
-21.9051
-21.5433
-21.5275
-21.4953
-21.5171
-21.3024
-21.1043
-21.018
-20.6819
-20.3513
-20.2515
-20.081
-19.9037
-19.8451
-19.7582
-19.6776
-19.5267
-19.3796
-19.2623
-19.2216
-19.2135
-19.0864
-19.0916
-19.1473
-18.8979
-18.7567
-18.6426
-19.4114
-20.5341
-21.8592
-26.0347
-31.0513
-32.327
-31.9951
-31.3463
-30.7743
-30.3571
-30.0918
-29.9637
-32.6723
-31.5278
-30.862
-29.0726
-27.4365
-27.1204
-26.3591
-25.5883
-25.6867
-25.606
-25.7626
-25.2296
-24.8068
-24.8136
-24.0071
-23.2204
-23.2359
-22.9135
-22.5389
-22.703
-22.7261
-22.8846
-22.5738
-22.3267
-22.356
-21.8699
-21.4159
-21.4855
-21.4646
-21.5629
-21.2903
-21.0675
-21.0566
-20.6461
-20.2459
-20.2073
-20.0207
-19.8109
-19.7849
-19.694
-19.6261
-19.448
-19.2795
-19.1404
-19.1052
-19.1206
-18.9232
-18.9356
-19.0459
-18.6525
-18.4391
-18.0714
-18.9324
-20.0714
-20.9312
-25.9592
-32.4378
-33.3845
-32.6097
-31.6997
-30.9917
-30.5043
-30.2035
-30.0604
-33.3475
-31.7936
-31.3458
-29.1455
-27.1496
-27.1698
-26.3016
-25.3269
-25.6656
-25.565
-25.9395
-25.2315
-24.7377
-25.0024
-23.9786
-22.9832
-23.235
-22.8552
-22.352
-22.6769
-22.6893
-22.9915
-22.5643
-22.2689
-22.4616
-21.8335
-21.2481
-21.4532
-21.4249
-21.6392
-21.2743
-21.0138
-21.1286
-20.6109
-20.1133
-20.1779
-19.965
-19.706
-19.7328
-19.6306
-19.5866
-19.372
-19.1811
-19.0148
-18.9895
-19.0505
-18.7488
-18.7778
-18.9931
-18.4021
-18.1485
-17.4172
-18.4494
-19.6522
-19.6781
-25.7601
-34.2489
-34.5481
-33.2098
-32.0201
-31.1802
-30.6286
-30.2964
-30.1402
-34.118
-31.9596
-31.9489
-29.1988
-26.7136
-27.2879
-26.255
-24.9718
-25.6805
-25.4878
-26.1954
-25.2162
-24.6109
-25.2861
-23.9491
-22.6564
-23.2846
-22.8093
-22.1068
-22.6768
-22.631
-23.1522
-22.5447
-22.1746
-22.6282
-21.7951
-21.0242
-21.4408
-21.3676
-21.7585
-21.2508
-20.9324
-21.2481
-20.5756
-19.9415
-20.172
-19.9154
-19.5828
-19.6934
-19.5653
-19.5624
-19.2973
-19.085
-18.8833
-18.8718
-19.0123
-18.5554
-18.6119
-19.0071
-18.1357
-17.9085
-16.6501
-17.9736
-19.3446
-17.9935
-25.3769
-36.6379
-35.7936
-33.7722
-32.2983
-31.3373
-30.7297
-30.3709
-30.2039
-35.0133
-31.9615
-32.7262
-29.2301
-26.0723
-27.5183
-26.2287
-24.4861
-25.7605
-25.3483
-26.5638
-25.1743
-24.396
-25.7048
-23.9176
-22.203
-23.4127
-22.7819
-21.7791
-22.7217
-22.5339
-23.3885
-22.5085
-22.024
-22.8819
-21.7539
-20.7229
-21.4646
-21.2789
-21.9384
-21.2144
-20.8082
-21.4348
-20.539
-19.7138
-20.2018
-19.8735
-19.4323
-19.673
-19.4936
-19.5585
-19.2221
-18.9922
-18.7435
-18.7482
-19.0195
-18.3328
-18.4286
-19.1132
-17.8339
-17.7541
-15.7271
-17.5147
-19.2485
-15.7413
-24.7264
-39.8105
-37.0728
-34.2702
-32.5267
-31.4613
-30.808
-30.428
-30.2524
-36.0743
-31.7079
-33.7549
-29.2371
-25.1503
-27.9218
-26.234
-23.8194
-25.9496
-25.1062
-27.0907
-25.0932
-24.0507
-26.3128
-23.8826
-21.5734
-23.6584
-22.7806
-21.3352
-22.8401
-22.3713
-23.7308
-22.4474
-21.7902
-23.2575
-21.708
-20.3159
-21.5493
-21.1375
-22.2032
-21.1583
-20.6201
-21.7153
-20.4993
-19.4079
-20.2849
-19.8408
-19.2427
-19.6815
-19.4087
-19.5815
-19.1429
-18.9045
-18.5927
-18.612
-19.0905
-18.0673
-18.2137
-19.3462
-17.4651
-17.7363
-14.5883
-17.0794
-19.5065
-12.7487
-23.6955
-44.04
-38.3027
-34.6755
-32.6993
-31.552
-30.8643
-30.4687
-30.2868
-37.3568
-31.0727
-35.1409
-29.2171
-23.8479
-28.5807
-26.2836
-22.9033
-26.3124
-24.7018
-27.8387
-24.9571
-23.518
-27.1819
-23.8416
-20.7016
-24.0747
-22.8141
-20.7297
-23.0739
-22.1039
-24.2201
-22.3506
-21.4363
-23.8017
-21.6543
-19.7656
-21.7308
-20.9119
-22.5857
-21.0735
-20.3402
-22.1251
-20.4535
-18.9945
-20.4451
-19.8189
-18.9975
-19.733
-19.3001
-19.6409
-19.0548
-18.825
-18.4279
-18.4535
-19.2502
-17.7415
-17.9477
-19.7535
-16.9807
-17.9283
-13.1533
-16.6669
-20.3149
-8.79949
-22.1333
-49.6849
-39.352
-34.9616
-32.8132
-31.6102
-30.8999
-30.4942
-30.3084
-38.936
-29.8859
-37.0272
-29.167
-22.0355
-29.6048
-26.3917
-21.6463
-26.9401
-24.0493
-28.8915
-24.7461
-22.7226
-28.406
-23.7914
-19.5028
-24.7326
-22.8926
-19.9025
-23.4831
-21.6757
-24.9117
-22.2045
-20.9141
-24.5752
-21.5886
-19.0231
-22.0602
-20.5568
-23.1303
-20.9488
-19.9314
-22.7111
-20.3981
-18.4362
-20.7149
-19.8093
-18.6761
-19.848
-19.1532
-19.7499
-18.9509
-18.7586
-18.2468
-18.259
-19.5325
-17.334
-17.604
-20.4001
-16.3097
-18.4324
-11.3162
-16.2656
-21.9372
-3.62758
-19.8425
-57.2097
-40.0255
-35.1093
-32.8689
-31.6383
-30.917
-30.5064
-30.3188
)
;

boundaryField
{
    left
    {
        type            calculated;
        value           nonuniform List<scalar> 
32
(
-26.4239
-26.4462
-26.4889
-26.5502
-26.6286
-26.7232
-26.8333
-26.9585
-27.0988
-27.2541
-27.4247
-27.6112
-27.8141
-28.0344
-28.273
-28.5312
-28.8104
-29.1122
-29.4384
-29.7912
-30.1731
-30.5874
-31.0379
-31.5301
-32.0714
-32.6723
-33.3475
-34.118
-35.0133
-36.0743
-37.3568
-38.936
)
;
    }
    right
    {
        type            calculated;
        value           nonuniform List<scalar> 
32
(
-25.7953
-25.83
-25.8959
-25.9898
-26.1088
-26.2502
-26.4116
-26.5909
-26.7856
-26.9935
-27.212
-27.4388
-27.671
-27.906
-28.141
-28.3732
-28.5999
-28.8185
-29.0267
-29.2223
-29.4036
-29.5692
-29.718
-29.8496
-29.9637
-30.0604
-30.1402
-30.2039
-30.2524
-30.2868
-30.3084
-30.3188
)
;
    }
    interface
    {
        type            calculated;
        value           nonuniform List<scalar> 
64
(
-39.8105
-29.1303
-38.1161
-29.134
-20.9836
-30.2236
-26.4621
-20.9194
-27.3335
-23.6485
-29.506
-24.619
-22.2485
-29.12
-23.7634
-18.8096
-25.1321
-22.9444
-19.4249
-23.7403
-21.4131
-25.3159
-22.1173
-20.6042
-25.028
-21.5522
-18.5971
-22.2695
-20.3403
-23.4495
-20.875
-19.6896
-23.0548
-20.3674
-18.1156
-20.8819
-19.8078
-18.4934
-19.9244
-19.0681
-19.8188
-18.894
-18.7294
-18.152
-18.1509
-19.7092
-17.1069
-17.4091
-20.7926
-15.9172
-18.7775
-10.2822
-16.0654
-22.9896
-0.699392
-18.4872
-61.5073
-40.2393
-35.1468
-32.8826
-31.6452
-30.9213
-30.5095
-30.3215
)
;
    }
    bottom
    {
        type            calculated;
        value           nonuniform List<scalar> 
64
(
-26.4181
-26.3907
-26.3366
-26.2574
-26.1552
-26.0323
-25.8917
-25.736
-25.568
-25.3903
-25.2053
-25.0151
-24.8216
-24.6266
-24.4316
-24.2378
-24.0464
-23.8583
-23.6742
-23.4948
-23.3205
-23.1517
-22.9886
-22.8314
-22.6805
-22.536
-22.3982
-22.2675
-22.1443
-22.029
-21.9222
-21.8245
-21.7367
-21.6596
-21.5941
-21.5413
-21.5023
-21.4782
-21.4703
-21.4797
-21.5078
-21.5558
-21.625
-21.7163
-21.8309
-21.9694
-22.1322
-22.3191
-22.5296
-22.7622
-23.0144
-23.2832
-23.564
-23.8518
-24.1406
-24.4238
-24.6948
-24.947
-25.1743
-25.3715
-25.5343
-25.6591
-25.7437
-25.7863
)
;
    }
    defaultFaces
    {
        type            empty;
    }
}


// ************************************************************************* //
