/*--------------------------------*- C++ -*----------------------------------*\
| =========                 |                                                 |
| \\      /  F ield         | OpenFOAM: The Open Source CFD Toolbox           |
|  \\    /   O peration     | Version:  5.x                                   |
|   \\  /    A nd           | Web:      www.OpenFOAM.org                      |
|    \\/     M anipulation  |                                                 |
\*---------------------------------------------------------------------------*/
FoamFile
{
    version     2.0;
    format      ascii;
    class       volScalarField;
    location    "3.8";
    object      gradTx;
}
// * * * * * * * * * * * * * * * * * * * * * * * * * * * * * * * * * * * * * //

dimensions      [0 -1 0 1 0 0 0];

internalField   nonuniform List<scalar> 
6300
(
-30.4075
-30.4774
-30.6164
-30.8232
-31.0956
-31.4304
-31.8236
-32.2698
-32.7625
-33.2938
-33.8546
-34.4347
-35.0235
-35.61
-36.184
-30.3378
-30.4083
-30.5487
-30.7577
-31.0332
-31.3722
-31.7707
-32.2235
-32.724
-33.2644
-33.8353
-34.4262
-35.0258
-35.6227
-36.2056
-30.1976
-30.2694
-30.4125
-30.6258
-30.9074
-31.2545
-31.6636
-32.1295
-32.6458
-33.2046
-33.7961
-34.4091
-35.0311
-35.6493
-36.251
-29.9857
-30.0594
-30.2064
-30.4258
-30.7161
-31.0752
-31.4997
-31.9851
-32.5253
-33.1122
-33.7355
-34.383
-35.0405
-35.6926
-36.3241
-29.7002
-29.7762
-29.9279
-30.1548
-30.4562
-30.8304
-31.275
-31.7862
-32.3583
-32.9834
-33.6508
-34.347
-35.0552
-35.7567
-36.4318
-29.3389
-29.4173
-29.5742
-29.8097
-30.1236
-30.5154
-30.9839
-31.5264
-32.1383
-32.8123
-33.5376
-34.299
-35.0769
-35.8475
-36.5842
-28.8993
-28.9801
-29.1421
-29.3861
-29.7131
-30.1239
-30.619
-31.1974
-31.8564
-32.5902
-33.3883
-34.2346
-35.1061
-35.9722
-36.7964
-28.3789
-28.4617
-28.6281
-28.8797
-29.2189
-29.6483
-30.1707
-30.7878
-31.4999
-32.3037
-33.1908
-34.1452
-35.1407
-36.1389
-37.0891
-27.776
-27.8598
-28.0289
-28.2858
-28.6345
-29.0799
-29.6277
-30.2835
-31.0518
-31.9341
-32.9263
-34.0148
-35.1726
-36.3539
-37.4897
-27.0892
-27.1728
-27.342
-27.6003
-27.9536
-28.4093
-28.9768
-29.6667
-30.4897
-31.4548
-32.5655
-33.8154
-35.1811
-36.6143
-38.0294
-26.3189
-26.4005
-26.5659
-26.82
-27.1702
-27.6269
-28.2036
-28.9168
-29.7857
-30.8299
-32.0657
-33.5001
-35.1223
-36.8932
-38.7287
-25.4672
-25.5443
-25.7013
-25.9437
-26.2805
-26.7247
-27.2939
-28.0115
-28.9066
-30.0134
-31.3673
-32.9974
-34.9149
-37.1076
-39.5471
-24.5384
-24.6084
-24.7513
-24.9731
-25.2836
-25.6975
-26.236
-26.9287
-27.8158
-28.9499
-30.3931
-32.2074
-34.4325
-37.0753
-40.2254
-23.5397
-23.5998
-23.7226
-23.9139
-24.1833
-24.5459
-25.024
-25.6515
-26.4783
-27.5773
-29.0479
-31.0069
-33.5325
-36.5359
-39.8664
-22.481
-22.5284
-22.6254
-22.7766
-22.9901
-23.2787
-23.6628
-24.1751
-24.8689
-25.8331
-27.2147
-29.2401
-32.1547
-35.669
-36.2392
-36.6923
-37.1331
-37.5512
-37.9449
-38.3132
-38.6563
-38.9745
-39.2683
-39.5383
-39.7842
-40.0056
-40.2016
-40.3715
-40.5144
-40.6305
-40.7206
-40.7866
-40.8314
-40.8586
-40.8724
-40.8768
-40.8755
-40.8712
-40.8655
-40.8588
-40.8506
-40.8392
-40.8226
-40.799
-40.7669
-40.7255
-40.6751
-40.6172
-40.5537
-40.4875
-40.4212
-40.3572
-40.2973
-40.242
-40.191
-40.143
-40.0958
-40.047
-39.9942
-39.9356
-39.8701
-39.7977
-39.7196
-39.6374
-39.5537
-39.471
-39.3915
-39.3166
-39.247
-39.1822
-39.1207
-39.0606
-38.9993
-38.9345
-38.8644
-38.788
-38.7052
-38.6171
-38.5255
-38.4328
-38.3415
-38.2539
-38.1714
-38.0949
-38.024
-37.9578
-37.8946
-37.8325
-37.7699
-37.7057
-37.6399
-37.5738
-37.5098
-37.4511
-37.402
-37.3668
-37.3495
-37.3533
-37.3801
-37.4302
-37.502
-37.5921
-37.6954
-37.8056
-37.9156
-36.7207
-37.1658
-37.5866
-37.9814
-38.3498
-38.6922
-39.0096
-39.3029
-39.5729
-39.8196
-40.0421
-40.2395
-40.4102
-40.5532
-40.6681
-40.7554
-40.8173
-40.8567
-40.8781
-40.886
-40.8852
-40.8799
-40.8732
-40.8669
-40.8613
-40.8552
-40.8466
-40.8329
-40.8114
-40.7803
-40.7384
-40.6862
-40.6251
-40.5578
-40.4876
-40.4179
-40.3515
-40.2905
-40.2358
-40.1868
-40.1418
-40.0982
-40.0528
-40.0027
-39.9455
-39.88
-39.8061
-39.7252
-39.6396
-39.5523
-39.4664
-39.3847
-39.309
-39.24
-39.1772
-39.1188
-39.0622
-39.0042
-38.9421
-38.8735
-38.797
-38.7128
-38.622
-38.527
-38.4307
-38.3362
-38.2463
-38.1628
-38.0866
-38.0173
-37.9535
-37.893
-37.8332
-37.772
-37.7078
-37.6404
-37.5708
-37.5018
-37.4373
-37.382
-37.3409
-37.319
-37.3201
-37.3465
-37.3988
-37.4755
-37.5729
-37.6853
-37.8057
-37.9261
-36.7798
-37.2336
-37.6595
-38.0562
-38.4239
-38.7642
-39.0794
-39.3713
-39.6414
-39.8897
-40.1152
-40.3158
-40.4891
-40.6327
-40.7453
-40.8271
-40.8802
-40.9084
-40.917
-40.9122
-40.9002
-40.8864
-40.8749
-40.8675
-40.8644
-40.8635
-40.8615
-40.8543
-40.8379
-40.8091
-40.7664
-40.71
-40.642
-40.5662
-40.4872
-40.4097
-40.338
-40.2749
-40.2214
-40.1769
-40.1387
-40.103
-40.0653
-40.0212
-39.9674
-39.9019
-39.8247
-39.7377
-39.6443
-39.5488
-39.4558
-39.3692
-39.2917
-39.2242
-39.1659
-39.1143
-39.0656
-39.0152
-38.959
-38.8937
-38.8173
-38.7298
-38.633
-38.5303
-38.426
-38.3243
-38.2293
-38.1435
-38.0682
-38.0025
-37.9443
-37.89
-37.8359
-37.7783
-37.7145
-37.6437
-37.5669
-37.4874
-37.41
-37.3411
-37.2874
-37.2553
-37.2501
-37.2754
-37.3323
-37.4192
-37.532
-37.6637
-37.8057
-37.948
-36.8746
-37.3417
-37.7747
-38.1727
-38.5375
-38.8728
-39.1827
-39.4714
-39.7413
-39.9929
-40.2242
-40.4317
-40.6108
-40.7569
-40.8671
-40.9404
-40.9791
-40.9883
-40.9753
-40.9488
-40.9178
-40.8899
-40.8705
-40.8622
-40.8644
-40.8735
-40.884
-40.8891
-40.8822
-40.8582
-40.8142
-40.7505
-40.6703
-40.5793
-40.4845
-40.3933
-40.3121
-40.2453
-40.1943
-40.1579
-40.1321
-40.1108
-40.087
-40.0539
-40.0061
-39.9406
-39.8574
-39.7594
-39.6519
-39.5418
-39.436
-39.3406
-39.2598
-39.1951
-39.145
-39.1057
-39.0712
-39.0345
-38.9891
-38.9297
-38.8533
-38.76
-38.6525
-38.536
-38.4172
-38.3028
-38.1988
-38.1093
-38.0357
-37.9769
-37.9292
-37.8869
-37.8436
-37.7932
-37.7312
-37.6554
-37.5668
-37.4696
-37.3705
-37.2783
-37.2027
-37.1527
-37.1363
-37.1587
-37.2222
-37.3255
-37.4635
-37.6272
-37.8052
-37.984
-37.0137
-37.4991
-37.9403
-38.3372
-38.694
-39.0178
-39.3169
-39.5987
-39.8678
-40.1252
-40.3677
-40.5887
-40.78
-40.9331
-41.0419
-41.1036
-41.1207
-41.1002
-41.053
-40.9922
-40.9312
-40.8812
-40.8503
-40.8419
-40.8543
-40.8816
-40.9143
-40.9412
-40.9514
-40.936
-40.8904
-40.8148
-40.7142
-40.5977
-40.4767
-40.3627
-40.2658
-40.1928
-40.1462
-40.1237
-40.119
-40.1222
-40.1222
-40.1078
-40.0703
-40.0048
-39.9113
-39.7946
-39.6633
-39.5284
-39.4011
-39.2911
-39.2048
-39.1448
-39.1086
-39.0901
-39.0797
-39.0664
-39.0394
-38.9901
-38.9138
-38.8105
-38.6847
-38.545
-38.4018
-38.2662
-38.1474
-38.0519
-37.982
-37.9354
-37.9061
-37.885
-37.8613
-37.8249
-37.7676
-37.6855
-37.5792
-37.4543
-37.3208
-37.1917
-37.0808
-37.0018
-36.9663
-36.9826
-37.0548
-37.1819
-37.3576
-37.5702
-37.8034
-38.0384
-37.2105
-37.7204
-38.1698
-38.5596
-38.898
-39.1985
-39.4761
-39.7443
-40.0114
-40.2792
-40.5421
-40.7887
-41.0042
-41.1735
-41.2844
-41.3314
-41.3166
-41.2506
-41.1503
-41.0361
-40.9286
-40.8452
-40.798
-40.7916
-40.823
-40.8821
-40.9531
-41.0176
-41.0572
-41.0574
-41.01
-40.9152
-40.7812
-40.6229
-40.4587
-40.3074
-40.185
-40.1024
-40.0632
-40.064
-40.0943
-40.1385
-40.178
-40.195
-40.1748
-40.1094
-39.9988
-39.8508
-39.68
-39.5041
-39.3413
-39.2072
-39.1122
-39.0599
-39.0468
-39.0628
-39.0925
-39.1179
-39.1215
-39.0893
-39.0132
-38.8932
-38.7371
-38.5588
-38.3756
-38.2051
-38.0625
-37.9577
-37.8943
-37.8688
-37.8712
-37.8866
-37.8973
-37.8863
-37.8398
-37.7503
-37.618
-37.4512
-37.265
-37.0785
-36.9128
-36.7881
-36.7215
-36.7259
-36.8082
-36.9683
-37.1985
-37.4831
-37.7991
-38.1183
-37.4859
-38.029
-38.4851
-38.8561
-39.157
-39.4121
-39.649
-39.8915
-40.1543
-40.4404
-40.74
-41.0336
-41.2952
-41.4978
-41.6193
-41.6481
-41.5864
-41.4506
-41.2678
-41.0706
-40.8913
-40.7572
-40.6868
-40.6869
-40.7521
-40.8655
-41.0015
-41.1298
-41.22
-41.2474
-41.1981
-41.072
-40.8832
-40.6565
-40.4222
-40.2105
-40.0472
-39.9493
-39.9228
-39.9619
-40.0498
-40.1613
-40.2664
-40.3355
-40.3444
-40.2791
-40.1398
-39.9401
-39.7039
-39.4608
-39.2402
-39.067
-38.9579
-38.9185
-38.9432
-39.0157
-39.1112
-39.2008
-39.2554
-39.2514
-39.1756
-39.0279
-38.8214
-38.5795
-38.3308
-38.1039
-37.9229
-37.8038
-37.7521
-37.762
-37.8176
-37.8946
-37.9645
-37.9987
-37.9739
-37.8766
-37.7064
-37.4761
-37.2092
-36.9353
-36.6857
-36.4904
-36.3745
-36.3571
-36.4493
-36.6534
-36.961
-37.3509
-37.7898
-38.2352
-37.8721
-38.4632
-38.923
-39.2537
-39.482
-39.6523
-39.814
-40.0094
-40.264
-40.582
-40.9469
-41.3248
-41.6713
-41.939
-42.0879
-42.0952
-41.963
-41.7184
-41.4062
-41.0793
-40.7889
-40.5778
-40.4743
-40.4887
-40.6118
-40.8163
-41.0611
-41.2969
-41.4733
-41.5481
-41.4967
-41.3191
-41.0399
-40.7012
-40.353
-40.0441
-39.8153
-39.6934
-39.688
-39.7896
-39.9714
-40.1932
-40.4068
-40.563
-40.6205
-40.5555
-40.368
-40.0818
-39.7379
-39.385
-39.0708
-38.8347
-38.703
-38.6848
-38.7709
-38.9352
-39.1385
-39.3338
-39.4734
-39.5171
-39.4416
-39.2471
-38.9566
-38.61
-38.2546
-37.9366
-37.6941
-37.5526
-37.5208
-37.5895
-37.733
-37.9129
-38.083
-38.1961
-38.2122
-38.1077
-37.881
-37.5537
-37.1635
-36.7567
-36.3805
-36.0782
-35.8856
-35.8301
-35.9291
-36.1896
-36.6047
-37.148
-37.7712
-38.4076
-38.4183
-39.0865
-39.5471
-39.7987
-39.8907
-39.905
-39.9308
-40.0422
-40.2823
-40.6564
-41.135
-41.6614
-42.1608
-42.5516
-42.7606
-42.7433
-42.5017
-42.0836
-41.5661
-41.0354
-40.5725
-40.2434
-40.092
-40.1342
-40.3543
-40.7091
-41.1338
-41.5495
-41.873
-42.0305
-41.977
-41.7126
-41.2824
-40.7597
-40.2272
-39.7626
-39.4294
-39.2699
-39.2991
-39.5017
-39.8354
-40.237
-40.6298
-40.9324
-41.0732
-41.0084
-40.7382
-40.3065
-39.7847
-39.2536
-38.7888
-38.4521
-38.2846
-38.3009
-38.486
-38.7986
-39.1773
-39.5472
-39.8294
-39.9542
-39.8791
-39.6042
-39.1724
-38.6531
-38.1246
-37.6602
-37.3199
-37.1435
-37.1448
-37.309
-37.5959
-37.9451
-38.2834
-38.5328
-38.6243
-38.5143
-38.2006
-37.7216
-37.1417
-36.534
-35.9689
-35.5076
-35.1994
-35.0804
-35.1761
-35.5031
-36.0636
-36.8299
-37.7333
-38.666
-39.1992
-40.0088
-40.4723
-40.5739
-40.4113
-40.1411
-39.9246
-39.8899
-40.1079
-40.5806
-41.2545
-42.0369
-42.807
-43.426
-43.7591
-43.7148
-43.2945
-42.5922
-41.7451
-40.894
-40.1634
-39.6532
-39.4313
-39.5234
-39.9029
-40.5014
-41.2194
-41.9352
-42.5117
-42.8168
-42.7611
-42.345
-41.6582
-40.8325
-40.0037
-39.2917
-38.7934
-38.5747
-38.6605
-39.025
-39.6016
-40.2937
-40.9826
-41.5349
-41.8221
-41.7572
-41.3409
-40.6607
-39.8452
-39.0267
-38.3222
-37.8257
-37.6016
-37.6739
-38.0172
-38.5668
-39.2285
-39.8868
-40.412
-40.6792
-40.6041
-40.1873
-39.5142
-38.7096
-37.902
-37.2049
-36.7096
-36.4782
-36.5339
-36.8519
-37.3689
-37.9931
-38.6115
-39.097
-39.3262
-39.2143
-38.758
-38.0349
-37.1596
-36.2497
-35.4075
-34.7167
-34.2403
-34.0216
-34.0899
-34.4804
-35.2258
-36.3142
-37.653
-39.0619
-40.3213
-41.4294
-41.9188
-41.7296
-41.0871
-40.2999
-39.6569
-39.3737
-39.567
-40.215
-41.2179
-42.4302
-43.6709
-44.7125
-45.3011
-45.2277
-44.4936
-43.3096
-41.9296
-40.5795
-39.4372
-38.6478
-38.3185
-38.499
-39.1365
-40.1214
-41.3084
-42.5217
-43.5413
-44.1227
-44.0644
-43.3673
-42.2342
-40.9097
-39.6119
-38.5133
-37.7548
-37.4411
-37.6208
-38.243
-39.2015
-40.3549
-41.5321
-42.5191
-43.0778
-43.0122
-42.3235
-41.2099
-39.9098
-38.6358
-37.5559
-36.8073
-36.4917
-36.6564
-37.2515
-38.1735
-39.2845
-40.4181
-41.366
-41.897
-41.821
-41.1395
-40.0452
-38.77
-37.5203
-36.4591
-35.7193
-35.3995
-35.5452
-36.1082
-36.9874
-38.0491
-39.131
-40.0299
-40.5191
-40.4102
-39.6996
-38.567
-37.2273
-35.8676
-34.6282
-33.617
-32.9101
-32.5495
-32.5397
-32.9463
-33.8942
-35.4379
-37.4717
-39.6865
-41.9081
-43.7414
-44.3424
-43.5381
-41.9712
-40.251
-38.8714
-38.1713
-38.3715
-39.3385
-40.8801
-42.7826
-44.8218
-46.6514
-47.7964
-47.6923
-46.3406
-44.3095
-42.0714
-39.9656
-38.2029
-36.9799
-36.4719
-36.8166
-37.8697
-39.4506
-41.3597
-43.387
-45.2021
-46.3499
-46.2877
-45.0174
-43.0858
-40.9485
-38.9333
-37.2451
-36.0759
-35.597
-35.9438
-36.9768
-38.5207
-40.3818
-42.3556
-44.1202
-45.2325
-45.1643
-43.9181
-42.0275
-39.9368
-37.9653
-36.3125
-35.1652
-34.6902
-35.019
-36.0152
-37.5079
-39.3081
-41.2166
-42.9203
-43.9888
-43.9096
-42.686
-40.8367
-38.7937
-36.8671
-35.2502
-34.124
-33.6501
-33.9558
-34.9087
-36.3432
-38.076
-39.9139
-41.5528
-42.5729
-42.4725
-41.2488
-39.397
-37.324
-35.312
-33.5201
-32.0789
-31.0812
-30.572
-30.3899
-30.6329
-31.7044
-33.8558
-37.0294
-40.7109
-43.9512
-47.8279
-48.79
-46.4451
-43.0758
-39.7116
-37.1073
-35.6727
-36.0719
-37.6346
-40.0229
-42.9384
-46.2745
-49.5763
-52.0905
-51.9536
-49.1661
-45.6074
-42.0228
-38.8578
-36.1913
-34.2828
-33.3973
-34.1142
-35.8432
-38.3071
-41.2409
-44.5579
-47.8239
-50.3196
-50.2507
-47.6198
-44.2337
-40.8116
-37.7839
-35.2297
-33.4028
-32.5639
-33.2788
-34.9748
-37.3833
-40.2465
-43.4802
-46.6607
-49.0871
-49.0126
-46.4406
-43.1334
-39.7921
-36.8358
-34.3412
-32.5551
-31.7313
-32.4204
-34.0638
-36.3995
-39.1757
-42.3098
-45.3891
-47.7331
-47.6463
-45.1331
-41.9072
-38.6498
-35.7676
-33.3345
-31.5895
-30.7781
-31.4341
-33.0158
-35.2692
-37.9514
-40.9833
-43.9667
-46.2399
-46.152
-43.7025
-40.5454
-37.3325
-34.4393
-31.907
-29.9019
-28.5491
-28.1237
-27.6281
-27.1264
-27.9598
-30.8018
-35.8557
-42.4797
-45.4366
-56.1115
-57.9998
-50.8282
-44.1734
-38.0781
-33.6588
-30.5333
-32.0973
-34.7419
-38.4066
-42.4888
-47.7767
-53.6357
-60.2023
-60.0321
-53.1022
-46.9429
-41.3702
-37.0324
-33.0883
-30.1128
-28.0152
-29.9544
-32.7585
-36.4871
-40.5705
-45.8023
-51.5552
-57.9824
-57.903
-51.3097
-45.4335
-40.107
-35.9529
-32.167
-29.3071
-27.2933
-29.2013
-31.9466
-35.591
-39.5778
-44.6816
-50.2869
-56.5431
-56.4572
-50.0219
-44.2885
-39.093
-35.0414
-31.3494
-28.5595
-26.5935
-28.4476
-31.1156
-34.6567
-38.528
-43.4817
-48.9169
-54.9777
-54.877
-48.6065
-43.0229
-37.9655
-34.0214
-30.4277
-27.7107
-25.7928
-27.5794
-30.1555
-33.5776
-37.3229
-42.1225
-47.4029
-53.307
-53.232
-47.1748
-41.7738
-36.8806
-33.0468
-29.5347
-26.7857
-24.6818
-25.7764
-24.8747
-21.6973
-21.3227
-24.5627
-32.4208
-45.736
-39.4663
-77.0484
-80.2577
-54.4684
-44.4656
-34.0312
-28.3472
-18.6411
-26.5668
-30.3802
-36.1894
-40.3031
-48.4569
-56.6761
-78.0152
-77.845
-55.9287
-47.4338
-38.9395
-34.6401
-28.5907
-24.6787
-16.8203
-24.5491
-28.3426
-34.1565
-38.2463
-46.2964
-54.3155
-75.0149
-74.9355
-53.967
-45.842
-37.714
-33.5915
-27.7708
-23.9933
-16.3751
-23.9181
-27.6238
-33.3058
-37.3004
-45.1611
-52.9756
-73.132
-73.0449
-52.5926
-44.6688
-36.7469
-32.7291
-27.0586
-23.3775
-15.9546
-23.3029
-26.9101
-32.4384
-36.3214
-43.9603
-51.5435
-71.0948
-70.992
-51.0906
-43.3808
-35.6777
-31.7706
-26.2585
-22.6812
-15.4728
-22.5877
-26.0768
-31.4203
-35.1763
-42.5691
-49.941
-68.9835
-68.9262
-49.7019
-42.271
-34.9031
-31.1909
-26.0635
-22.7406
-16.2085
-26.3037
-25.3982
-12.2318
-9.48062
-11.6732
-21.1277
-52.0838
-38.0274
-38.1297
-38.2023
-38.2395
-38.2397
-38.2048
-38.1398
-38.0519
-37.9495
-37.8416
-37.7368
-37.6429
-37.5666
-37.5127
-37.485
-38.0481
-38.1594
-38.2375
-38.2765
-38.2748
-38.2349
-38.1627
-38.0662
-37.9549
-37.8384
-37.7258
-37.6254
-37.5439
-37.4866
-37.4571
-38.0919
-38.2221
-38.3117
-38.354
-38.3478
-38.2971
-38.2096
-38.0953
-37.9654
-37.8311
-37.7025
-37.5887
-37.4969
-37.4326
-37.3995
-38.1642
-38.3253
-38.4331
-38.4798
-38.4653
-38.396
-38.2831
-38.1398
-37.9803
-37.8179
-37.6644
-37.5299
-37.4222
-37.3472
-37.3088
-38.2741
-38.4817
-38.6156
-38.6667
-38.6373
-38.5386
-38.3868
-38.2005
-37.998
-37.7956
-37.6072
-37.4441
-37.3147
-37.2252
-37.1795
-38.4366
-38.7116
-38.8807
-38.934
-38.8787
-38.734
-38.5249
-38.2774
-38.0154
-37.7591
-37.5247
-37.3244
-37.1672
-37.0593
-37.0044
-38.6758
-39.0474
-39.2616
-39.3097
-39.2093
-38.9936
-38.7012
-38.3686
-38.027
-37.7006
-37.4079
-37.1615
-36.9704
-36.8402
-36.7743
-39.0313
-39.5404
-39.8085
-39.8337
-39.655
-39.3299
-38.9176
-38.4689
-38.0231
-37.6086
-37.2445
-36.9432
-36.7125
-36.5567
-36.4783
-39.5692
-40.2744
-40.5982
-40.5616
-40.2469
-39.7534
-39.1703
-38.566
-37.9878
-37.4659
-37.0181
-36.6544
-36.3795
-36.1957
-36.1037
-40.4061
-41.3897
-41.7482
-41.5675
-41.0175
-40.2664
-39.4441
-38.6369
-37.8961
-37.2489
-36.7077
-36.2765
-35.9554
-35.7427
-35.6369
-41.759
-43.1298
-43.4372
-42.9427
-41.989
-40.8505
-39.7027
-38.6413
-37.7107
-36.9259
-36.2871
-35.7885
-35.4226
-35.1829
-35.0642
-44.0651
-45.9331
-45.9279
-44.7768
-43.1452
-41.4438
-39.8746
-38.5149
-37.3795
-36.4566
-35.7261
-35.1675
-34.7638
-34.5017
-34.3728
-48.2996
-50.6092
-49.564
-47.0912
-44.3708
-41.9047
-39.8371
-38.1642
-36.8356
-35.7949
-34.993
-34.3918
-33.963
-33.6873
-33.5524
-56.9333
-58.6401
-54.6276
-49.6529
-45.3418
-41.9671
-39.4046
-37.469
-36.0039
-34.8942
-34.0592
-33.4434
-33.0092
-32.732
-32.5969
-77.2618
-72.3902
-60.6532
-51.5507
-45.376
-41.2169
-38.345
-36.3032
-34.8166
-33.7187
-32.9061
-32.3133
-31.8983
-31.6344
-31.5062
-21.4672
-21.501
-21.57
-21.6771
-21.8275
-22.0296
-22.2976
-22.6553
-23.1459
-23.8519
-24.9442
-26.8057
-30.3415
-37.5717
-50.6578
-20.5221
-20.5427
-20.5842
-20.6476
-20.7347
-20.8485
-20.9942
-21.1815
-21.43
-21.7827
-22.3462
-23.4296
-26.1268
-35.2329
-75.9403
-19.5629
-19.5698
-19.5832
-19.6017
-19.6235
-19.6453
-19.6619
-19.6653
-19.6418
-19.5673
-19.3874
-18.9326
-17.4605
-10.9477
24.9899
-18.5989
-18.5926
-18.5786
-18.5537
-18.5124
-18.4457
-18.339
-18.1677
-17.8893
-17.4252
-16.6197
-15.1419
-12.294
-7.097
-3.60556
-17.6393
-17.6208
-17.5816
-17.517
-17.4189
-17.274
-17.0609
-16.7446
-16.2657
-15.5204
-14.319
-12.3025
-8.75866
-2.06265
13.6134
-16.6926
-16.6634
-16.6023
-16.5037
-16.358
-16.1497
-15.8546
-15.4344
-14.8272
-13.9324
-12.5846
-10.5239
-7.41226
-3.26508
-1.66832
-15.7663
-15.7282
-15.6491
-15.5233
-15.3406
-15.0857
-14.7353
-14.254
-13.5886
-12.6589
-11.3456
-9.47511
-6.78501
-2.69706
5.49859
-14.8666
-14.8214
-14.7286
-14.5823
-14.3734
-14.0882
-13.7069
-13.2015
-12.5336
-11.6519
-10.4937
-8.99558
-7.12853
-4.98216
-2.98004
-13.9982
-13.9479
-13.8451
-13.6848
-13.4592
-13.1574
-12.7647
-12.262
-11.6271
-10.837
-9.87783
-8.7723
-7.66607
-7.16766
-10.0671
-13.1647
-13.111
-13.0016
-12.8326
-12.598
-12.2899
-11.8988
-11.4144
-10.8284
-10.1395
-9.36365
-8.54955
-7.78158
-6.99414
-4.26474
-12.3687
-12.3128
-12.1996
-12.0261
-11.788
-11.4802
-11.0977
-10.6374
-10.1012
-9.5025
-8.87606
-8.29482
-7.91064
-8.1698
-11.4674
-11.6114
-11.5545
-11.4395
-11.2644
-11.0263
-10.7223
-10.3508
-9.91302
-9.41738
-8.88482
-8.35714
-7.90327
-7.59299
-7.23602
-4.47199
-10.8938
-10.8366
-10.7213
-10.5465
-10.3104
-10.0115
-9.64983
-9.22894
-8.75929
-8.26379
-7.78699
-7.41206
-7.30781
-7.9744
-12.0427
-10.2159
-10.159
-10.0445
-9.8713
-9.63821
-9.34431
-8.99005
-8.57876
-8.1192
-7.62983
-7.14616
-6.73291
-6.48736
-6.35104
-4.06059
-9.57762
-9.52138
-9.40839
-9.23772
-9.00827
-8.71908
-8.36992
-7.96214
-7.49986
-6.99194
-6.45649
-5.93733
-5.59112
-6.22417
-12.8636
-8.97844
-8.92326
-8.81241
-8.64502
-8.41987
-8.13553
-7.79055
-7.38343
-6.91225
-6.37323
-5.75554
-5.02169
-4.01489
-1.92676
6.14157
-8.41763
-8.36383
-8.25576
-8.09249
-7.8726
-7.59414
-7.25438
-6.84923
-6.3718
-5.80921
-5.1353
-4.29564
-3.18962
-1.78279
-1.66689
-7.89422
-7.84213
-7.73748
-7.57931
-7.36605
-7.09537
-6.76367
-6.36526
-5.89054
-5.32254
-4.6302
-3.7546
-2.57331
-0.742859
3.40492
-7.40704
-7.35698
-7.25642
-7.10442
-6.89943
-6.639
-6.31933
-5.93434
-5.47409
-4.92225
-4.25241
-3.42589
-2.40784
-1.3127
-1.44048
-6.95465
-6.90694
-6.81112
-6.66638
-6.47134
-6.22382
-5.9204
-5.55571
-5.12131
-4.60395
-3.98348
-3.23021
-2.29595
-1.03379
1.51193
-6.53545
-6.49034
-6.39983
-6.26332
-6.07975
-5.8475
-5.56405
-5.22555
-4.82617
-4.35728
-3.80683
-3.16027
-2.4118
-1.64674
-1.65227
-6.14761
-6.10531
-6.02054
-5.89296
-5.722
-5.50677
-5.24596
-4.9377
-4.57933
-4.16731
-3.69696
-3.16112
-2.53922
-1.72504
-0.0588732
-5.78919
-5.74981
-5.67102
-5.55278
-5.39503
-5.19772
-4.96088
-4.68469
-4.3698
-4.01787
-3.63262
-3.22177
-2.80022
-2.39548
-2.06782
-5.45816
-5.42171
-5.34894
-5.24007
-5.09557
-4.91618
-4.70315
-4.45858
-4.18604
-3.89162
-3.5861
-3.2899
-3.04957
-3.01288
-3.84824
-5.15247
-5.11888
-5.05195
-4.95216
-4.82038
-4.65803
-4.46736
-4.25195
-4.01751
-3.77313
-3.53314
-3.31927
-3.15755
-3.02517
-2.40659
-4.87013
-4.83926
-4.77781
-4.68649
-4.56645
-4.41958
-4.24878
-4.05857
-3.85592
-3.65161
-3.46208
-3.31247
-3.2452
-3.37558
-4.33558
-4.60928
-4.58089
-4.52446
-4.44079
-4.3312
-4.19778
-4.04372
-3.87385
-3.69554
-3.51988
-3.36335
-3.24851
-3.19564
-3.15035
-2.46008
-4.36819
-4.34202
-4.29007
-4.21313
-4.11254
-3.99036
-3.84967
-3.69504
-3.53334
-3.3749
-3.2357
-3.14156
-3.14087
-3.37345
-4.57451
-4.14529
-4.12109
-4.07305
-4.00192
-3.9089
-3.79582
-3.66532
-3.52119
-3.3689
-3.21659
-3.07682
-2.96974
-2.92414
-2.92447
-2.32781
-3.93923
-3.91676
-3.87212
-3.80594
-3.71923
-3.61342
-3.49048
-3.35302
-3.20452
-3.04962
-2.89526
-2.75525
-2.67555
-2.8905
-4.86017
-3.74882
-3.72785
-3.68616
-3.62425
-3.54284
-3.44294
-3.32575
-3.19257
-3.0446
-2.88231
-2.70379
-2.49892
-2.22237
-1.6384
0.683477
-3.57299
-3.55336
-3.51429
-3.45612
-3.37934
-3.28451
-3.17214
-3.04241
-2.89466
-2.7263
-2.53064
-2.29239
-1.98271
-1.59353
-1.60269
-3.41082
-3.39241
-3.3557
-3.30094
-3.2284
-3.13829
-3.03063
-2.9048
-2.75905
-2.5893
-2.3871
-2.13549
-1.7983
-1.27239
-0.0528823
-3.26147
-3.24418
-3.20969
-3.15814
-3.08967
-3.0043
-2.90174
-2.78106
-2.64015
-2.47486
-2.27789
-2.03804
-1.74497
-1.43322
-1.4971
-3.12415
-3.10793
-3.07555
-3.02712
-2.96271
-2.88227
-2.78547
-2.6714
-2.53819
-2.38244
-2.19851
-1.97756
-1.70464
-1.33353
-0.567545
-2.99812
-2.98292
-2.95259
-2.90722
-2.8469
-2.77164
-2.68122
-2.57505
-2.45191
-2.30964
-2.14486
-1.95319
-1.73254
-1.50834
-1.52289
-2.88267
-2.86846
-2.8401
-2.79773
-2.7415
-2.67155
-2.58792
-2.49052
-2.37895
-2.25248
-2.1099
-1.94898
-1.76293
-1.51764
-1.00558
-2.77711
-2.76383
-2.73736
-2.69788
-2.64565
-2.58097
-2.50423
-2.41584
-2.31636
-2.20654
-2.0877
-1.96223
-1.83448
-1.7125
-1.61421
-2.6808
-2.66839
-2.64368
-2.60692
-2.55846
-2.49881
-2.42864
-2.3489
-2.26096
-2.16689
-2.07015
-1.97707
-1.90206
-1.89118
-2.15399
-2.59312
-2.5815
-2.5584
-2.5241
-2.47907
-2.42396
-2.35972
-2.28768
-2.20983
-2.12912
-2.05007
-1.9794
-1.92513
-1.88008
-1.68313
-2.51354
-2.50261
-2.48091
-2.44877
-2.4067
-2.35548
-2.29622
-2.23052
-2.16071
-2.09023
-2.02419
-1.97035
-1.94182
-1.97475
-2.26752
-2.44157
-2.43122
-2.4107
-2.38034
-2.3407
-2.2926
-2.23722
-2.17624
-2.11208
-2.04827
-1.98988
-1.94374
-1.91586
-1.88923
-1.66238
-2.3768
-2.36692
-2.34733
-2.31837
-2.28059
-2.2348
-2.18213
-2.12418
-2.06323
-2.00257
-1.94707
-1.90446
-1.88906
-1.94301
-2.2915
-2.31891
-2.30938
-2.29048
-2.26254
-2.22606
-2.18178
-2.13071
-2.07423
-2.01421
-1.95329
-1.89535
-1.8463
-1.81414
-1.79249
-1.58572
-2.26765
-2.25836
-2.23993
-2.21265
-2.17697
-2.1335
-2.08308
-2.02674
-1.96582
-1.90197
-1.83746
-1.77643
-1.73193
-1.77076
-2.31233
-2.22285
-2.21371
-2.19555
-2.16862
-2.13329
-2.09007
-2.03956
-1.98246
-1.91947
-1.85111
-1.77719
-1.69508
-1.59188
-1.40009
-0.712419
-2.18442
-2.17534
-2.15727
-2.13043
-2.09512
-2.05171
-2.00064
-1.94229
-1.87688
-1.80413
-1.72261
-1.62839
-1.51337
-1.37393
-1.33685
-2.15231
-2.14321
-2.12509
-2.09813
-2.06257
-2.01869
-1.96678
-1.90703
-1.83939
-1.76325
-1.67687
-1.57617
-1.45181
-1.27682
-0.921705
-2.12653
-2.11735
-2.09907
-2.07182
-2.03581
-1.99126
-1.93837
-1.87726
-1.80781
-1.7295
-1.64108
-1.54038
-1.42542
-1.3049
-1.27326
-2.10714
-2.09783
-2.07928
-2.05161
-2.01499
-1.96962
-1.91568
-1.85328
-1.7824
-1.70278
-1.61382
-1.51449
-1.40291
-1.27135
-1.05995
-2.09422
-2.08474
-2.06583
-2.03762
-2.00026
-1.95395
-1.89888
-1.83521
-1.76308
-1.68256
-1.59377
-1.49711
-1.39429
-1.29332
-1.24232
-2.0879
-2.0782
-2.05885
-2.02999
-1.99176
-1.94437
-1.88804
-1.82302
-1.74958
-1.66809
-1.57918
-1.48402
-1.38438
-1.28066
-1.15262
-2.08832
-2.07836
-2.0585
-2.02886
-1.98962
-1.941
-1.88326
-1.81669
-1.74167
-1.65877
-1.56896
-1.47403
-1.37732
-1.28495
-1.21035
-2.09567
-2.0854
-2.06494
-2.03441
-1.99401
-1.94398
-1.88461
-1.81623
-1.73925
-1.65426
-1.56228
-1.46528
-1.36724
-1.27697
-1.21614
-2.11016
-2.09953
-2.07837
-2.04681
-2.00508
-1.95345
-1.89222
-1.82174
-1.74239
-1.65461
-1.55911
-1.45724
-1.35179
-1.24861
-1.16048
-2.13202
-2.12099
-2.09902
-2.06628
-2.02303
-1.96958
-1.90626
-1.83343
-1.75138
-1.66032
-1.56037
-1.45169
-1.33477
-1.20984
-1.0626
-2.16155
-2.15005
-2.12715
-2.09306
-2.04808
-1.99256
-1.92691
-1.85152
-1.76663
-1.67221
-1.56771
-1.45186
-1.32332
-1.18661
-1.09278
-2.19906
-2.18702
-2.16306
-2.12741
-2.08044
-2.02258
-1.95434
-1.8762
-1.78849
-1.6911
-1.58292
-1.46086
-1.31753
-1.13364
-0.827347
-2.24494
-2.23227
-2.20707
-2.16963
-2.12036
-2.05981
-1.98863
-1.90753
-1.81708
-1.71747
-1.60779
-1.48462
-1.33991
-1.1657
-1.04769
-2.29962
-2.28622
-2.2596
-2.22006
-2.16811
-2.10441
-2.02983
-1.94534
-1.85204
-1.75085
-1.64202
-1.52333
-1.38279
-1.15874
-0.48756
-2.36359
-2.34936
-2.32108
-2.27911
-2.22401
-2.15659
-2.07789
-1.98928
-1.89247
-1.78953
-1.68308
-1.57722
-1.48366
-1.46227
-1.89506
-2.43745
-2.42226
-2.39207
-2.34727
-2.28848
-2.21658
-2.13283
-2.03892
-1.93714
-1.83064
-1.72374
-1.62256
-1.53442
-1.45032
-1.16952
-2.52185
-2.50557
-2.47321
-2.42515
-2.36204
-2.28481
-2.19482
-2.094
-1.9851
-1.87202
-1.76043
-1.65884
-1.58237
-1.57489
-1.87462
-2.61754
-2.60005
-2.56524
-2.51349
-2.44539
-2.36189
-2.26433
-2.1547
-2.03595
-1.91236
-1.79016
-1.67767
-1.58241
-1.48602
-1.16252
-2.72539
-2.70655
-2.66904
-2.61316
-2.53945
-2.44872
-2.3422
-2.22174
-2.09015
-1.95174
-1.81313
-1.68452
-1.58321
-1.55477
-1.83747
-2.8463
-2.82602
-2.78558
-2.72521
-2.64532
-2.54652
-2.42976
-2.2965
-2.14907
-1.99125
-1.82915
-1.67239
-1.53341
-1.40735
-1.09742
-2.98129
-2.95949
-2.91595
-2.85081
-2.76431
-2.65679
-2.52876
-2.38108
-2.2152
-2.03373
-1.84146
-1.6479
-1.47464
-1.38749
-1.66955
-3.13142
-3.10804
-3.06131
-2.99125
-2.8979
-2.78128
-2.6414
-2.47829
-2.29216
-2.08368
-1.85467
-1.6093
-1.35604
-1.11114
-0.910575
-3.29777
-3.27281
-3.22285
-3.14785
-3.04764
-2.92192
-2.77016
-2.59149
-2.38462
-2.14788
-1.87923
-1.57616
-1.23163
-0.803875
-0.0125595
-3.48145
-3.45491
-3.40179
-3.32195
-3.21508
-3.08064
-2.91761
-2.72425
-2.49783
-2.23421
-1.92769
-1.5718
-1.16499
-0.748971
-0.685366
-3.68355
-3.65548
-3.59928
-3.51479
-3.40167
-3.25921
-3.08609
-2.87997
-2.63687
-2.35033
-2.01044
-1.60278
-1.10475
-0.449208
0.80585
-3.90513
-3.87556
-3.8164
-3.72752
-3.60862
-3.45905
-3.27748
-3.06136
-2.80605
-2.50347
-2.14023
-1.6965
-1.15389
-0.565649
-0.553819
-4.14722
-4.1162
-4.05415
-3.96108
-3.83686
-3.68111
-3.49286
-3.26995
-3.00806
-2.69874
-2.32591
-1.85888
-1.23471
-0.281672
1.81665
-4.41086
-4.37835
-4.31343
-4.21625
-4.08699
-3.92574
-3.73228
-3.50561
-3.24299
-2.93809
-2.577
-2.13037
-1.54389
-0.792899
-0.657361
-4.69706
-4.66301
-4.59511
-4.49369
-4.35932
-4.19272
-3.99476
-3.76621
-3.50727
-3.21645
-2.88747
-2.49898
-1.96731
-0.876584
3.26382
-5.00688
-4.97118
-4.90004
-4.79401
-4.65401
-4.48147
-4.27847
-4.0479
-3.79369
-3.5213
-3.23925
-2.96701
-2.77894
-3.07796
-6.4164
-5.34148
-5.30395
-5.22919
-5.1179
-4.97128
-4.79136
-4.58131
-4.34598
-4.09273
-3.83283
-3.58422
-3.37659
-3.25228
-3.16848
-1.93893
-5.70212
-5.66255
-5.5837
-5.4663
-5.31167
-5.12217
-4.90169
-4.6565
-4.39638
-4.13652
-3.9007
-3.72829
-3.69749
-4.05449
-6.15728
-6.09023
-6.04841
-5.96498
-5.84053
-5.67626
-5.47446
-5.23922
-4.97736
-4.69983
-4.4235
-4.17314
-3.98165
-3.87338
-3.72799
-2.28689
-6.50737
-6.46314
-6.37474
-6.2424
-6.06689
-5.84998
-5.59522
-5.3091
-5.00245
-4.69241
-4.40469
-4.1772
-4.07504
-4.30114
-6.07719
-6.95521
-6.90854
-6.81498
-6.67424
-6.48626
-6.25175
-5.973
-5.65507
-5.30741
-4.94583
-4.59439
-4.2857
-4.04874
-3.79774
-2.44012
-7.43544
-7.38648
-7.28796
-7.13886
-6.93792
-6.68423
-6.37796
-6.02167
-5.62202
-5.19218
-4.75438
-4.34439
-4.03217
-4.06262
-5.76175
-7.94966
-7.89881
-7.79607
-7.63945
-7.42621
-7.15321
-6.81766
-6.41835
-5.9576
-5.44403
-4.89506
-4.33516
-3.77761
-3.16844
-2.36273
-8.49917
-8.44715
-8.34157
-8.17935
-7.95597
-7.6656
-7.30162
-6.85767
-6.32985
-5.72045
-5.04329
-4.32428
-3.55887
-2.41052
1.59532
-9.08478
-9.03266
-8.92637
-8.76171
-8.53224
-8.22909
-7.84109
-7.35524
-6.75872
-6.0439
-5.22057
-4.34559
-3.60605
-3.63675
-7.19089
-9.70656
-9.65577
-9.55168
-9.38907
-9.15964
-8.8515
-8.44848
-7.92964
-7.26973
-6.44269
-5.43366
-4.27283
-3.11835
-2.41629
-2.91976
-10.3636
-10.3159
-10.2176
-10.0628
-9.84168
-9.53978
-9.13628
-8.60198
-7.89678
-6.96781
-5.75214
-4.19564
-2.31647
-0.358844
1.00163
-11.0537
-11.0111
-10.9228
-10.7825
-10.5798
-10.2986
-9.91489
-9.39299
-8.67921
-7.692
-6.30725
-4.34253
-1.5691
2.11313
5.86768
-11.7734
-11.7379
-11.664
-11.5456
-11.3724
-11.1285
-10.7894
-10.3172
-9.65149
-8.69219
-7.26505
-5.05103
-1.45288
4.53469
13.3409
-12.5178
-12.4914
-12.4361
-12.3467
-12.2141
-12.0246
-11.7564
-11.3758
-10.8276
-10.0172
-8.76923
-6.7207
-2.99605
4.99869
26.9295
-152.021
-91.288
-63.7615
-50.6064
-43.5592
-39.3491
-36.6128
-34.7254
-33.3718
-32.3795
-31.6475
-31.1143
-30.7412
-30.504
-30.3887
-189.268
-85.4089
-56.6071
-45.5063
-39.9372
-36.6276
-34.4483
-32.9203
-31.8075
-30.9812
-30.3653
-29.9131
-29.5948
-29.3917
-29.2927
49.1521
-27.4071
-37.1604
-36.5645
-34.7458
-33.1209
-31.8315
-30.8267
-30.0443
-29.4366
-28.9693
-28.6187
-28.3683
-28.2069
-28.1279
-7.05686
-15.7973
-24.9006
-28.4717
-29.4197
-29.3811
-29.017
-28.5785
-28.1597
-27.7943
-27.4923
-27.2548
-27.0799
-26.965
-26.9081
27.2386
-3.93429
-16.4826
-22.2004
-24.7787
-25.8673
-26.2539
-26.3166
-26.2381
-26.1079
-25.9704
-25.8473
-25.7497
-25.6827
-25.6488
-1.25656
-5.00437
-12.8079
-18.1092
-21.1721
-22.8409
-23.7158
-24.1526
-24.3523
-24.4267
-24.4382
-24.4221
-24.3982
-24.3774
-24.3658
12.1659
-3.25732
-10.8708
-15.5723
-18.5334
-20.3659
-21.4817
-22.1533
-22.5534
-22.789
-22.9253
-23.0024
-23.0444
-23.0658
-23.0746
-3.01871
-6.93317
-10.9558
-14.2439
-16.6786
-18.3885
-19.5562
-20.3425
-20.8688
-21.2201
-21.4535
-21.6069
-21.7048
-21.7627
-21.7896
-15.4861
-10.5334
-11.551
-13.5082
-15.327