/*--------------------------------*- C++ -*----------------------------------*\
| =========                 |                                                 |
| \\      /  F ield         | OpenFOAM: The Open Source CFD Toolbox           |
|  \\    /   O peration     | Version:  5.x                                   |
|   \\  /    A nd           | Web:      www.OpenFOAM.org                      |
|    \\/     M anipulation  |                                                 |
\*---------------------------------------------------------------------------*/
FoamFile
{
    version     2.0;
    format      ascii;
    class       volScalarField;
    location    "3.8";
    object      T;
}
// * * * * * * * * * * * * * * * * * * * * * * * * * * * * * * * * * * * * * //

dimensions      [0 0 0 1 0 0 0];

internalField   nonuniform List<scalar> 
6300
(
322.848
322.544
322.239
321.931
321.622
321.31
320.993
320.673
320.348
320.018
319.682
319.341
318.993
318.64
318.281
322.848
322.545
322.24
321.934
321.625
321.313
320.998
320.678
320.353
320.023
319.688
319.347
318.999
318.646
318.287
322.849
322.547
322.244
321.939
321.631
321.321
321.006
320.687
320.364
320.034
319.699
319.358
319.011
318.658
318.298
322.85
322.55
322.249
321.946
321.64
321.332
321.019
320.702
320.379
320.051
319.717
319.376
319.029
318.676
318.315
322.852
322.554
322.256
321.956
321.653
321.347
321.036
320.721
320.401
320.074
319.741
319.401
319.054
318.7
318.339
322.853
322.56
322.265
321.968
321.669
321.366
321.059
320.746
320.428
320.103
319.772
319.433
319.086
318.731
318.369
322.856
322.566
322.276
321.984
321.688
321.389
321.086
320.777
320.462
320.14
319.81
319.472
319.125
318.77
318.406
322.858
322.574
322.289
322.002
321.711
321.417
321.118
320.814
320.503
320.184
319.857
319.52
319.174
318.817
318.451
322.861
322.583
322.304
322.023
321.738
321.45
321.157
320.857
320.551
320.236
319.912
319.578
319.232
318.874
318.505
322.865
322.594
322.321
322.047
321.769
321.488
321.201
320.908
320.608
320.298
319.979
319.647
319.302
318.943
318.57
322.869
322.605
322.34
322.074
321.804
321.53
321.252
320.966
320.673
320.371
320.057
319.729
319.387
319.027
318.649
322.873
322.618
322.362
322.104
321.843
321.578
321.309
321.032
320.748
320.454
320.148
319.827
319.488
319.129
318.746
322.877
322.632
322.385
322.137
321.886
321.631
321.372
321.106
320.833
320.55
320.254
319.942
319.61
319.254
318.869
322.882
322.647
322.41
322.172
321.932
321.689
321.441
321.188
320.928
320.659
320.377
320.078
319.756
319.407
319.026
322.888
322.663
322.437
322.21
321.982
321.75
321.516
321.277
321.032
320.78
320.516
320.235
319.931
319.592
319.218
317.947
317.639
317.328
317.013
316.696
316.375
316.051
315.725
315.397
315.066
314.734
314.4
314.064
313.727
313.389
313.05
312.71
312.37
312.029
311.689
311.348
311.008
310.667
310.326
309.986
309.645
309.305
308.965
308.625
308.285
307.945
307.606
307.267
306.929
306.591
306.254
305.918
305.582
305.246
304.911
304.576
304.242
303.908
303.574
303.241
302.909
302.577
302.246
301.915
301.585
301.256
300.927
300.599
300.272
299.945
299.619
299.293
298.968
298.643
298.319
297.995
297.672
297.35
297.029
296.708
296.388
296.069
295.751
295.433
295.116
294.799
294.483
294.168
293.853
293.538
293.224
292.911
292.598
292.286
291.974
291.662
291.351
291.04
290.728
290.417
290.105
289.792
289.478
289.163
288.848
317.952
317.644
317.333
317.018
316.7
316.379
316.055
315.729
315.4
315.069
314.736
314.402
314.066
313.728
313.39
313.05
312.711
312.37
312.03
311.689
311.348
311.007
310.667
310.326
309.986
309.645
309.305
308.964
308.624
308.284
307.945
307.605
307.266
306.928
306.591
306.253
305.917
305.581
305.245
304.91
304.576
304.241
303.907
303.574
303.241
302.908
302.576
302.245
301.914
301.584
301.255
300.926
300.598
300.271
299.944
299.618
299.292
298.967
298.642
298.318
297.994
297.671
297.349
297.028
296.707
296.387
296.068
295.75
295.432
295.115
294.798
294.482
294.167
293.852
293.537
293.223
292.91
292.597
292.285
291.973
291.662
291.351
291.04
290.729
290.417
290.106
289.793
289.479
289.165
288.849
317.963
317.655
317.343
317.027
316.708
316.387
316.062
315.735
315.406
315.075
314.741
314.406
314.069
313.731
313.392
313.052
312.712
312.371
312.03
311.689
311.348
311.007
310.667
310.326
309.985
309.645
309.304
308.964
308.624
308.283
307.943
307.604
307.265
306.927
306.589
306.252
305.915
305.579
305.244
304.909
304.574
304.24
303.906
303.572
303.239
302.906
302.574
302.242
301.912
301.582
301.253
300.924
300.596
300.269
299.943
299.616
299.291
298.965
298.64
298.316
297.992
297.669
297.347
297.025
296.705
296.385
296.066
295.748
295.43
295.113
294.797
294.481
294.165
293.85
293.536
293.222
292.908
292.595
292.283
291.972
291.661
291.351
291.04
290.73
290.419
290.107
289.795
289.482
289.168
288.852
317.98
317.67
317.357
317.041
316.721
316.399
316.073
315.745
315.415
315.083
314.749
314.413
314.075
313.736
313.396
313.055
312.713
312.372
312.03
311.689
311.348
311.007
310.666
310.326
309.985
309.645
309.304
308.963
308.622
308.282
307.942
307.602
307.262
306.924
306.586
306.249
305.913
305.577
305.242
304.907
304.573
304.238
303.904
303.57
303.237
302.904
302.571
302.239
301.908
301.578
301.249
300.921
300.594
300.267
299.94
299.614
299.289
298.963
298.638
298.313
297.989
297.666
297.343
297.022
296.701
296.381
296.063
295.745
295.427
295.111
294.794
294.479
294.163
293.848
293.533
293.219
292.906
292.593
292.281
291.97
291.66
291.35
291.041
290.731
290.421
290.111
289.799
289.486
289.172
288.856
318.002
317.691
317.377
317.059
316.738
316.414
316.088
315.759
315.428
315.094
314.759
314.422
314.082
313.742
313.4
313.058
312.715
312.373
312.03
311.688
311.347
311.006
310.666
310.325
309.985
309.644
309.304
308.962
308.621
308.28
307.939
307.598
307.259
306.92
306.582
306.245
305.909
305.574
305.239
304.905
304.571
304.236
303.902
303.568
303.234
302.9
302.567
302.235
301.904
301.574
301.245
300.917
300.59
300.264
299.938
299.612
299.286
298.96
298.635
298.31
297.985
297.661
297.338
297.016
296.696
296.376
296.058
295.741
295.424
295.108
294.792
294.476
294.16
293.845
293.53
293.215
292.902
292.589
292.277
291.967
291.658
291.349
291.041
290.733
290.425
290.115
289.805
289.493
289.179
288.863
318.03
317.718
317.402
317.082
316.759
316.433
316.106
315.775
315.443
315.109
314.772
314.433
314.092
313.75
313.406
313.061
312.717
312.373
312.029
311.687
311.346
311.005
310.665
310.325
309.985
309.645
309.304
308.962
308.62
308.278
307.936
307.594
307.254
306.914
306.577
306.24
305.905
305.57
305.236
304.903
304.569
304.234
303.9
303.565
303.23
302.895
302.561
302.229
301.897
301.567
301.239
300.912
300.585
300.26
299.934
299.609
299.283
298.957
298.631
298.305
297.98
297.655
297.332
297.01
296.689
296.37
296.052
295.736
295.42
295.104
294.788
294.473
294.157
293.841
293.526
293.211
292.896
292.584
292.272
291.962
291.654
291.347
291.041
290.735
290.429
290.122
289.813
289.502
289.188
288.872
318.065
317.75
317.431
317.109
316.784
316.456
316.127
315.795
315.462
315.126
314.788
314.447
314.104
313.759
313.412
313.065
312.718
312.372
312.027
311.684
311.343
311.003
310.664
310.325
309.985
309.645
309.304
308.962
308.619
308.275
307.931
307.588
307.247
306.907
306.569
306.233
305.899
305.566
305.233
304.901
304.567
304.233
303.898
303.562
303.226
302.889
302.554
302.22
301.889
301.559
301.231
300.905
300.58
300.255
299.931
299.606
299.281
298.955
298.628
298.3
297.973
297.647
297.323
297
296.68
296.361
296.045
295.729
295.415
295.1
294.785
294.47
294.154
293.837
293.521
293.204
292.889
292.576
292.265
291.956
291.649
291.344
291.041
290.738
290.435
290.131
289.824
289.515
289.202
288.885
318.107
317.788
317.466
317.14
316.811
316.482
316.151
315.818
315.484
315.147
314.807
314.465
314.119
313.77
313.42
313.069
312.718
312.369
312.023
311.679
311.338
310.999
310.662
310.325
309.987
309.648
309.307
308.964
308.618
308.272
307.926
307.581
307.237
306.897
306.559
306.224
305.892
305.561
305.23
304.899
304.567
304.233
303.897
303.559
303.221
302.882
302.545
302.21
301.877
301.547
301.221
300.896
300.573
300.251
299.929
299.605
299.28
298.953
298.624
298.295
297.965
297.637
297.311
296.988
296.668
296.351
296.036
295.722
295.41
295.097
294.783
294.468
294.151
293.833
293.515
293.196
292.88
292.565
292.254
291.946
291.641
291.339
291.04
290.741
290.443
290.142
289.839
289.532
289.22
288.903
318.156
317.833
317.505
317.174
316.842
316.509
316.176
315.844
315.509
315.172
314.832
314.487
314.137
313.784
313.428
313.071
312.716
312.363
312.014
311.67
311.33
310.994
310.66
310.326
309.991
309.653
309.312
308.968
308.62
308.27
307.919
307.57
307.224
306.882
306.545
306.212
305.882
305.554
305.227
304.899
304.569
304.235
303.898
303.558
303.216
302.874
302.533
302.195
301.861
301.532
301.207
300.885
300.566
300.247
299.928
299.606
299.281
298.953
298.622
298.289
297.956
297.624
297.296
296.971
296.652
296.336
296.024
295.714
295.405
295.095
294.783
294.468
294.151
293.83
293.508
293.187
292.866
292.55
292.238
291.931
291.629
291.331
291.037
290.745
290.452
290.158
289.861
289.557
289.247
288.928
318.215
317.884
317.548
317.21
316.872
316.536
316.203
315.871
315.538
315.202
314.862
314.515
314.161
313.801
313.437
313.072
312.709
312.351
311.999
311.655
311.317
310.985
310.657
310.328
309.998
309.663
309.323
308.976
308.624
308.268
307.91
307.555
307.205
306.861
306.524
306.194
305.869
305.547
305.226
304.903
304.576
304.243
303.904
303.56
303.212
302.863
302.516
302.174
301.838
301.51
301.188
300.871
300.557
300.244
299.93
299.611
299.287
298.957
298.622
298.283
297.944
297.607
297.274
296.948
296.629
296.316
296.009
295.705
295.401
295.096
294.787
294.473
294.154
293.829
293.502
293.174
292.848
292.528
292.214
291.909
291.61
291.319
291.032
290.748
290.465
290.18
289.89
289.593
289.285
288.965
318.285
317.944
317.595
317.245
316.899
316.56
316.228
315.899
315.571
315.24
314.901
314.553
314.194
313.825
313.449
313.07
312.695
312.328
311.973
311.63
311.297
310.972
310.653
310.334
310.011
309.681
309.342
308.993
308.634
308.267
307.898
307.533
307.176
306.829
306.494
306.169
305.852
305.54
305.228
304.913
304.59
304.259
303.918
303.567
303.209
302.849
302.492
302.144
301.805
301.478
301.162
300.853
300.548
300.244
299.937
299.623
299.301
298.969
298.627
298.279
297.929
297.582
297.243
296.915
296.597
296.29
295.99
295.694
295.4
295.102
294.798
294.485
294.164
293.833
293.496
293.158
292.823
292.496
292.18
291.876
291.582
291.299
291.022
290.75
290.48
290.208
289.93
289.643
289.34
289.018
318.372
318.013
317.643
317.274
316.917
316.575
316.246
315.927
315.61
315.287
314.954
314.606
314.241
313.859
313.464
313.063
312.669
312.29
311.93
311.589
311.264
310.952
310.648
310.344
310.034
309.713
309.377
309.024
308.654
308.271
307.881
307.499
307.131
306.781
306.448
306.132
305.828
305.531
305.234
304.932
304.618
304.29
303.945
303.584
303.21
302.83
302.457
302.098
301.757
301.432
301.124
300.827
300.538
300.249
299.954
299.649
299.329
298.994
298.642
298.278
297.909
297.546
297.197
296.866
296.551
296.251
295.963
295.683
295.403
295.117
294.821
294.511
294.186
293.846
293.494
293.136
292.786
292.449
292.129
291.827
291.541
291.268
291.006
290.75
290.496
290.243
289.986
289.715
289.422
289.098
318.484
318.101
317.687
317.288
316.913
316.57
316.251
315.952
315.656
315.35
315.029
314.683
314.314
313.912
313.487
313.044
312.621
312.224
311.861
311.524
311.214
310.921
310.642
310.364
310.074
309.767
309.435
309.08
308.693
308.282
307.854
307.445
307.06
306.708
306.38
306.078
305.793
305.521
305.25
304.967
304.667
304.344
303.996
303.619
303.219
302.801
302.402
302.027
301.683
301.364
301.069
300.791
300.527
300.262
299.986
299.695
299.38
299.042
298.674
298.285
297.879
297.491
297.127
296.793
296.482
296.197
295.927
295.67
295.414
295.146
294.864
294.558
294.231
293.875
293.498
293.105
292.729
292.376
292.053
291.754
291.479
291.222
290.981
290.746
290.512
290.286
290.06
289.82
289.547
289.222
318.644
318.234
317.709
317.267
316.862
316.531
316.227
315.97
315.719
315.435
315.14
314.795
314.431
313.999
313.537
312.995
312.537
312.11
311.755
311.421
311.137
310.869
310.635
310.402
310.136
309.856
309.528
309.18
308.765
308.321
307.798
307.356
306.943
306.599
306.275
305.999
305.739
305.511
305.284
305.024
304.751
304.431
304.092
303.686
303.254
302.744
302.313
301.91
301.574
301.259
300.99
300.736
300.514
300.293
300.04
299.774
299.463
299.132
298.738
298.317
297.822
297.402
297.012
296.685
296.379
296.118
295.872
295.656
295.442
295.197
294.939
294.637
294.317
293.935
293.527
293.047
292.64
292.26
291.944
291.646
291.393
291.154
290.946
290.742
290.517
290.328
290.155
289.972
289.746
289.432
318.897
318.531
317.613
317.193
316.705
316.452
316.138
315.98
315.827
315.537
315.321
314.934
314.649
314.126
313.704
312.826
312.407
311.894
311.616
311.245
311.039
310.768
310.628
310.488
310.219
310.015
309.649
309.378
308.878
308.473
307.627
307.224
306.728
306.46
306.099
305.9
305.637
305.5
305.364
305.101
304.903
304.546
304.282
303.794
303.399
302.575
302.181
301.698
301.437
301.086
300.891
300.635
300.502
300.369
300.113
299.92
299.573
299.315
298.84
298.456
297.655
297.273
296.803
296.55
296.209
296.02
295.771
295.642
295.513
295.266
295.079
294.742
294.492
294.033
293.66
292.883
292.511
292.054
291.807
291.473
291.287
291.038
290.908
290.768
290.47
290.345
290.266
290.187
290.071
289.835
288.5
288.119
287.737
287.355
286.972
286.59
286.208
285.827
285.447
285.068
284.691
284.314
283.938
283.562
283.187
288.501
288.12
287.738
287.355
286.972
286.59
286.208
285.826
285.446
285.067
284.689
284.313
283.937
283.562
283.187
288.503
288.122
287.739
287.355
286.972
286.589
286.206
285.824
285.444
285.065
284.687
284.311
283.936
283.561
283.187
288.507
288.125
287.741
287.356
286.971
286.587
286.203
285.821
285.44
285.061
284.684
284.308
283.933
283.56
283.186
288.513
288.129
287.743
287.357
286.97
286.584
286.199
285.816
285.435
285.056
284.679
284.304
283.93
283.558
283.186
288.521
288.135
287.747
287.357
286.968
286.58
286.193
285.809
285.428
285.049
284.673
284.298
283.926
283.555
283.185
288.532
288.143
287.751
287.358
286.965
286.574
286.185
285.8
285.418
285.039
284.664
284.291
283.921
283.552
283.184
288.548
288.154
287.757
287.358
286.96
286.565
286.174
285.787
285.404
285.026
284.652
284.282
283.913
283.547
283.182
288.57
288.17
287.764
287.358
286.953
286.553
286.158
285.769
285.387
285.01
284.637
284.269
283.904
283.542
283.18
288.601
288.19
287.773
287.355
286.941
286.535
286.136
285.746
285.363
284.988
284.618
284.254
283.893
283.535
283.178
288.644
288.217
287.782
287.348
286.923
286.509
286.106
285.715
285.333
284.96
284.595
284.235
283.879
283.526
283.175
288.708
288.252
287.789
287.334
286.893
286.471
286.065
285.673
285.294
284.926
284.565
284.211
283.862
283.516
283.172
288.8
288.295
287.788
287.303
286.846
286.416
286.008
285.619
285.245
284.883
284.529
284.183
283.841
283.503
283.168
288.939
288.338
287.766
287.245
286.773
286.339
285.934
285.551
285.184
284.83
284.486
284.149
283.817
283.489
283.163
289.14
288.353
287.692
287.14
286.661
286.232
285.837
285.465
285.111
284.769
284.436
284.111
283.79
283.473
283.157
322.893
322.678
322.463
322.247
322.029
321.81
321.589
321.364
321.135
320.901
320.658
320.402
320.122
319.795
319.371
322.897
322.692
322.487
322.28
322.074
321.866
321.657
321.446
321.233
321.017
320.797
320.57
320.329
320.048
319.624
322.902
322.707
322.511
322.315
322.119
321.922
321.726
321.529
321.333
321.136
320.941
320.749
320.563
320.399
320.344
322.907
322.721
322.535
322.349
322.164
321.979
321.795
321.612
321.432
321.255
321.083
320.922
320.78
320.676
320.639
322.912
322.735
322.559
322.384
322.209
322.035
321.864
321.694
321.529
321.369
321.218
321.083
320.972
320.907
320.931
322.917
322.75
322.583
322.418
322.253
322.09
321.93
321.773
321.621
321.477
321.343
321.225
321.132
321.077
321.067
322.921
322.764
322.607
322.451
322.296
322.144
321.994
321.849
321.709
321.577
321.456
321.35
321.267
321.215
321.213
322.926
322.777
322.629
322.482
322.338
322.195
322.056
321.921
321.792
321.67
321.559
321.46
321.379
321.318
321.279
322.93
322.79
322.651
322.513
322.377
322.244
322.114
321.989
321.869
321.756
321.652
321.559
321.477
321.405
321.333
322.934
322.803
322.672
322.543
322.415
322.291
322.169
322.053
321.941
321.836
321.738
321.649
321.567
321.493
321.427
322.938
322.815
322.692
322.571
322.451
322.335
322.222
322.113
322.009
321.911
321.819
321.733
321.653
321.575
321.49
322.942
322.826
322.711
322.597
322.485
322.377
322.271
322.17
322.073
321.981
321.895
321.814
321.737
321.662
321.592
322.945
322.837
322.729
322.622
322.518
322.416
322.318
322.223
322.133
322.048
321.968
321.892
321.819
321.746
321.66
322.949
322.847
322.746
322.646
322.548
322.453
322.361
322.273
322.19
322.111
322.037
321.968
321.903
321.838
321.776
322.952
322.856
322.762
322.668
322.577
322.488
322.402
322.321
322.243
322.171
322.103
322.042
321.985
321.93
321.86
322.955
322.865
322.777
322.689
322.604
322.521
322.441
322.365
322.293
322.227
322.166
322.112
322.065
322.031
322.027
322.958
322.874
322.791
322.709
322.629
322.551
322.477
322.406
322.34
322.279
322.224
322.176
322.138
322.112
322.102
322.96
322.882
322.804
322.727
322.652
322.58
322.51
322.444
322.383
322.326
322.276
322.234
322.201
322.182
322.186
322.963
322.889
322.816
322.744
322.674
322.606
322.541
322.479
322.422
322.37
322.324
322.285
322.255
322.237
322.229
322.965
322.896
322.827
322.76
322.694
322.63
322.569
322.512
322.458
322.409
322.366
322.33
322.301
322.284
322.281
322.967
322.902
322.837
322.774
322.712
322.652
322.595
322.541
322.491
322.445
322.404
322.368
322.34
322.32
322.307
322.969
322.908
322.847
322.787
322.729
322.673
322.619
322.568
322.52
322.476
322.437
322.403
322.374
322.352
322.339
322.971
322.913
322.856
322.8
322.745
322.692
322.641
322.593
322.547
322.505
322.467
322.433
322.403
322.377
322.355
322.973
322.918
322.864
322.811
322.759
322.709
322.661
322.615
322.572
322.531
322.494
322.46
322.428
322.399
322.368
322.974
322.923
322.872
322.822
322.773
322.725
322.68
322.636
322.595
322.556
322.519
322.485
322.453
322.422
322.392
322.976
322.927
322.879
322.831
322.785
322.74
322.697
322.655
322.616
322.578
322.543
322.509
322.476
322.444
322.409
322.977
322.931
322.885
322.84
322.796
322.754
322.713
322.673
322.635
322.599
322.565
322.532
322.5
322.468
322.437
322.978
322.935
322.891
322.849
322.807
322.766
322.727
322.689
322.653
322.619
322.586
322.554
322.523
322.491
322.456
322.979
322.938
322.897
322.856
322.817
322.778
322.741
322.705
322.67
322.638
322.606
322.576
322.547
322.518
322.488
322.98
322.941
322.902
322.863
322.826
322.789
322.754
322.719
322.686
322.655
322.626
322.597
322.57
322.544
322.513
322.981
322.944
322.907
322.87
322.834
322.799
322.765
322.733
322.701
322.672
322.644
322.618
322.594
322.573
322.561
322.982
322.946
322.911
322.876
322.842
322.809
322.776
322.745
322.715
322.687
322.661
322.637
322.615
322.597
322.583
322.983
322.949
322.915
322.882
322.849
322.817
322.786
322.757
322.728
322.701
322.676
322.654
322.634
322.618
322.608
322.984
322.951
322.919
322.887
322.856
322.825
322.796
322.767
322.74
322.714
322.69
322.669
322.65
322.634
322.621
322.984
322.953
322.922
322.892
322.862
322.832
322.804
322.777
322.751
322.726
322.703
322.682
322.663
322.648
322.637
322.985
322.955
322.925
322.896
322.867
322.839
322.812
322.785
322.76
322.736
322.714
322.693
322.675
322.659
322.645
322.986
322.957
322.928
322.9
322.872
322.845
322.819
322.793
322.769
322.746
322.724
322.704
322.685
322.668
322.655
322.986
322.958
322.931
322.904
322.877
322.851
322.825
322.801
322.777
322.754
322.733
322.713
322.694
322.676
322.659
322.987
322.96
322.933
322.907
322.881
322.856
322.831
322.807
322.784
322.762
322.741
322.721
322.701
322.683
322.663
322.987
322.961
322.935
322.91
322.885
322.86
322.836
322.813
322.791
322.769
322.748
322.728
322.709
322.689
322.671
322.987
322.962
322.937
322.913
322.888
322.865
322.841
322.819
322.797
322.775
322.755
322.735
322.715
322.696
322.676
322.988
322.963
322.939
322.915
322.892
322.868
322.846
322.824
322.802
322.781
322.761
322.742
322.722
322.703
322.685
322.988
322.964
322.941
322.917
322.894
322.872
322.85
322.828
322.807
322.787
322.767
322.748
322.729
322.71
322.69
322.988
322.965
322.942
322.919
322.897
322.875
322.853
322.832
322.812
322.792
322.773
322.754
322.736
322.718
322.7
322.989
322.966
322.943
322.921
322.899
322.878
322.857
322.836
322.816
322.797
322.778
322.76
322.742
322.725
322.707
322.989
322.967
322.945
322.923
322.901
322.88
322.859
322.839
322.82
322.801
322.783
322.765
322.749
322.734
322.721
322.989
322.967
322.946
322.924
322.903
322.882
322.862
322.842
322.823
322.805
322.787
322.77
322.754
322.74
322.727
322.989
322.968
322.946
322.925
322.904
322.884
322.864
322.845
322.826
322.808
322.791
322.774
322.759
322.745
322.734
322.989
322.968
322.947
322.926
322.906
322.885
322.866
322.847
322.828
322.81
322.794
322.778
322.763
322.749
322.737
322.989
322.968
322.947
322.927
322.906
322.887
322.867
322.848
322.83
322.813
322.796
322.78
322.766
322.752
322.74
322.99
322.969
322.948
322.927
322.907
322.887
322.868
322.849
322.831
322.814
322.798
322.782
322.768
322.754
322.742
322.99
322.969
322.948
322.928
322.907
322.888
322.868
322.85
322.832
322.815
322.799
322.783
322.769
322.756
322.743
322.99
322.969
322.948
322.928
322.907
322.888
322.869
322.85
322.832
322.815
322.799
322.784
322.77
322.756
322.744
322.99
322.969
322.948
322.927
322.907
322.887
322.868
322.85
322.832
322.815
322.799
322.784
322.77
322.756
322.744
322.989
322.968
322.947
322.927
322.907
322.887
322.867
322.849
322.831
322.814
322.798
322.783
322.769
322.756
322.744
322.989
322.968
322.947
322.926
322.906
322.886
322.866
322.847
322.83
322.812
322.796
322.781
322.767
322.755
322.743
322.989
322.968
322.946
322.925
322.904
322.884
322.864
322.846
322.827
322.81
322.794
322.779
322.765
322.752
322.741
322.989
322.967
322.945
322.924
322.903
322.882
322.862
322.843
322.825
322.807
322.791
322.776
322.762
322.749
322.739
322.989
322.966
322.944
322.922
322.901
322.88
322.86
322.84
322.821
322.804
322.787
322.772
322.757
322.745
322.734
322.988
322.966
322.943
322.92
322.898
322.877
322.856
322.836
322.817
322.799
322.782
322.766
322.752
322.739
322.729
322.988
322.965
322.941
322.918
322.896
322.874
322.852
322.832
322.813
322.794
322.777
322.761
322.745
322.731
322.716
322.988
322.963
322.939
322.916
322.892
322.87
322.848
322.827
322.807
322.788
322.771
322.754
322.738
322.723
322.709
322.987
322.962
322.937
322.913
322.889
322.865
322.843
322.822
322.801
322.782
322.764
322.747
322.731
322.715
322.699
322.987
322.961
322.935
322.909
322.885
322.861
322.837
322.815
322.794
322.775
322.756
322.739
322.722
322.707
322.693
322.986
322.959
322.932
322.906
322.88
322.855
322.831
322.808
322.787
322.766
322.748
322.73
322.714
322.698
322.683
322.986
322.957
322.929
322.902
322.875
322.849
322.824
322.8
322.778
322.757
322.738
322.721
322.705
322.69
322.676
322.985
322.955
322.926
322.897
322.869
322.842
322.816
322.791
322.768
322.747
322.727
322.71
322.694
322.681
322.667
322.984
322.953
322.922
322.892
322.862
322.834
322.807
322.781
322.757
322.735
322.715
322.698
322.683
322.671
322.661
322.983
322.951
322.918
322.886
322.855
322.825
322.797
322.77
322.745
322.722
322.702
322.684
322.67
322.66
322.654
322.983
322.948
322.913
322.88
322.847
322.815
322.785
322.757
322.731
322.707
322.686
322.669
322.655
322.645
322.64
322.982
322.945
322.908
322.873
322.838
322.805
322.773
322.743
322.715
322.69
322.668
322.65
322.636
322.628
322.627
322.98
322.941
322.903
322.865
322.828
322.793
322.759
322.727
322.698
322.671
322.648
322.628
322.614
322.605
322.603
322.979
322.938
322.897
322.857
322.818
322.78
322.744
322.71
322.679
322.65
322.625
322.603
322.588
322.579
322.582
322.978
322.934
322.89
322.848
322.806
322.766
322.727
322.691
322.657
322.626
322.599
322.575
322.556
322.544
322.54
322.976
322.93
322.883
322.838
322.793
322.75
322.709
322.671
322.634
322.6
322.57
322.543
322.52
322.503
322.502
322.975
322.925
322.875
322.827
322.78
322.734
322.69
322.648
322.609
322.572
322.539
322.508
322.479
322.452
322.418
322.973
322.92
322.867
322.815
322.765
322.716
322.669
322.624
322.582
322.542
322.505
322.471
322.438
322.406
322.375
322.971
322.915
322.858
322.803
322.749
322.697
322.646
322.599
322.553
322.511
322.471
322.433
322.396
322.359
322.315
322.969
322.909
322.849
322.789
322.732
322.676
322.622
322.571
322.523
322.477
322.434
322.394
322.355
322.316
322.28
322.967
322.902
322.838
322.775
322.713
322.654
322.596
322.542
322.49
322.442
322.396
322.354
322.313
322.272
322.227
322.965
322.896
322.827
322.759
322.694
322.63
322.568
322.51
322.455
322.404
322.356
322.312
322.271
322.231
322.195
322.963
322.889
322.815
322.743
322.672
322.604
322.539
322.476
322.418
322.364
322.314
322.269
322.227
322.188
322.146
322.96
322.881
322.802
322.725
322.649
322.576
322.506
322.44
322.378
322.321
322.269
322.223
322.182
322.147
322.119
322.957
322.873
322.788
322.706
322.625
322.547
322.472
322.401
322.334
322.274
322.22
322.173
322.134
322.102
322.085
322.955
322.864
322.774
322.685
322.599
322.515
322.434
322.358
322.287
322.223
322.166
322.118
322.079
322.046
322.006
322.951
322.854
322.758
322.663
322.571
322.48
322.393
322.311
322.235
322.166
322.106
322.057
322.021
321.995
321.972
322.948
322.845
322.742
322.64
322.541
322.443
322.35
322.261
322.178
322.103
322.038
321.988
321.954
321.941
321.947
322.945
322.834
322.724
322.616
322.509
322.404
322.303
322.206
322.115
322.032
321.961
321.906
321.874
321.875
321.917
322.941
322.823
322.706
322.59
322.475
322.363
322.253
322.147
322.047
321.954
321.873
321.809
321.772
321.78
321.862
322.937
322.812
322.688
322.564
322.441
322.319
322.2
322.084
321.973
321.868
321.772
321.692
321.638
321.632
321.738
289.351
288.25
287.525
286.975
286.513
286.103
285.726
285.371
285.032
284.704
284.384
284.071
283.762
283.456
283.152
288.961
287.895
287.253
286.763
286.343
285.964
285.61
285.275
284.952
284.639
284.332
284.031
283.734
283.44
283.146
287.424
287.244
286.876
286.501
286.145
285.806
285.482
285.17
284.866
284.569
284.277
283.989
283.705
283.422
283.141
286.819
286.725
286.503
286.227
285.934
285.639
285.346
285.058
284.775
284.495
284.219
283.945
283.674
283.404
283.134
286.247
286.294
286.169
285.965
285.725
285.469
285.207
284.944
284.681
284.419
284.159
283.9
283.642
283.385
283.128
285.988
285.983
285.888
285.727
285.526
285.304
285.069
284.829
284.586
284.342
284.098
283.853
283.609
283.366
283.122
285.72
285.734
285.654
285.517
285.343
285.146
284.936
284.717
284.493
284.266
284.037
283.807
283.577
283.346
283.115
285.599
285.551
285.46
285.332
285.175
284.998
284.808
284.607
284.401
284.19
283.976
283.761
283.544
283.327
283.109
285.503
285.398
285.292
285.167
285.022
284.86
284.686
284.503
284.312
284.116
283.917
283.716
283.512
283.308
283.103
285.337
285.246
285.137
285.016
284.88
284.731
284.571
284.402
284.227
284.045
283.86
283.672
283.481
283.289
283.096
285.229
285.105
284.992
284.874
284.747
284.61
284.463
284.307
284.145
283.977
283.805
283.629
283.451
283.271
283.091
285.052
284.956
284.85
284.739
284.621
284.495
284.36
284.217
284.067
283.912
283.752
283.588
283.422
283.254
283.085
284.936
284.814
284.711
284.609
284.501
284.386
284.262
284.131
283.993
283.85
283.701
283.549
283.394
283.237
283.079
284.74
284.658
284.572
284.483
284.387
284.283
284.17
284.05
283.924
283.791
283.653
283.512
283.368
283.221
283.074
284.598
284.505
284.435
284.361
284.278
284.185
284.084
283.974
283.858
283.735
283.608
283.477
283.343
283.206
283.069
284.321
284.336
284.301
284.245
284.175
284.094
284.003
283.903
283.796
283.683
283.566
283.444
283.319
283.192
283.064
284.196
284.203
284.182
284.14
284.081
284.009
283.927
283.837
283.739
283.635
283.526
283.413
283.297
283.179
283.06
284.059
284.088
284.078
284.045
283.995
283.932
283.858
283.775
283.686
283.59
283.489
283.384
283.277
283.167
283.056
283.99
284
283.991
283.963
283.919
283.862
283.795
283.719
283.637
283.548
283.455
283.358
283.257
283.155
283.052
283.908
283.925
283.917
283.891
283.851
283.799
283.738
283.668
283.592
283.51
283.423
283.333
283.24
283.145
283.048
283.866
283.867
283.855
283.829
283.791
283.743
283.686
283.621
283.551
283.475
283.394
283.31
283.223
283.135
283.045
283.817
283.818
283.802
283.775
283.739
283.693
283.639
283.579
283.513
283.442
283.367
283.289
283.208
283.126
283.042
283.794
283.779
283.758
283.729
283.692
283.648
283.598
283.541
283.479
283.413
283.343
283.27
283.195
283.117
283.039
283.774
283.746
283.719
283.688
283.651
283.608
283.56
283.507
283.449
283.387
283.321
283.253
283.182
283.11
283.037
283.739
283.712
283.683
283.65
283.613
283.572
283.526
283.475
283.421
283.362
283.301
283.237
283.171
283.103
283.034
283.715
283.681
283.649
283.615
283.579
283.539
283.495
283.447
283.395
283.34
283.282
283.222
283.16
283.097
283.032
283.677
283.647
283.616
283.583
283.547
283.509
283.467
283.421
283.372
283.32
283.266
283.209
283.151
283.091
283.03
283.651
283.616
283.584
283.552
283.518
283.481
283.441
283.397
283.351
283.302
283.251
283.197
283.142
283.086
283.029
283.609
283.582
283.553
283.523
283.49
283.455
283.417
283.376
283.332
283.286
283.237
283.186
283.134
283.081
283.027
283.578
283.548
283.522
283.495
283.465
283.432
283.395
283.356
283.315
283.271
283.224
283.176
283.127
283.077
283.026
283.519
283.512
283.493
283.469
283.441
283.41
283.376
283.339
283.299
283.257
283.213
283.168
283.121
283.073
283.024
283.493
283.484
283.467
283.446
283.42
283.391
283.358
283.323
283.285
283.245
283.203
283.16
283.115
283.069
283.023
283.466
283.46
283.446
283.426
283.401
283.373
283.342
283.309
283.272
283.234
283.194
283.152
283.11
283.066
283.022
283.452
283.442
283.428
283.408
283.385
283.358
283.328
283.296
283.261
283.225
283.186
283.146
283.105
283.063
283.021
283.437
283.427
283.413
283.394
283.371
283.345
283.316
283.285
283.252
283.216
283.179
283.141
283.101
283.061
283.02
283.429
283.417
283.401
283.382
283.36
283.334
283.306
283.276
283.243
283.209
283.173
283.136
283.098
283.059