/*--------------------------------*- C++ -*----------------------------------*\
| =========                 |                                                 |
| \\      /  F ield         | OpenFOAM: The Open Source CFD Toolbox           |
|  \\    /   O peration     | Version:  5.x                                   |
|   \\  /    A nd           | Web:      www.OpenFOAM.org                      |
|    \\/     M anipulation  |                                                 |
\*---------------------------------------------------------------------------*/
FoamFile
{
    version     2.0;
    format      ascii;
    class       volScalarField;
    location    "8.2";
    object      gradTx;
}
// * * * * * * * * * * * * * * * * * * * * * * * * * * * * * * * * * * * * * //

dimensions      [0 -1 0 1 0 0 0];

internalField   nonuniform List<scalar> 
3200
(
45.2115
3.71173
1.64867
1.54013
0.814937
0.771351
0.466725
0.44727
0.293827
0.282721
0.170835
0.166692
0.180697
0.180846
0.173154
0.172313
0.159531
0.158414
0.14429
0.143107
0.12882
0.12765
0.113845
0.11275
0.100209
0.0993216
0.0901455
0.0901391
0.0950683
0.164738
0.0824902
0.0552492
0.0534211
0.0416732
0.0408461
0.0332488
0.03269
0.0269735
0.026544
0.021986
0.0216395
0.0179009
0.0176134
0.014466
0.0142189
0.0114512
0.0112242
0.00856219
0.00832352
0.00520149
0.00507073
0.00506986
0.00502226
0.00395752
0.00384448
0.0021943
0.00202888
-0.000277289
-0.000514668
-0.00387196
-0.0042343
-0.00950028
-0.0101054
-0.019178
-0.020326
-0.0381856
-0.0408584
-0.0840569
-0.0929814
-0.238836
-0.617566
-0.436413
-0.681923
-0.713297
-1.2687
-1.24307
-0.0558169
-0.0075323
-0.00152605
-52.9456
47.896
3.10511
1.57724
1.35446
0.774047
0.680995
0.436317
0.394716
0.271787
0.248194
0.160332
0.151487
0.160987
0.161195
0.155216
0.153442
0.14336
0.140996
0.129818
0.127311
0.115997
0.113517
0.102588
0.100269
0.0903625
0.0884988
0.0814262
0.0815764
0.0883598
0.137355
0.0765913
0.0516097
0.0475385
0.0380066
0.0362328
0.0301761
0.0289876
0.0244475
0.0235355
0.019919
0.0191836
0.0162179
0.0156077
0.0131108
0.0125863
0.0103896
0.00990754
0.00779312
0.00728935
0.00485275
0.00457491
0.00452955
0.00442556
0.00358508
0.00334552
0.00203689
0.00168564
-0.000146891
-0.000651482
-0.00332296
-0.00409403
-0.0082919
-0.00958214
-0.0168399
-0.0192985
-0.0337007
-0.0394907
-0.075078
-0.0950036
-0.22718
-0.517943
-0.415034
-0.602321
-0.666916
-1.08545
-1.03179
-0.121892
-0.0209058
-0.00438819
-54.7418
50.5636
2.57634
1.4536
1.1831
0.713662
0.596704
0.397785
0.345416
0.245774
0.216238
0.146669
0.135548
0.141649
0.141791
0.137109
0.134904
0.12688
0.12393
0.114999
0.111867
0.102821
0.0997227
0.0909858
0.0880906
0.0801946
0.0778843
0.0724178
0.0727484
0.0799628
0.114362
0.0692611
0.0471337
0.0418743
0.0340296
0.0317908
0.0269087
0.0254193
0.0217763
0.0206351
0.0177367
0.0168169
0.0144407
0.0136775
0.0116767
0.0110206
0.00925934
0.00865618
0.00695961
0.00633249
0.00441765
0.00406978
0.00399157
0.00385831
0.0031886
0.00288931
0.00184117
0.00140166
-6.96191e-05
-0.000701627
-0.00284999
-0.00381669
-0.00719983
-0.00882018
-0.0146937
-0.0177933
-0.0295603
-0.0369312
-0.0667256
-0.0925357
-0.209181
-0.434067
-0.382047
-0.527626
-0.606376
-0.92109
-0.854746
-0.15561
-0.0309005
-0.00673394
-56.5378
53.2107
2.11313
1.29588
1.01969
0.639178
0.515691
0.353392
0.298007
0.216956
0.185883
0.130667
0.118921
0.12255
0.12258
0.118904
0.116599
0.110197
0.107103
0.0999476
0.0966602
0.0894062
0.0861536
0.0791502
0.0761124
0.0698032
0.067396
0.0631776
0.0636449
0.0704783
0.09455
0.0610119
0.0419829
0.0363135
0.0298283
0.0274545
0.0235056
0.0219371
0.019005
0.0178051
0.0154752
0.0145084
0.012599
0.0117968
0.0101888
0.00949907
0.00808276
0.00744853
0.0060833
0.00542712
0.00391986
0.00355386
0.00345578
0.00331251
0.0027773
0.00246305
0.0016211
0.00115893
-2.59256e-05
-0.000691125
-0.00242428
-0.0034427
-0.00617827
-0.0078881
-0.0126585
-0.0159413
-0.0255958
-0.0334747
-0.0585325
-0.0864345
-0.186852
-0.361268
-0.341156
-0.455605
-0.536399
-0.77197
-0.703018
-0.166352
-0.0368735
-0.00833406
-58.3336
55.8363
1.70405
1.11651
0.86046
0.554413
0.436231
0.304721
0.251624
0.186139
0.156494
0.112927
0.101678
0.103594
0.103518
0.100643
0.0984575
0.0933816
0.0904384
0.084742
0.0816119
0.0758318
0.0727344
0.0671558
0.0642652
0.0592556
0.0569802
0.05375
0.0542868
0.0603042
0.0770419
0.0521822
0.0362978
0.0307853
0.0254625
0.0231811
0.0200072
0.0185094
0.0161644
0.0150202
0.0131592
0.0122376
0.0107129
0.00994825
0.00866411
0.0080066
0.00687488
0.0062701
0.00517862
0.00455578
0.00337641
0.00302722
0.0029218
0.00278237
0.00235714
0.00205789
0.00138583
0.000945099
-3.0252e-06
-0.000637911
-0.00202717
-0.00300003
-0.00519775
-0.0068336
-0.0106828
-0.0138345
-0.0217023
-0.029331
-0.0502258
-0.0774326
-0.161564
-0.296249
-0.294884
-0.384929
-0.46023
-0.635031
-0.569999
-0.160806
-0.038809
-0.00906553
-60.1291
58.4417
1.33863
0.923885
0.703227
0.462134
0.357304
0.252915
0.205737
0.153889
0.127662
0.093894
0.0839092
0.084718
0.0845675
0.082355
0.0804317
0.0764809
0.0738842
0.0694336
0.0666695
0.0621501
0.0594146
0.0550539
0.0525026
0.0485987
0.0466025
0.0441716
0.0447094
0.0497013
0.0611976
0.0429935
0.0301977
0.0252494
0.0209751
0.0189434
0.0164418
0.0151155
0.0132757
0.0122639
0.0108056
0.00999088
0.00879641
0.00812049
0.00711437
0.00653309
0.00564592
0.00511114
0.00425518
0.00370669
0.00279974
0.00249081
0.00238916
0.00226366
0.00193194
0.00166763
0.0011413
0.00075156
7.33977e-06
-0.000554528
-0.00164672
-0.00250837
-0.00423971
-0.00569056
-0.00873507
-0.0115391
-0.0178183
-0.0246567
-0.0416665
-0.0661538
-0.134253
-0.236673
-0.244954
-0.314844
-0.380081
-0.507686
-0.450747
-0.143773
-0.0370543
-0.00890343
-61.9244
61.0295
1.00744
0.723495
0.546812
0.364404
0.278359
0.19882
0.160037
0.120613
0.0991314
0.0739097
0.0657083
0.0658804
0.0656995
0.0640553
0.062487
0.0595261
0.0574041
0.0540578
0.0517973
0.048397
0.0461597
0.0428797
0.0407941
0.0378655
0.0362422
0.0344744
0.0349538
0.0388382
0.0465413
0.0335885
0.0237837
0.0196866
0.0163979
0.0147246
0.0128293
0.0117422
0.010354
0.00952554
0.00842621
0.00775936
0.00685917
0.00630594
0.00554763
0.0050718
0.00440284
0.00396501
0.00331944
0.00287194
0.00219914
0.00194611
0.00185747
0.00175319
0.00150404
0.00128785
0.000891303
0.000572195
1.04058e-05
-0.000449936
-0.0012755
-0.00198192
-0.0032929
-0.00448378
-0.00679691
-0.00910466
-0.013912
-0.0195756
-0.0328082
-0.0531306
-0.10557
-0.180863
-0.192561
-0.244945
-0.297438
-0.387722
-0.341496
-0.118729
-0.032157
-0.00790553
-63.7193
63.603
0.70191
0.518815
0.390626
0.262819
0.199154
0.143094
0.114363
0.0866205
0.0707504
0.0532446
0.0471725
0.0470569
0.04689
0.0457526
0.044598
0.0425377
0.0409729
0.0386386
0.0369706
0.0345974
0.0329465
0.0306576
0.0291194
0.0270801
0.0258877
0.0246874
0.025062
0.0278223
0.0327113
0.0240575
0.0171413
0.0140915
0.0117561
0.0105145
0.00918449
0.00838097
0.00740978
0.00679798
0.00602953
0.00553716
0.00490804
0.00449957
0.00396957
0.00361822
0.00315052
0.00282718
0.00237576
0.00204619
0.00158175
0.00139483
0.0013264
0.00124851
0.00107482
0.000915279
0.000638201
0.000402533
9.41019e-06
-0.000330739
-0.000909039
-0.0014313
-0.00235088
-0.00323211
-0.00485897
-0.00657024
-0.00997148
-0.0141917
-0.0236663
-0.0388227
-0.0759723
-0.127596
-0.13854
-0.175042
-0.213284
-0.273219
-0.239307
-0.0882373
-0.0247668
-0.00619477
-65.514
66.1661
0.414174
0.311937
0.234424
0.158669
0.119645
0.0862754
0.0686484
0.0521526
0.0424349
0.0321221
0.0283984
0.0282355
0.0281193
0.0274506
0.0267452
0.0255295
0.0245725
0.0231927
0.0221722
0.0207689
0.0197588
0.0184055
0.0174647
0.0162607
0.0155335
0.0148373
0.0150747
0.0167212
0.0194229
0.014457
0.0103443
0.00846775
0.00707058
0.00630804
0.0055186
0.00502639
0.0044512
0.00407666
0.0036218
0.00332042
0.00294808
0.00269806
0.00238437
0.0021693
0.00189241
0.00169447
0.00142721
0.00122583
0.000953259
0.000838801
0.000795713
0.000747654
0.00064502
0.000547405
0.000383441
0.000239166
6.29297e-06
-0.000202018
-0.000544827
-0.000864778
-0.00141041
-0.00195062
-0.00291765
-0.00396822
-0.00599817
-0.00859761
-0.0142971
-0.023635
-0.0457958
-0.0759567
-0.0834963
-0.105069
-0.128261
-0.16247
-0.141805
-0.0542417
-0.0155808
-0.00394236
-67.3085
68.7227
0.136907
0.104071
0.0781523
0.0530491
0.0399089
0.028827
0.022889
0.0174136
0.0141431
0.0107361
0.00948194
0.00941221
0.00937071
0.00914997
0.00891288
0.00851089
0.00818904
0.00773241
0.00738913
0.00692462
0.00658482
0.00613693
0.00582047
0.00542229
0.00517805
0.0049499
0.00503112
0.00557797
0.00644121
0.0048224
0.00345786
0.00282482
0.00235964
0.00210262
0.00184082
0.00167513
0.00148459
0.00135856
0.00120792
0.00110652
0.000983215
0.00089909
0.000795209
0.000722842
0.000631138
0.000564532
0.000476013
0.000408314
0.000318438
0.000279918
0.000265217
0.000248982
0.000215022
0.000182183
0.00012789
7.93408e-05
2.1917e-06
-6.79193e-05
-0.00018153
-0.000289235
-0.000470149
-0.000652061
-0.000972991
-0.00132702
-0.00200209
-0.00287954
-0.00478235
-0.00793452
-0.0152994
-0.0252222
-0.0278917
-0.0350313
-0.0427985
-0.053916
-0.0469783
-0.0182901
-0.00531378
-0.00135232
-69.1028
68.7146
0.150884
0.128426
0.107467
0.0852101
0.0726952
0.0607371
0.0533354
0.0448801
0.038761
0.0310044
0.0281932
0.0283066
0.028205
0.0273716
0.0264738
0.0249584
0.0237719
0.0221281
0.0209348
0.0193788
0.0182835
0.0168969
0.0159514
0.0148067
0.0141301
0.0135404
0.0138387
0.0155182
0.0181054
0.0137285
0.0100713
0.00839197
0.00718078
0.00651446
0.00583584
0.00540273
0.00489849
0.00456022
0.00414904
0.00386772
0.00351929
0.00327729
0.00297234
0.00275504
0.00247244
0.00225974
0.00196601
0.00173018
0.00140767
0.00129491
0.00131276
0.00131459
0.00128188
0.00124332
0.00117552
0.00112137
0.00104502
0.000988349
0.000912415
0.000855587
0.000777472
0.000711968
0.000608833
0.000494741
0.000268718
-7.46963e-05
-0.000891919
-0.00243068
-0.00621721
-0.0117854
-0.0150695
-0.0220553
-0.0294902
-0.0404345
-0.036048
-0.0140879
-0.00409765
-0.00104318
-69.8075
66.1414
0.45602
0.385217
0.322453
0.255241
0.218063
0.182029
0.160048
0.134547
0.116348
0.0928153
0.0844627
0.0849283
0.0846443
0.0821174
0.0794463
0.074862
0.071334
0.0663664
0.0628189
0.0581179
0.054862
0.0506731
0.0478622
0.0444013
0.0423869
0.0405857
0.041461
0.0465183
0.0545949
0.0411566
0.0301347
0.0251572
0.0215205
0.0195439
0.0174977
0.0162111
0.0146889
0.0136836
0.0124419
0.0116058
0.0105536
0.0098344
0.00891352
0.00826775
0.00741453
0.00678247
0.00589571
0.00519403
0.00421463
0.00387952
0.00393894
0.00394515
0.00384589
0.00373114
0.00352602
0.00336501
0.00313428
0.00296582
0.00273648
0.00256761
0.00233191
0.00213741
0.00182694
0.0014887
0.000810854
-0.000205133
-0.00264689
-0.00720211
-0.0185804
-0.0354475
-0.0450604
-0.0661479
-0.0883303
-0.121917
-0.108847
-0.0417849
-0.0120155
-0.0030412
-69.4223
63.5608
0.77135
0.641687
0.537617
0.42407
0.363386
0.302759
0.266902
0.223922
0.194149
0.154019
0.140379
0.14158
0.141173
0.136869
0.132495
0.124723
0.118954
0.110548
0.104749
0.0967992
0.0914779
0.0843943
0.079799
0.073938
0.0706352
0.0675239
0.068916
0.0773977
0.091945
0.0684882
0.0499564
0.0418688
0.0357939
0.0325761
0.0291292
0.0270288
0.0244586
0.0228164
0.0207186
0.0193526
0.0175747
0.0163996
0.0148437
0.0137888
0.0123478
0.0113154
0.00981802
0.00866899
0.00699583
0.00644835
0.00656725
0.00657994
0.00641052
0.00622258
0.00587477
0.00561145
0.00522106
0.00494574
0.00455815
0.00428233
0.00388472
0.00356751
0.00304617
0.00249626
0.00136653
-0.000278528
-0.00431731
-0.0117006
-0.0307239
-0.0593998
-0.0745924
-0.110197
-0.146714
-0.205265
-0.183805
-0.0679901
-0.0191016
-0.00477895
-69.0371
60.9681
1.10395
0.897133
0.75316
0.590784
0.508706
0.422498
0.374041
0.312768
0.272364
0.214163
0.195703
0.198296
0.197858
0.191623
0.18568
0.174505
0.166679
0.154625
0.146766
0.135375
0.128164
0.118016
0.111786
0.103373
0.0988758
0.0942821
0.0960874
0.108035
0.130815
0.0956229
0.0693604
0.0585
0.0499531
0.0456175
0.040707
0.0378654
0.0341912
0.0319675
0.0289661
0.027116
0.0245716
0.0229801
0.0207539
0.0193253
0.0172648
0.015867
0.0137264
0.0121649
0.00973203
0.00899055
0.00919984
0.00922204
0.00897592
0.00872044
0.00822016
0.007863
0.00730326
0.00693017
0.00637536
0.00600193
0.00543433
0.00500579
0.00426656
0.00352703
0.00194283
-0.000256153
-0.00585393
-0.0157335
-0.0424813
-0.0838913
-0.103308
-0.154209
-0.204217
-0.291814
-0.262538
-0.0915183
-0.024805
-0.00609908
-68.6517
58.3589
1.4613
1.15007
0.969439
0.754287
0.654191
0.540726
0.481692
0.400779
0.351291
0.272718
0.250184
0.255133
0.254775
0.246366
0.239074
0.224152
0.214573
0.198535
0.188923
0.173785
0.164968
0.151481
0.143861
0.13265
0.12712
0.120784
0.122853
0.138238
0.172005
0.1224
0.0881485
0.0750387
0.0639439
0.0586821
0.052202
0.0487354
0.0438659
0.0411498
0.0371676
0.0349071
0.0315305
0.029586
0.0266322
0.0248871
0.0221553
0.0204483
0.0176117
0.0156958
0.0124006
0.0114948
0.0118399
0.0118749
0.0115417
0.0112281
0.0105599
0.0101227
0.00937803
0.0089219
0.00818534
0.00772933
0.0069784
0.00645652
0.00548698
0.00459161
0.00254375
-9.7799e-05
-0.00721924
-0.0190916
-0.0536522
-0.109262
-0.130764
-0.198257
-0.260216
-0.383038
-0.34694
-0.110874
-0.0285881
-0.00686946
-68.2661
55.7294
1.8514
1.39777
1.1871
0.913187
0.800211
0.656778
0.590219
0.487534
0.431382
0.329031
0.303565
0.312183
0.312014
0.301064
0.292774
0.273586
0.262726
0.242187
0.231302
0.211941
0.201959
0.184711
0.17608
0.161701
0.155397
0.146951
0.149087
0.167707
0.216529
0.148564
0.106091
0.0914969
0.0777015
0.0717954
0.0635765
0.0596616
0.0534545
0.0503828
0.0453002
0.042743
0.0384323
0.0362323
0.0324623
0.0304884
0.0270048
0.0250749
0.0214602
0.0192819
0.0149736
0.013949
0.0144925
0.0145425
0.0141068
0.01375
0.0128904
0.0123947
0.0114413
0.0109249
0.00998414
0.00946856
0.00851335
0.00792519
0.00670448
0.00570232
0.00316845
0.000239788
-0.00839447
-0.0215421
-0.063981
-0.135998
-0.15638
-0.242526
-0.31378
-0.480618
-0.439341
-0.124079
-0.0299485
-0.00699509
-67.8803
53.0767
2.28286
1.63576
1.40729
1.06565
0.94745
0.769755
0.70019
0.572427
0.51332
0.382268
0.355584
0.369584
0.369684
0.355656
0.346909
0.322687
0.311266
0.285454
0.27402
0.249722
0.239241
0.217597
0.208529
0.190429
0.18376
0.172694
0.174661
0.195967
0.265725
0.173708
0.122918
0.107923
0.0911436
0.0850014
0.0747791
0.0706796
0.0629178
0.0596964
0.053332
0.0506491
0.0452496
0.0429415
0.0382206
0.0361503
0.0317923
0.0297689
0.0252514
0.0229532
0.0174154
0.0163405
0.0171648
0.0172297
0.0166687
0.0162921
0.0152063
0.0146851
0.0134871
0.0129449
0.011766
0.0112254
0.0100337
0.0094192
0.00791327
0.00687434
0.00380898
0.000805643
-0.00938912
-0.0228209
-0.0731266
-0.164799
-0.179365
-0.287391
-0.36352
-0.586523
-0.542702
-0.128438
-0.0284618
-0.00643122
-67.4943
50.3994
2.76483
1.85701
1.63201
1.20918
1.09707
0.878406
0.81249
0.654574
0.598137
0.431331
0.405975
0.427541
0.42792
0.410037
0.401664
0.371275
0.360382
0.328145
0.317253
0.286951
0.27697
0.24998
0.241339
0.2187
0.212299
0.197915
0.199462
0.22229
0.321393
0.197203
0.138314
0.124421
0.10416
0.0983707
0.0857368
0.0818443
0.0721996
0.0691358
0.0612166
0.058664
0.0519434
0.0497474
0.043873
0.0419037
0.0364865
0.0345627
0.0289538
0.0267542
0.0196787
0.0186561
0.0198676
0.0199419
0.0192234
0.0188626
0.0174998
0.0170026
0.0155068
0.0149904
0.0135223
0.0130084
0.0115309
0.0109489
0.00910343
0.00812747
0.00444709
0.00165921
-0.0102542
-0.0226246
-0.0806174
-0.196683
-0.198612
-0.333531
-0.407386
-0.7031
-0.66088
-0.120226
-0.0238573
-0.00519684
-67.108
47.6984
3.30681
2.05094
1.86463
1.34027
1.25095
0.980948
0.928469
0.732662
0.687368
0.474736
0.454489
0.486346
0.486886
0.464037
0.457299
0.419085
0.410351
0.369983
0.361263
0.323367
0.315379
0.281629
0.274709
0.246321
0.241158
0.2225
0.223411
0.245562
0.385993
0.218087
0.15191
0.141174
0.116599
0.112014
0.096345
0.0932391
0.0812183
0.0787696
0.0688867
0.0668457
0.0584564
0.0567004
0.0493693
0.0477951
0.0410411
0.0395041
0.0325199
0.0307503
0.0216999
0.0208824
0.0226159
0.0226859
0.0217638
0.0214733
0.0197587
0.0193601
0.0174873
0.0170741
0.0152406
0.0148299
0.0129924
0.0125292
0.0102589
0.00948882
0.00504955
0.00287786
-0.011101
-0.0206034
-0.0857852
-0.233133
-0.212539
-0.382114
-0.442377
-0.833195
-0.798995
-0.0942422
-0.0161444
-0.00338675
-66.7216
44.9781
3.91822
2.20209
2.11079
1.45397
1.41206
1.07479
1.05018
0.804729
0.783292
0.510446
0.500919
0.546403
0.546788
0.517393
0.514194
0.465715
0.461587
0.410555
0.406439
0.358587
0.354818
0.312205
0.308938
0.273014
0.270556
0.246302
0.246512
0.264103
0.462926
0.234902
0.163289
0.158481
0.128237
0.126101
0.106451
0.104991
0.0898542
0.0887008
0.0762433
0.0752815
0.0647042
0.0638767
0.0546355
0.0538939
0.0453871
0.0446635
0.0358776
0.0350377
0.0233919
0.0230067
0.0254309
0.0254696
0.024279
0.024141
0.0219651
0.0217766
0.0194096
0.0192146
0.016902
0.0167086
0.014399
0.0141819
0.0113543
0.010997
0.00556137
0.00456886
-0.0121267
-0.0163549
-0.0876661
-0.276301
-0.218859
-0.435069
-0.464146
-0.98029
-0.963932
-0.0431923
-0.00581793
-0.00117783
-66.3351
44.9781
3.91822
2.20209
2.11079
1.45397
1.41205
1.07479
1.05018
0.804729
0.783292
0.510446
0.500919
0.546403
0.546788
0.517393
0.514194
0.465715
0.461587
0.410555
0.406439
0.358587
0.354818
0.312205
0.308939
0.273014
0.270556
0.246303
0.246512
0.264103
0.462927
0.234902
0.16329
0.158481
0.128237
0.126101
0.106451
0.104991
0.0898545
0.0887011
0.0762435
0.0752817
0.0647044
0.0638769
0.0546357
0.0538941
0.0453872
0.0446636
0.0358777
0.0350378
0.023392
0.0230068
0.025431
0.0254697
0.0242791
0.0241411
0.0219652
0.0217767
0.0194097
0.0192147
0.0169021
0.0167087
0.0143991
0.014182
0.0113544
0.0109971
0.00556147
0.00456896
-0.0121266
-0.0163548
-0.0876661
-0.276301
-0.218859
-0.435069
-0.464147
-0.980291
-0.963932
-0.0431923
-0.00581793
-0.00117784
-66.3351
47.6984
3.30681
2.05094
1.86463
1.34027
1.25095
0.980947
0.928469
0.732662
0.687368
0.474736
0.454489
0.486346
0.486886
0.464037
0.4573
0.419085
0.410352
0.369983
0.361263
0.323367
0.315379
0.281629
0.27471
0.246322
0.241158
0.2225
0.223412
0.245562
0.385993
0.218087
0.151911
0.141174
0.116599
0.112014
0.0963453
0.0932394
0.0812185
0.0787698
0.068887
0.0668459
0.0584566
0.0567007
0.0493695
0.0477953
0.0410412
0.0395043
0.0325201
0.0307504
0.0217
0.0208824
0.022616
0.0226859
0.0217639
0.0214734
0.0197588
0.0193602
0.0174874
0.0170742
0.0152407
0.01483
0.0129925
0.0125293
0.010259
0.00948893
0.00504965
0.00287796
-0.0111009
-0.0206033
-0.0857852
-0.233134
-0.212539
-0.382114
-0.442378
-0.833196
-0.798995
-0.0942423
-0.0161444
-0.00338673
-66.7216
50.3994
2.76483
1.85701
1.632
1.20918
1.09707
0.878406
0.81249
0.654574
0.598137
0.431331
0.405975
0.427541
0.42792
0.410037
0.401664
0.371276
0.360382
0.328145
0.317253
0.286951
0.27697
0.24998
0.241339
0.2187
0.212299
0.197916
0.199462
0.22229
0.321394
0.197204
0.138315
0.124422
0.104161
0.098371
0.0857371
0.0818445
0.0721998
0.069136
0.0612168
0.0586642
0.0519436
0.0497475
0.0438732
0.0419039
0.0364867
0.0345629
0.0289539
0.0267543
0.0196787
0.0186561
0.0198677
0.019942
0.0192235
0.0188627
0.0174999
0.0170027
0.0155069
0.0149905
0.0135224
0.0130085
0.011531
0.010949
0.00910352
0.00812756
0.00444718
0.0016593
-0.0102541
-0.0226245
-0.0806175
-0.196684
-0.198612
-0.333532
-0.407387
-0.703101
-0.66088
-0.120226
-0.0238573
-0.00519679
-67.108
53.0767
2.28286
1.63576
1.40729
1.06565
0.94745
0.769755
0.70019
0.572427
0.51332
0.382268
0.355584
0.369584
0.369684
0.355656
0.34691
0.322687
0.311266
0.285454
0.274021
0.249722
0.239241
0.217597
0.208529
0.190429
0.18376
0.172694
0.174661
0.195968
0.265726
0.173709
0.122919
0.107924
0.0911439
0.0850016
0.0747793
0.0706799
0.062918
0.0596966
0.0533322
0.0506493
0.0452498
0.0429417
0.0382208
0.0361504
0.0317924
0.029769
0.0252515
0.0229533
0.0174154
0.0163405
0.0171649
0.0172297
0.0166688
0.0162922
0.0152064
0.0146852
0.0134872
0.012945
0.0117661
0.0112255
0.0100337
0.00941928
0.00791335
0.00687442
0.00380906
0.000805718
-0.00938905
-0.0228208
-0.0731267
-0.164799
-0.179365
-0.287391
-0.363521
-0.586523
-0.542702
-0.128438
-0.0284618
-0.00643113
-67.4943
55.7294
1.8514
1.39777
1.1871
0.913187
0.800211
0.656778
0.590219
0.487534
0.431382
0.329031
0.303565
0.312183
0.312014
0.301064
0.292774
0.273586
0.262726
0.242187
0.231302
0.211941
0.20196
0.184711
0.17608
0.161701
0.155398
0.146951
0.149087
0.167707
0.21653
0.148564
0.106091
0.0914971
0.0777017
0.0717956
0.0635767
0.0596618
0.0534546
0.050383
0.0453004
0.0427431
0.0384324
0.0362324
0.0324625
0.0304886
0.0270049
0.025075
0.0214603
0.0192819
0.0149737
0.013949
0.0144925
0.0145426
0.0141069
0.0137501
0.0128904
0.0123948
0.0114414
0.010925
0.00998421
0.00946863
0.00851342
0.00792526
0.00670455
0.00570239
0.00316852
0.000239848
-0.00839442
-0.0215421
-0.0639811
-0.135998
-0.15638
-0.242526
-0.31378
-0.480618
-0.439342
-0.124079
-0.0299485
-0.00699498
-67.8803
58.3589
1.4613
1.15007
0.969439
0.754287
0.654191
0.540726
0.481692
0.400779
0.351291
0.272718
0.250184
0.255133
0.254775
0.246366
0.239074
0.224152
0.214573
0.198535
0.188924
0.173785
0.164969
0.151481
0.143862
0.132651
0.127121
0.120785
0.122853
0.138238
0.172005
0.122401
0.0881487
0.0750389
0.0639441
0.0586822
0.0522021
0.0487356
0.043866
0.04115
0.0371677
0.0349072
0.0315307
0.0295861
0.0266324
0.0248872
0.0221553
0.0204484
0.0176118
0.0156959
0.0124006
0.0114948
0.01184
0.011875
0.0115418
0.0112282
0.0105599
0.0101227
0.00937809
0.00892196
0.0081854
0.00772939
0.00697846
0.00645657
0.00548704
0.00459166
0.0025438
-9.77524e-05
-0.0072192
-0.0190916
-0.0536523
-0.109263
-0.130764
-0.198257
-0.260216
-0.383038
-0.346941
-0.110874
-0.0285881
-0.00686934
-68.2661
60.9681
1.10395
0.897133
0.75316
0.590784
0.508706
0.422498
0.374041
0.312768
0.272364
0.214163
0.195703
0.198296
0.197858
0.191623
0.18568
0.174505
0.166679
0.154625
0.146766
0.135376
0.128164
0.118016
0.111787
0.103373
0.0988759
0.0942822
0.0960876
0.108035
0.130816
0.0956231
0.0693606
0.0585001
0.0499533
0.0456177
0.0407071
0.0378656
0.0341913
0.0319676
0.0289662
0.0271161
0.0245717
0.0229801
0.020754
0.0193253
0.0172648
0.015867
0.0137265
0.012165
0.00973206
0.00899058
0.00919987
0.00922208
0.00897596
0.00872048
0.00822021
0.00786304
0.00730331
0.00693022
0.0063754
0.00600198
0.00543437
0.00500583
0.0042666
0.00352707
0.00194287
-0.00025612
-0.0058539
-0.0157335
-0.0424814
-0.0838914
-0.103308
-0.154209
-0.204217
-0.291814
-0.262538
-0.0915184
-0.024805
-0.00609896
-68.6517
63.5608
0.771348
0.641687
0.537617
0.42407
0.363386
0.302759
0.266902
0.223922
0.194149
0.154019
0.140379
0.14158
0.141173
0.136869
0.132495
0.124723
0.118954
0.110548
0.104749
0.0967993
0.091478
0.0843943
0.0797991
0.0739381
0.0706352
0.067524
0.068916
0.0773978
0.0919452
0.0684884
0.0499566
0.0418689
0.035794
0.0325762
0.0291293
0.0270289
0.0244586
0.0228165
0.0207187
0.0193527
0.0175747
0.0163996
0.0148438
0.0137888
0.0123479
0.0113155
0.00981806
0.00866903
0.00699586
0.00644837
0.00656727
0.00657997
0.00641055
0.00622261
0.0058748
0.00561148
0.0052211
0.00494577
0.00455818
0.00428236
0.00388475
0.00356754
0.0030462
0.00249629
0.00136655
-0.000278506
-0.0043173
-0.0117006
-0.030724
-0.0593999
-0.0745925
-0.110197
-0.146715
-0.205265
-0.183806
-0.0679902
-0.0191016
-0.00477885
-69.0371
66.1414
0.456019
0.385217
0.322453
0.255241
0.218063
0.182029
0.160048
0.134547
0.116348
0.0928153
0.0844627
0.0849283
0.0846443
0.0821174
0.0794463
0.074862
0.071334
0.0663664
0.062819
0.0581179
0.0548621
0.0506732
0.0478622
0.0444013
0.0423869
0.0405857
0.041461
0.0465184
0.054595
0.0411568
0.0301348
0.0251573
0.0215206
0.0195439
0.0174978
0.0162111
0.0146889
0.0136836
0.012442
0.0116059
0.0105537
0.00983443
0.00891355
0.00826778
0.00741456
0.0067825
0.00589573
0.00519405
0.00421465
0.00387953
0.00393895
0.00394516
0.0038459
0.00373115
0.00352604
0.00336503
0.0031343
0.00296584
0.0027365
0.00256763
0.00233193
0.00213743
0.00182696
0.00148872
0.000810868
-0.000205121
-0.00264689
-0.00720213
-0.0185804
-0.0354476
-0.0450605
-0.0661481
-0.0883305
-0.121917
-0.108847
-0.0417849
-0.0120155
-0.00304113
-69.4223
68.7146
0.150883
0.128426
0.107467
0.0852101
0.0726952
0.0607371
0.0533354
0.0448801
0.038761
0.0310044
0.0281932
0.0283066
0.028205
0.0273716
0.0264739
0.0249584
0.0237719
0.0221281
0.0209348
0.0193788
0.0182835
0.0168969
0.0159514
0.0148067
0.0141301
0.0135404
0.0138387
0.0155182
0.0181055
0.0137285
0.0100713
0.00839199
0.00718079
0.00651448
0.00583586
0.00540275
0.00489851
0.00456023
0.00414905
0.00386773
0.0035193
0.0032773
0.00297235
0.00275505
0.00247245
0.00225975
0.00196601
0.00173019
0.00140768
0.00129492
0.00131277
0.00131459
0.00128189
0.00124333
0.00117553
0.00112138
0.00104503
0.000988355
0.000912421
0.000855592
0.000777478
0.000711974
0.000608838
0.000494746
0.000268723
-7.4693e-05
-0.000891918
-0.00243068
-0.00621723
-0.0117854
-0.0150695
-0.0220554
-0.0294903
-0.0404346
-0.036048
-0.0140879
-0.00409765
-0.00104315
-69.8075
68.7223
0.136739
0.103793
0.0777589
0.0524418
0.0390532
0.0275025
0.0210891
0.0150023
0.0125849
0.011923
0.011573
0.0110198
0.0105817
0.00996781
0.00952184
0.00893947
0.00852143
0.00797816
0.00758715
0.00707751
0.00671207
0.00623887
0.00590768
0.00549455
0.00524171
0.0050053
0.00508369
0.00563186
0.00650061
0.00486534
0.00348724
0.00284798
0.00237834
0.00211892
0.00185478
0.00168767
0.00149553
0.00136847
0.00121664
0.00111444
0.000990205
0.000905452
0.000800811
0.000727924
0.000635573
0.000568506
0.000479383
0.000411227
0.000320752
0.000282005
0.000267288
0.000251025
0.000216974
0.000184046
0.000129615
8.09587e-05
3.66574e-06
-6.65479e-05
-0.00018029
-0.000288087
-0.000469116
-0.000651107
-0.000972134
-0.00132623
-0.00200138
-0.00287888
-0.00478174
-0.00793391
-0.0152987
-0.0252215
-0.0278912
-0.035031
-0.0427982
-0.0539158
-0.0469782
-0.01829
-0.00531376
-0.00135228
-69.1028
66.1648
0.413671
0.311103
0.233248
0.156848
0.117086
0.0823022
0.0632542
0.04486
0.0376844
0.0357565
0.0347271
0.0330549
0.0317521
0.0298967
0.028571
0.0268118
0.0255693
0.0239284
0.0227662
0.0212268
0.0201405
0.0187109
0.0177263
0.0164772
0.0157245
0.0150033
0.0152323
0.0168828
0.019602
0.0145857
0.0104322
0.00853715
0.00712659
0.00635695
0.00556046
0.005064
0.004484
0.00410641
0.00364793
0.00334421
0.00296904
0.00271715
0.00240116
0.00218455
0.00190571
0.0017064
0.00143731
0.00123457
0.000960185
0.000845052
0.000801924
0.000753785
0.000650875
0.000552998
0.000388612
0.000244021
1.07135e-05
-0.000197903
-0.000541109
-0.000861334
-0.00140731
-0.00194776
-0.00291508
-0.00396584
-0.00599604
-0.00859562
-0.0142952
-0.0236332
-0.0457939
-0.0759545
-0.0834947
-0.105068
-0.128261
-0.16247
-0.141804
-0.0542415
-0.0155807
-0.00394224
-67.3085
63.6009
0.701074
0.517424
0.388679
0.259789
0.19492
0.136472
0.105393
0.074269
0.062574
0.0595541
0.057907
0.0550751
0.0529446
0.0498044
0.0476374
0.0446635
0.0426331
0.0398595
0.0379603
0.0353579
0.0335827
0.0311652
0.0295555
0.0274401
0.026206
0.0249633
0.025324
0.0280909
0.0330128
0.0242716
0.0172868
0.0142069
0.0118492
0.0105961
0.00925414
0.00844367
0.00746436
0.00684758
0.00607303
0.00557683
0.00494293
0.00453141
0.00399753
0.00364366
0.00317266
0.00284708
0.00239258
0.00206078
0.00159325
0.00140522
0.00133676
0.00125873
0.00108457
0.000924609
0.000646816
0.00041063
1.67722e-05
-0.000323876
-0.000902849
-0.00142555
-0.00234573
-0.00322734
-0.00485469
-0.00656628
-0.00996792
-0.0141884
-0.0236632
-0.0388197
-0.0759691
-0.127592
-0.138537
-0.17504
-0.213282
-0.273218
-0.239307
-0.088237
-0.0247667
-0.00619461
-65.514
61.0266
1.00628
0.721549
0.544115
0.36017
0.272496
0.189548
0.147534
0.102901
0.0871166
0.0832968
0.0811342
0.0770673
0.0741776
0.0696732
0.0667362
0.0624775
0.0597266
0.0557556
0.0531826
0.0494559
0.0470505
0.0435871
0.041405
0.0383676
0.0366878
0.0348592
0.0353195
0.0392128
0.0469701
0.0338872
0.0239851
0.0198478
0.0165276
0.0148387
0.0129265
0.0118301
0.0104302
0.00959504
0.00848699
0.00781495
0.00690792
0.00635056
0.0055867
0.00510745
0.00443378
0.00399291
0.00334294
0.00289242
0.00221512
0.0019606
0.00187197
0.00176752
0.0015177
0.00130093
0.000903352
0.000583543
2.06998e-05
-0.000440319
-0.00126684
-0.00197387
-0.00328568
-0.00447709
-0.00679093
-0.00909911
-0.0139071
-0.0195709
-0.0328039
-0.0531264
-0.105565
-0.180858
-0.192557
-0.244943
-0.297436
-0.387721
-0.341495
-0.118728
-0.0321568
-0.00790535
-63.7193
58.438
1.33715
0.921383
0.699812
0.456699
0.349884
0.240986
0.189779
0.130379
0.111181
0.106973
0.104438
0.0990125
0.0954751
0.0894793
0.0858878
0.0802311
0.076869
0.0715957
0.068451
0.0635011
0.0605607
0.0559578
0.0532886
0.0492409
0.0471756
0.0446634
0.0451776
0.0501802
0.0617609
0.0433756
0.0304529
0.025456
0.0211408
0.0190902
0.0165663
0.0152286
0.0133735
0.0123534
0.0108835
0.0100625
0.00885892
0.00817795
0.00716447
0.00657901
0.00568559
0.0051471
0.00428531
0.00373311
0.00282008
0.00250934
0.00240782
0.00228213
0.0019495
0.00168448
0.00115677
0.000766174
2.05505e-05
-0.000542144
-0.00163562
-0.002498
-0.00423046
-0.00568194
-0.00872739
-0.011532
-0.017812
-0.0246507
-0.041661
-0.0661484
-0.134247
-0.236666
-0.244949
-0.314841
-0.380079
-0.507684
-0.450746
-0.143772
-0.0370542
-0.00890325
-61.9243
55.8318
1.70225
1.11345
0.856371
0.547776
0.427355
0.290116
0.232353
0.156248
0.134645
0.130583
0.127857
0.120882
0.116871
0.109189
0.105122
0.097893
0.0940878
0.0873507
0.0837916
0.0774658
0.0741373
0.0682511
0.0652274
0.0600348
0.0576812
0.0543466
0.0548562
0.0608843
0.0777504
0.0526454
0.0366036
0.0310369
0.0256633
0.0233607
0.0201586
0.0186478
0.0162833
0.0151298
0.013254
0.0123253
0.010789
0.0100186
0.00872511
0.00806287
0.00692318
0.00631421
0.00521529
0.00458824
0.00340095
0.0030497
0.00294462
0.002805
0.00237859
0.00207853
0.0014047
0.000962999
1.30792e-05
-0.000622744
-0.00201364
-0.00298733
-0.00518648
-0.00682304
-0.0106735
-0.0138258
-0.0216945
-0.0293237
-0.0502191
-0.0774261
-0.161557
-0.296241
-0.294878
-0.384926
-0.460227
-0.635029
-0.569998
-0.160806
-0.0388088
-0.00906537
-60.1291
53.2055
2.11104
1.29224
1.01499
0.631326
0.505499
0.336067
0.27566
0.179938
0.157408
0.154139
0.151446
0.142633
0.138414
0.128755
0.124483
0.115418
0.111424
0.102979
0.0992429
0.0913107
0.0878163
0.0804299
0.0772529
0.0707152