/*--------------------------------*- C++ -*----------------------------------*\
| =========                 |                                                 |
| \\      /  F ield         | OpenFOAM: The Open Source CFD Toolbox           |
|  \\    /   O peration     | Version:  5.x                                   |
|   \\  /    A nd           | Web:      www.OpenFOAM.org                      |
|    \\/     M anipulation  |                                                 |
\*---------------------------------------------------------------------------*/
FoamFile
{
    version     2.0;
    format      ascii;
    class       volScalarField;
    location    "4.8";
    object      gradTy;
}
// * * * * * * * * * * * * * * * * * * * * * * * * * * * * * * * * * * * * * //

dimensions      [0 -1 0 1 0 0 0];

internalField   nonuniform List<scalar> 
3200
(
18.2509
8.63674
11.7311
8.31336
9.75085
8.04084
8.79501
7.79387
8.24271
7.60201
7.87735
7.51857
7.72897
7.31875
7.53095
7.14077
7.3399
6.98139
7.16314
6.83924
7.00257
6.7136
6.8587
6.60351
6.73156
6.50732
6.62163
6.4219
6.53694
6.36771
6.23245
6.31967
6.20108
6.25879
6.16653
6.21124
6.13715
6.17311
6.11289
6.14214
6.093
6.11684
6.0768
6.09615
6.06376
6.07926
6.0536
6.06554
6.04635
6.05456
6.04343
6.0496
6.03797
6.04339
6.0344
6.03805
6.03308
6.03414
6.03477
6.03211
6.04083
6.0325
6.05383
6.03602
6.07878
6.04294
6.12664
6.04851
6.22322
6.00095
6.29314
7.10832
6.42148
7.94657
6.78013
9.89419
9.12396
9.00617
8.98186
8.97662
17.0112
9.75275
11.3334
8.77734
9.54803
8.27099
8.67475
7.92635
8.16551
7.68615
7.83316
7.56535
7.67748
7.37017
7.48226
7.18997
7.29526
7.02673
7.12286
6.88026
6.96666
6.75023
6.82701
6.63589
6.70367
6.53576
6.59644
6.44706
6.50943
6.37147
6.25732
6.30525
6.21668
6.24745
6.1784
6.2021
6.14663
6.16569
6.12059
6.13608
6.09928
6.1119
6.08191
6.09216
6.06791
6.07611
6.05689
6.06321
6.04883
6.0532
6.04488
6.04816
6.03945
6.0423
6.03556
6.03748
6.03375
6.0343
6.03476
6.03333
6.03984
6.03539
6.05132
6.04179
6.07372
6.05444
6.11683
6.07406
6.20343
6.0763
6.35159
6.9931
6.6232
7.76403
7.15736
9.5011
9.09786
9.00243
8.98109
8.97641
16.0617
10.5152
11.1012
9.10825
9.42713
8.4339
8.60057
8.01932
8.11706
7.74523
7.80556
7.59694
7.64278
7.40481
7.44975
7.22328
7.26557
7.05748
7.09613
6.90812
6.94287
6.77514
6.80603
6.65791
6.68521
6.55506
6.57965
6.46376
6.48993
6.37427
6.27571
6.2963
6.22751
6.2401
6.18655
6.19614
6.15314
6.16082
6.12586
6.13211
6.10358
6.10867
6.08542
6.08955
6.07075
6.07406
6.05916
6.0617
6.05056
6.05234
6.04587
6.0472
6.04045
6.04159
6.03637
6.03714
6.03425
6.03446
6.03482
6.03423
6.03929
6.03745
6.04984
6.0459
6.07072
6.06267
6.11122
6.09273
6.1939
6.13555
6.39538
6.91834
6.76448
7.65139
7.41658
9.21789
9.05945
8.99573
8.97966
8.97601
15.3341
11.0323
10.9721
9.34669
9.35871
8.55042
8.55631
8.08514
8.08739
7.78702
7.78873
7.61836
7.61942
7.42813
7.4281
7.24584
7.2459
7.07836
7.07846
6.92707
6.92718
6.7921
6.79222
6.67291
6.67305
6.56817
6.56848
6.47477
6.47611
6.37639
6.28934
6.29091
6.23509
6.2354
6.19218
6.19228
6.15761
6.15767
6.12949
6.12953
6.10654
6.10657
6.08784
6.08786
6.07272
6.07273
6.06074
6.06074
6.05178
6.05181
6.04654
6.04656
6.04115
6.04114
6.03695
6.03694
6.03463
6.03462
6.03493
6.0349
6.03901
6.03895
6.049
6.04886
6.06904
6.06864
6.1083
6.10662
6.19075
6.18208
6.42865
6.87065
6.86414
7.58362
7.59435
9.01308
9.01724
8.98711
8.97773
8.97546
14.7786
11.3798
10.9056
9.51964
9.3231
8.63437
8.53113
8.13202
8.06982
7.81673
7.77877
7.63291
7.60376
7.4438
7.41374
7.2611
7.23294
7.09253
7.06686
6.93996
6.9169
6.80366
6.78318
6.68314
6.66509
6.57707
6.56107
6.48198
6.46633
6.37801
6.29941
6.28782
6.24042
6.23243
6.19608
6.18981
6.1607
6.15564
6.13199
6.12787
6.10858
6.10522
6.0895
6.08678
6.07407
6.07189
6.06183
6.06014
6.05264
6.05149
6.047
6.04614
6.04163
6.04085
6.03736
6.03683
6.03492
6.03476
6.03505
6.03541
6.03891
6.04005
6.04858
6.05101
6.06817
6.07301
6.10703
6.11707
6.19131
6.2184
6.45411
6.84091
6.93476
7.5442
7.7158
8.86484
8.97641
8.97767
8.97551
8.97482
14.3591
11.6103
10.8756
9.64501
9.30718
8.6949
8.51779
8.16542
8.05989
7.83784
7.77313
7.6428
7.59333
7.45428
7.40428
7.27138
7.22446
7.10212
7.0593
6.9487
6.91022
6.8115
6.77732
6.69009
6.65993
6.58309
6.55618
6.48665
6.45945
6.37923
6.30681
6.28617
6.24417
6.2306
6.19878
6.18825
6.16282
6.15435
6.13371
6.12682
6.10998
6.10436
6.09065
6.08609
6.07501
6.07136
6.06259
6.05978
6.05324
6.05131
6.04732
6.04587
6.04195
6.04068
6.03765
6.03678
6.03513
6.03488
6.03516
6.03579
6.03889
6.04085
6.04839
6.05258
6.0678
6.0762
6.10673
6.12495
6.19376
6.24637
6.47352
6.82288
6.98475
7.5223
7.79816
8.7581
8.94
8.96837
8.97324
8.97416
14.0495
11.7603
10.8654
9.73467
9.30223
8.73803
8.51146
8.18894
8.05462
7.85265
7.77012
7.64945
7.58648
7.4612
7.39814
7.27822
7.219
7.10853
7.05446
6.95455
6.90595
6.81677
6.77359
6.69475
6.65663
6.58711
6.553
6.48962
6.4547
6.38014
6.31214
6.28537
6.24678
6.2295
6.20062
6.18729
6.16427
6.15356
6.13487
6.12616
6.11093
6.10383
6.09143
6.08567
6.07564
6.07103
6.06311
6.05956
6.05366
6.05121
6.04753
6.04569
6.04218
6.04057
6.03785
6.03677
6.03529
6.03498
6.03527
6.03607
6.03893
6.04143
6.04835
6.0537
6.06771
6.07852
6.10691
6.13081
6.19685
6.26737
6.48804
6.81235
7.01972
7.51086
7.85315
8.68249
8.90972
8.96
8.97112
8.97354
13.8314
11.8544
10.8647
9.79639
9.30256
8.76765
8.50896
8.20494
8.05205
7.86269
7.76862
7.6538
7.58212
7.46562
7.39427
7.28264
7.21559
7.11267
7.05144
6.95835
6.90331
6.82019
6.77128
6.69778
6.65459
6.58971
6.551
6.49146
6.45153
6.38079
6.31582
6.28504
6.24854
6.22887
6.20184
6.18672
6.16522
6.15308
6.13564
6.12577
6.11156
6.10351
6.09194
6.08541
6.07606
6.07084
6.06346
6.05943
6.05394
6.05116
6.04767
6.04558
6.04232
6.04051
6.03799
6.03677
6.03541
6.03506
6.03535
6.03627
6.03897
6.04183
6.04836
6.05447
6.06774
6.08013
6.10728
6.13498
6.19977
6.28235
6.49842
6.80649
7.04334
7.50538
7.88866
8.63096
8.88652
8.9532
8.96936
8.97301
13.6925
11.9091
10.8671
9.83514
9.30453
8.78622
8.50828
8.2149
8.05095
7.86891
7.76796
7.65642
7.57956
7.46824
7.39201
7.28527
7.21361
7.11515
7.04971
6.96062
6.90179
6.82224
6.76996
6.6996
6.65342
6.59127
6.54982
6.49252
6.4496
6.3812
6.31813
6.28493
6.24963
6.22853
6.20258
6.1864
6.1658
6.15281
6.13611
6.12555
6.11194
6.10333
6.09225
6.08527
6.07632
6.07074
6.06367
6.05937
6.05412
6.05113
6.04776
6.04552
6.04241
6.04048
6.03807
6.03677
6.03548
6.03511
6.03541
6.03639
6.03901
6.04208
6.04839
6.05496
6.0678
6.08115
6.10762
6.13767
6.20197
6.292
6.50512
6.80349
7.05795
7.50305
7.90981
8.5989
8.87088
8.94843
8.96809
8.97262
13.6248
11.9341
10.8691
9.85384
9.30601
8.79517
8.50822
8.21968
8.05057
7.87189
7.76773
7.65765
7.57837
7.46946
7.39097
7.2865
7.21271
7.11631
7.04891
6.96169
6.9011
6.8232
6.76935
6.70046
6.65289
6.59199
6.54928
6.493
6.44868
6.38141
6.31924
6.28492
6.25015
6.22838
6.20293
6.18626
6.16607
6.15269
6.13633
6.12545
6.11212
6.10326
6.0924
6.08521
6.07644
6.07069
6.06377
6.05934
6.0542
6.05112
6.0478
6.04549
6.04245
6.04046
6.03811
6.03677
6.03551
6.03514
6.03544
6.03646
6.03904
6.0422
6.04842
6.05519
6.06785
6.08164
6.10782
6.13899
6.20315
6.29673
6.5084
6.80224
7.06494
7.50225
7.91967
8.58352
8.86302
8.94597
8.96743
8.97242
-13.7483
-11.9431
-10.7142
-9.375
-8.56457
-7.67267
-7.11069
-6.4588
-6.04379
-5.56175
-5.26836
-4.94282
-4.70528
-4.3769
-4.14134
-3.82982
-3.61213
-3.33115
-3.13707
-2.88917
-2.71881
-2.50223
-2.35364
-2.16494
-2.03514
-1.86948
-1.75315
-1.59948
-1.47734
-1.29016
-1.11492
-1.0166
-0.914584
-0.849473
-0.771655
-0.719735
-0.655518
-0.612182
-0.558078
-0.521446
-0.475588
-0.44453
-0.405658
-0.379392
-0.346629
-0.324664
-0.297557
-0.279795
-0.258559
-0.245456
-0.230686
-0.219812
-0.204669
-0.193761
-0.179281
-0.169139
-0.156019
-0.146949
-0.135358
-0.127408
-0.117335
-0.110509
-0.101999
-0.0964683
-0.090023
-0.0867551
-0.0848355
-0.0883794
-0.102794
-0.13688
-0.227295
-0.373785
-0.528639
-0.815498
-1.11845
-1.62795
-1.84348
-1.90753
-1.92411
-1.92797
-13.8205
-11.92
-10.7186
-9.35385
-8.56783
-7.65948
-7.11429
-6.44934
-6.04647
-5.55421
-5.26965
-4.9393
-4.70892
-4.3732
-4.14438
-3.82607
-3.61467
-3.32768
-3.13922
-2.88608
-2.72067
-2.49951
-2.35524
-2.16259
-2.03658
-1.86751
-1.75465
-1.59822
-1.47995
-1.28968
-1.11185
-1.01675
-0.913111
-0.849984
-0.770622
-0.72023
-0.654686
-0.612615
-0.557382
-0.521818
-0.474999
-0.444845
-0.405156
-0.379654
-0.346199
-0.324871
-0.297185
-0.279936
-0.258236
-0.245525
-0.230533
-0.219984
-0.204501
-0.193905
-0.179109
-0.16926
-0.155859
-0.147051
-0.135213
-0.127494
-0.117207
-0.110577
-0.101881
-0.0965062
-0.0898971
-0.0867023
-0.0846181
-0.0879457
-0.102008
-0.134628
-0.225053
-0.373451
-0.523359
-0.814854
-1.11018
-1.63971
-1.84954
-1.90943
-1.92462
-1.92812
-13.9687
-11.869
-10.7295
-9.30957
-8.576
-7.63177
-7.12269
-6.42939
-6.05274
-5.53837
-5.27278
-4.93179
-4.71678
-4.36522
-4.15101
-3.81805
-3.62024
-3.32027
-3.14398
-2.87948
-2.72476
-2.49373
-2.35879
-2.15758
-2.03974
-1.8633
-1.75789
-1.59544
-1.48544
-1.28871
-1.10547
-1.01724
-0.910022
-0.851149
-0.768434
-0.721335
-0.652917
-0.613579
-0.555902
-0.522642
-0.473745
-0.445544
-0.404089
-0.380237
-0.345287
-0.325336
-0.296398
-0.280257
-0.257555
-0.245687
-0.230203
-0.220356
-0.20414
-0.19422
-0.178741
-0.169524
-0.155516
-0.147277
-0.134906
-0.127685
-0.116933
-0.11073
-0.101631
-0.0965947
-0.089636
-0.0866064
-0.0841854
-0.0870837
-0.100481
-0.130065
-0.220493
-0.373058
-0.512416
-0.814058
-1.09256
-1.66426
-1.8616
-1.91311
-1.9256
-1.92842
-14.201
-11.7796
-10.7517
-9.23783
-8.5926
-7.58665
-7.13847
-6.39678
-6.06453
-5.51258
-5.27894
-4.91925
-4.73011
-4.35175
-4.1624
-3.80463
-3.6299
-3.30793
-3.15226
-2.86849
-2.7319
-2.4841
-2.365
-2.14923
-2.04526
-1.85625
-1.76342
-1.59057
-1.4944
-1.28721
-1.09529
-1.0185
-0.905002
-0.853271
-0.764825
-0.723295
-0.649989
-0.615278
-0.553448
-0.524096
-0.471667
-0.446777
-0.40232
-0.381266
-0.343777
-0.326162
-0.295102
-0.280843
-0.256443
-0.245996
-0.22965
-0.220985
-0.203528
-0.194759
-0.178124
-0.169982
-0.154945
-0.147669
-0.134394
-0.128018
-0.11648
-0.111
-0.101221
-0.0967616
-0.089219
-0.0864874
-0.0835412
-0.0858029
-0.0983075
-0.123069
-0.213448
-0.373193
-0.494983
-0.814188
-1.0632
-1.70378
-1.87949
-1.91836
-1.92696
-1.92882
-14.5301
-11.6345
-10.7933
-9.13136
-8.62363
-7.51924
-7.16599
-6.34781
-6.0851
-5.47407
-5.29014
-4.8999
-4.75101
-4.33073
-4.18053
-3.7839
-3.64545
-3.28893
-3.16568
-2.85162
-2.74351
-2.46934
-2.37508
-2.13643
-2.05418
-1.84536
-1.77216
-1.58264
-1.50781
-1.2851
-1.08051
-1.02123
-0.897516
-0.856864
-0.759342
-0.72653
-0.645521
-0.618066
-0.549698
-0.526475
-0.46849
-0.448794
-0.399619
-0.382956
-0.341475
-0.327529
-0.293135
-0.281837
-0.254775
-0.246542
-0.228791
-0.221968
-0.202572
-0.195614
-0.17717
-0.170718
-0.154065
-0.148303
-0.133608
-0.12856
-0.115785
-0.111444
-0.100599
-0.0970532
-0.0886109
-0.0863784
-0.08269
-0.0841136
-0.095645
-0.113449
-0.203629
-0.374848
-0.469653
-0.817127
-1.01818
-1.7619
-1.90285
-1.92482
-1.92859
-1.92931
-14.975
-11.4072
-10.8678
-8.97872
-8.67853
-7.42179
-7.21212
-6.27662
-6.11962
-5.41848
-5.3096
-4.8709
-4.78278
-4.29892
-4.20852
-3.75284
-3.66973
-3.26062
-3.18673
-2.82653
-2.76176
-2.44738
-2.39094
-2.11737
-2.06817
-1.82905
-1.78556
-1.57012
-1.52714
-1.28228
-1.05993
-1.02655
-0.88671
-0.862737
-0.751275
-0.731696
-0.638913
-0.622494
-0.544146
-0.530247
-0.463784
-0.451994
-0.395619
-0.38564
-0.338074
-0.329716
-0.290247
-0.283464
-0.252356
-0.247472
-0.227498
-0.223455
-0.201119
-0.196931
-0.175737
-0.171864
-0.152751
-0.149295
-0.132438
-0.129412
-0.114755
-0.112149
-0.0996868
-0.0975421
-0.0877558
-0.0863288
-0.0816355
-0.0820212
-0.0927326
-0.100935
-0.190569
-0.379559
-0.434218
-0.825922
-0.951451
-1.84412
-1.93098
-1.93201
-1.93034
-1.92982
-15.5626
-11.0587
-10.9963
-8.76254
-8.77171
-7.28246
-7.28729
-6.17429
-6.17591
-5.33921
-5.34226
-4.82788
-4.83038
-4.25137
-4.25113
-3.70689
-3.70706
-3.2189
-3.21924
-2.78962
-2.78999
-2.41511
-2.41549
-2.08934
-2.08976
-1.80493
-1.80583
-1.55071
-1.55455
-1.27855
-1.03179
-1.03612
-0.871274
-0.872112
-0.739535
-0.739794
-0.629255
-0.629401
-0.536018
-0.536126
-0.456895
-0.456979
-0.389766
-0.389831
-0.333107
-0.333149
-0.286054
-0.286066
-0.24889
-0.249007
-0.22557
-0.225676
-0.198943
-0.19893
-0.173614
-0.17362
-0.150812
-0.150826
-0.130717
-0.130731
-0.113244
-0.11325
-0.0983632
-0.098338
-0.0865677
-0.0864112
-0.080379
-0.079517
-0.0899217
-0.0851652
-0.173537
-0.389645
-0.385301
-0.845365
-0.854038
-1.95859
-1.96253
-1.9393
-1.93205
-1.93031
-16.3304
-10.5327
-11.2116
-8.45664
-8.92483
-7.08337
-7.40718
-6.02739
-6.26574
-5.22636
-5.39562
-4.76419
-4.90125
-4.18068
-4.31551
-3.63917
-3.76393
-3.15764
-3.26895
-2.73551
-2.83325
-2.36784
-2.4531
-2.04825
-2.12277
-1.76937
-1.83636
-1.52094
-1.59316
-1.27366
-0.993611
-1.05247
-0.849214
-0.886828
-0.722486
-0.752326
-0.615172
-0.640053
-0.524154
-0.54518
-0.446835
-0.464659
-0.381225
-0.396296
-0.325871
-0.338471
-0.279979
-0.290158
-0.243935
-0.251487
-0.222701
-0.228973
-0.1957
-0.201943
-0.17048
-0.176292
-0.147962
-0.153163
-0.128192
-0.132751
-0.111035
-0.114948
-0.0964465
-0.0996051
-0.0849163
-0.0867299
-0.078917
-0.0765633
-0.0877184
-0.0656711
-0.151395
-0.408549
-0.317808
-0.882864
-0.712791
-2.11707
-1.99518
-1.94596
-1.93354
-1.93072
-17.3301
-9.74751
-11.5643
-8.02183
-9.17034
-6.79768
-7.59521
-5.81577
-6.40669
-5.06516
-5.48102
-4.66977
-5.00642
-4.07577
-4.41234
-3.5394
-3.85005
-3.06769
-3.34447
-2.65616
-2.89903
-2.29854
-2.51033
-1.98799
-2.1729
-1.71701
-1.88218
-1.47567
-1.64744
-1.26719
-0.941879
-1.07931
-0.817522
-0.909626
-0.697673
-0.771542
-0.59461
-0.65634
-0.506816
-0.559012
-0.432131
-0.476392
-0.368745
-0.406183
-0.315318
-0.346638
-0.27116
-0.296508
-0.236831
-0.255422
-0.218433
-0.233853
-0.190879
-0.206466
-0.165856
-0.180331
-0.143773
-0.156709
-0.124487
-0.135824
-0.107803
-0.117545
-0.0936648
-0.101587
-0.0826061
-0.0874349
-0.0772378
-0.0730704
-0.0868443
-0.0418672
-0.122398
-0.44137
-0.224084
-0.949769
-0.508571
-2.3366
-2.02491
-1.95114
-1.93465
-1.93103
-18.6331
-8.58636
-12.1313
-7.39935
-9.55667
-6.38516
-7.88631
-5.50932
-6.62491
-4.83364
-5.61547
-4.52941
-5.16227
-3.92016
-4.55753
-3.39228
-3.97987
-2.93535
-3.45856
-2.53955
-2.99853
-2.19674
-2.5969
-1.89943
-2.24864
-1.63978
-1.95085
-1.40726
-1.72379
-1.25851
-0.871622
-1.1221
-0.771661
-0.944572
-0.661414
-0.800778
-0.564491
-0.681064
-0.481398
-0.579997
-0.410572
-0.494192
-0.350453
-0.421193
-0.299867
-0.359069
-0.258299
-0.306251
-0.226588
-0.261573
-0.21206
-0.241062
-0.183707
-0.213229
-0.159022
-0.186404
-0.137597
-0.162055
-0.119034
-0.140466
-0.103054
-0.12148
-0.0896058
-0.104641
-0.0793387
-0.0887362
-0.0753129
-0.0688553
-0.0883161
-0.0130391
-0.083859
-0.495639
-0.0926385
-1.06335
-0.213579
-2.64172
-2.04513
-1.95403
-1.93524
-1.93119
18.6331
8.58637
12.1313
7.39935
9.55667
6.38516
7.88631
5.50932
6.62491
4.83364
5.61547
4.52941
5.16227
3.92016
4.55753
3.39228
3.97987
2.93535
3.45856
2.53955
2.99853
2.19674
2.5969
1.89942
2.24864
1.63978
1.95085
1.40725
1.72379
1.25851
0.871621
1.1221
0.77166
0.944571
0.661413
0.800777
0.56449
0.681064
0.481397
0.579996
0.410571
0.494191
0.350452
0.421192
0.299866
0.359068
0.258298
0.30625
0.226587
0.261572
0.21206
0.241062
0.183707
0.213229
0.159022
0.186404
0.137597
0.162055
0.119034
0.140465
0.103054
0.12148
0.0896056
0.104641
0.0793385
0.0887362
0.0753129
0.0688552
0.0883166
0.013038
0.0838597
0.495649
0.0926405
1.06337
0.213587
2.64177
2.04517
1.95407
1.93527
1.93123
17.3301
9.74752
11.5643
8.02183
9.17034
6.79768
7.59522
5.81578
6.4067
5.06516
5.48102
4.66977
5.00643
4.07578
4.41235
3.53941
3.85006
3.06769
3.34447
2.65617
2.89904
2.29855
2.51034
1.988
2.1729
1.71701
1.88218
1.47567
1.64745
1.2672
0.941881
1.07931
0.817524
0.909628
0.697675
0.771544
0.594612
0.656342
0.506818
0.559014
0.432133
0.476394
0.368747
0.406185
0.315319
0.34664
0.271161
0.296509
0.236832
0.255424
0.218434
0.233855
0.19088
0.206467
0.165857
0.180332
0.143774
0.15671
0.124488
0.135825
0.107804
0.117546
0.0936659
0.101589
0.0826072
0.087436
0.0772389
0.0730713
0.0868457
0.0418676
0.1224
0.441379
0.224089
0.949788
0.508583
2.33664
2.02495
1.95118
1.93468
1.93107
16.3304
10.5327
11.2116
8.45665
8.92484
7.08338
7.40719
6.0274
6.26576
5.22637
5.39563
4.7642
4.90126
4.18069
4.31552
3.63917
3.76394
3.15765
3.26896
2.73552
2.83326
2.36785
2.45311
2.04826
2.12278
1.76938
1.83636
1.52095
1.59317
1.27366
0.993616
1.05248
0.849218
0.886833
0.72249
0.752331
0.615176
0.640057
0.524158
0.545184
0.446839
0.464663
0.381228
0.396299
0.325875
0.338474
0.279982
0.290161
0.243938
0.25149
0.222704
0.228976
0.195703
0.201945
0.170482
0.176294
0.147964
0.153166
0.128194
0.132753
0.111038
0.114951
0.0964486
0.0996073
0.0849183
0.0867319
0.078919
0.0765652
0.0877207
0.0656727
0.151399
0.408558
0.317815
0.882883
0.712807
2.11711
1.99521
1.94599
1.93358
1.93076
15.5626
11.0588
10.9963
8.76255
8.77172
7.28247
7.2873
6.17431
6.17593
5.33922
5.34227
4.82789
4.83039
4.25138
4.25114
3.7069
3.70707
3.21891
3.21925
2.78963
2.79
2.41512
2.4155
2.08935
2.08977
1.80493
1.80584
1.55071
1.55456
1.27856
1.0318
1.03613
0.87128
0.872118
0.739541
0.739799
0.62926
0.629406
0.536023
0.53613
0.456899
0.456983
0.38977
0.389835
0.333111
0.333153
0.286058
0.28607
0.248894
0.249011
0.225573
0.22568
0.198947
0.198933
0.173617
0.173624
0.150815
0.150829
0.130719
0.130733
0.113247
0.113253
0.0983657
0.0983405
0.0865701
0.0864136
0.0803813
0.0795193
0.0899243
0.0851675
0.173541
0.389654
0.385309
0.845383
0.854056
1.95862
1.96257
1.93934
1.93209
1.93034
14.975
11.4072
10.8678
8.97874
8.67855
7.4218
7.21213
6.27663
6.11964
5.4185
5.30961
4.87091
4.78279
4.29893
4.20853
3.75285
3.66974
3.26063
3.18674
2.82654
2.76177
2.44739
2.39095
2.11738
2.06818
1.82906
1.78556
1.57013
1.52715
1.28228
1.05994
1.02655
0.886716
0.862743
0.75128
0.731701
0.638919
0.622499
0.544151
0.530252
0.463789
0.451998
0.395623
0.385645
0.338078
0.32972
0.290251
0.283468
0.25236
0.247476
0.227502
0.223459
0.201123
0.196934
0.175741
0.171867
0.152754
0.149299
0.132441
0.129415
0.114758
0.112152
0.0996894
0.0975447
0.0877584
0.0863313
0.0816379
0.0820237
0.0927354
0.100938
0.190574
0.379568
0.434228
0.82594
0.951471
1.84416
1.93101
1.93204
1.93038
1.92985
14.5301
11.6345
10.7934
9.13137
8.62364
7.51925
7.16601
6.34782
6.08512
5.47409
5.29015
4.89991
4.75102
4.33075
4.18054
3.78391
3.64546
3.28894
3.16569
2.85164
2.74352
2.46935
2.37509
2.13644
2.05419
1.84537
1.77217
1.58264
1.50782
1.28511
1.08052
1.02124
0.897522
0.856871
0.759348
0.726535
0.645526
0.618071
0.549703
0.52648
0.468495
0.448799
0.399623
0.38296
0.341479
0.327533
0.293139
0.281841
0.254779
0.246546
0.228795
0.221971
0.202575
0.195618
0.177173
0.170721
0.154068
0.148306
0.133611
0.128563
0.115788
0.111447
0.100602
0.0970559
0.0886135
0.0863809
0.0826925
0.0841162
0.0956478
0.113452
0.203634
0.374857
0.469664
0.817144
1.0182
1.76193
1.90289
1.92486
1.92863
1.92934
14.201
11.7796
10.7517
9.23785
8.59261
7.58667
7.13848
6.3968
6.06454
5.5126
5.27895
4.91927
4.73012
4.35176
4.16241
3.80464
3.62991
3.30794
3.15227
2.8685
2.73191
2.48411
2.36501
2.14924
2.04527
1.85626
1.76343
1.59058
1.49441
1.28722
1.0953
1.01851
0.905008
0.853277
0.76483
0.723301
0.649995
0.615284
0.553453
0.5241
0.471672
0.446781
0.402325
0.381271
0.343781
0.326166
0.295105
0.280847
0.256447
0.245999
0.229653
0.220989
0.203532
0.194762
0.178127
0.169986
0.154948
0.147672
0.134397
0.128021
0.116483
0.111003
0.101224
0.0967642
0.0892216
0.08649
0.0835438
0.0858055
0.0983105
0.123072
0.213453
0.373202
0.494994
0.814206
1.06322
1.70381
1.87953
1.9184
1.92699
1.92886
13.9687
11.869
10.7295
9.30958
8.57601
7.63178
7.12271
6.4294
6.05275
5.53838
5.2728
4.93181
4.71679
4.36523
4.15102
3.81806
3.62025
3.32028
3.14399
2.87949
2.72477
2.49374
2.3588
2.15759
2.03975
1.86331
1.7579
1.59545
1.48545
1.28872
1.10547
1.01725
0.910028
0.851155
0.76844
0.72134
0.652923
0.613584
0.555906
0.522647
0.47375
0.445549
0.404093
0.380241
0.345291
0.32534
0.296402
0.280261
0.257559
0.24569
0.230206
0.22036
0.204143
0.194223
0.178744
0.169527
0.155519
0.14728
0.134909
0.127688
0.116936
0.110733
0.101634
0.0965973
0.0896385
0.0866089
0.0841879
0.0870862
0.100484
0.130068
0.220498
0.373067
0.512428
0.814076
1.09258
1.66429
1.86163
1.91315
1.92563
1.92845
13.8205
11.92
10.7186
9.35387
8.56785
7.65949
7.11431
6.44935
6.04648
5.55422
5.26967
4.93931
4.70893
4.37321
4.14439
3.82608
3.61468
3.32769
3.13923
2.88609
2.72068
2.49952
2.35525
2.1626
2.03659
1.86752
1.75466
1.59823
1.47996
1.28969
1.11185
1.01675
0.913117
0.84999
0.770628
0.720235
0.654691
0.61262
0.557386
0.521822
0.475003
0.444849
0.40516
0.379658
0.346203
0.324875
0.297189
0.27994
0.258239
0.245528
0.230536
0.219988
0.204504
0.193909
0.179112
0.169263
0.155862
0.147054
0.135216
0.127497
0.117209
0.11058
0.101883
0.0965086
0.0898995
0.0867047
0.0846205
0.0879482
0.102011
0.134632
0.225059
0.37346
0.523371
0.814872
1.11021
1.63974
1.84958
1.90946
1.92465
1.92816
13.7483
11.9431
10.7142
9.37501
8.56458
7.67268
7.1107
6.45882
6.0438
5.56176
5.26837
4.94283
4.70529
4.37691
4.14135
3.82982
3.61214
3.33116
3.13708
2.88918
2.71882
2.50224
2.35364
2.16495
2.03515
1.86949
1.75316
1.59949
1.47735
1.29016
1.11492
1.0166
0.914589
0.849478
0.77166
0.71974
0.655523
0.612186
0.558082
0.52145
0.475592
0.444534
0.405661
0.379396
0.346633
0.324667
0.29756
0.279798
0.258562
0.245459
0.230689
0.219815
0.204671
0.193764
0.179283
0.169142
0.156022
0.146952
0.13536
0.12741
0.117338
0.110511
0.102001
0.0964706
0.0900253
0.0867573
0.0848378
0.0883818
0.102797
0.136884
0.227301
0.373794
0.528651
0.815515
1.11847
1.62798
1.84352
1.90757
1.92415
1.928
-13.6283
-11.9391
-10.8759
-9.86437
-9.32071
-8.81784
-8.53998
-8.26883
-8.11829
-7.96955
-7.86699
-7.73121
-7.63554
-7.51089
-7.42392
-7.31161
-7.23349
-7.13288
-7.06305
-6.97334
-6.91128
-6.83181
-6.77699
-6.70702
-6.65878
-6.59712
-6.5539
-6.49701
-6.45225
-6.38435
-6.32162
-6.287
-6.25194
-6.23
-6.20435
-6.18755
-6.16721
-6.15373
-6.13725
-6.12629
-6.11286
-6.10394
-6.093
-6.08576
-6.07693
-6.07114
-6.06417
-6.05971
-6.05453
-6.05143
-6.04809
-6.04576
-6.0427
-6.04069
-6.03832
-6.03696
-6.03569
-6.0353
-6.03558
-6.03659
-6.03916
-6.04231
-6.04851
-6.05528
-6.06793
-6.08172
-6.10789
-6.13905
-6.20321
-6.29677
-6.50844
-6.80228
-7.06497
-7.50228
-7.91969
-8.58354
-8.86304
-8.94598
-8.96745
-8.97244
-13.6959
-11.9141
-10.8738
-9.84566
-9.31908
-8.80884
-8.53971
-8.264
-8.11822
-7.9677
-7.86831
-7.7296
-7.6367
-7.50938
-7.42494
-7.31024
-7.23439
-7.13164
-7.06385
-6.97224
-6.91198
-6.83082
-6.7776
-6.70615
-6.65932
-6.59638
-6.55445
-6.49653
-6.45317
-6.38414
-6.32049
-6.28701
-6.25142
-6.23015
-6.204
-6.18769
-6.16693
-6.15385
-6.13703
-6.12639
-6.11268
-6.10402
-6.09286
-6.08583
-6.07681
-6.07119
-6.06407
-6.05974
-6.05445
-6.05144
-6.04805
-6.04579
-6.04266
-6.04071
-6.03828
-6.03696
-6.03565
-6.03527
-6.03555
-6.03653
-6.03913
-6.04219
-6.04849
-6.05504
-6.06788
-6.08122
-6.10769
-6.13773
-6.20203
-6.29205
-6.50516
-6.80352
-7.05798
-7.50308
-7.90983
-8.59892
-8.8709
-8.94844
-8.96811
-8.97264
-13.8347
-11.8594
-10.8713
-9.80688
-9.31679
-8.7902
-8.53971
-8.25398
-8.11833
-7.96381
-7.87122
-7.72616
-7.63924
-7.50616
-7.42716
-7.30732
-7.23637
-7.12901
-7.0656
-6.96988
-6.91351
-6.82871
-6.77893
-6.7043
-6.6605
-6.5948
-6.55563
-6.49546
-6.45513
-6.38372
-6.31816
-6.28712
-6.25032
-6.23049
-6.20325
-6.18801
-6.16635
-6.15412
-6.13656
-6.12661
-6.1123
-6.1042
-6.09254
-6.08597
-6.07655
-6.07129
-6.06386
-6.05981
-6.05428
-6.05147
-6.04796
-6.04585
-6.04257
-6.04074
-6.03819
-6.03696
-6.03558
-6.03522
-6.03549
-6.0364
-6.03909
-6.04193
-6.04846
-6.05456
-6.06782
-6.0802
-6.10734
-6.13504
-6.19982
-6.2824
-6.49846
-6.80653
-7.04337
-7.50541
-7.88868
-8.63098
-8.88654
-8.95322
-8.96937
-8.97302
-14.0526
-11.7652
-10.8718
-9.74513
-9.31597
-8.76051
-8.54111
-8.23795
-8.1192
-7.95744
-7.87621
-7.7204
-7.64362
-7.50077
-7.43102
-7.30244
-7.2398
-7.12462
-7.06864
-6.96594
-6.91618
-6.82521
-6.78126
-6.70121
-6.66256
-6.59216
-6.55766
-6.4936
-6.45832
-6.38306
-6.31445
-6.28745
-6.24854
-6.23113
-6.20202
-6.18859
-6.16539
-6.1546
-6.13578
-6.12701
-6.11167
-6.10452
-6.09203
-6.08622
-6.07613
-6.07149
-6.06351
-6.05993
-6.05399
-6.05152
-6.04782
-6.04596
-6.04242
-6.0408
-6.03805
-6.03696
-6.03546
-6.03514
-6.03541
-6.0362
-6.03904
-6.04154
-6.04844
-6.05379
-6.06779
-6.07859
-6.10698
-6.13087
-6.19691
-6.26742
-6.48808
-6.81238
-7.01975
-7.51089
-7.85317
-8.68251
-8.90974
-8.96002
-8.97114
-8.97355
-14.362
-11.6152
-10.8816
-9.65548
-9.32019
-8.71738
-8.54586
-8.21455
-8.1218
-7.94785
-7.8842
-7.71148
-7.65064
-7.49246
-7.43723
-7.29492
-7.24534
-7.11787
-7.07355
-6.95989
-6.9205
-6.81982
-6.78504
-6.69647
-6.66588
-6.58808
-6.56087
-6.49058
-6.46312
-6.38214
-6.30908
-6.28825
-6.24591
-6.23224
-6.20016
-6.18956
-6.16394
-6.15541
-6.13461
-6.12767
-6.11071
-6.10505
-6.09124
-6.08665
-6.07549
-6.07181
-6.06298
-6.06015
-6.05357
-6.05162
-6.0476
-6.04614
-6.0422
-6.04091
-6.03785
-6.03698
-6.0353
-6.03504
-6.03531
-6.03592
-6.03901
-6.04096
-6.04849
-6.05267
-6.06788
-6.07628
-6.10679
-6.12501
-6.19381
-6.24642
-6.47356
-6.82291
-6.98478
-7.52232
-7.79818
-8.75812
-8.94001
-8.96838
-8.97325
-8.97418
-14.7812
-11.3847
-10.9112
-9.53019
-9.33512
-8.657
-8.55701
-8.18161
-8.12764
-7.93385
-7.89654
-7.69808
-7.66156
-7.48003
-7.44692
-7.2837
-7.25398
-7.10778
-7.08123
-6.95087
-6.92726
-6.8118
-6.79096
-6.6894
-6.6711
-6.58198
-6.5658
-6.48586
-6.47005
-6.3809
-6.30161
-6.28992
-6.24212
-6.23408
-6.19745
-6.19113
-6.1618
-6.1567
-6.13288
-6.12873
-6.1093
-6.10592
-6.09009
-6.08734
-6.07455
-6.07235
-6.06222
-6.06052
-6.05296
-6.05181
-6.04729
-6.04642
-6.04187
-6.04109
-6.03756
-6.03703
-6.03509
-6.03492
-6.03519
-6.03554
-6.03902
-6.04016
-6.04867
-6.05111
-6.06825
-6.07308
-6.1071
-6.11713
-6.19136
-6.21845
-6.45415
-6.84094
-6.93479
-7.54423
-7.71583
-8.86486
-8.97643
-8.97769
-8.97553
-8.97484
-15.3363
-11.0373
-10.977
-9.35746
-9.36937
-8.57349
-8.57917
-8.13581
-8.13907
-7.91359
-7.91533
-7.6782
-7.67828
-7.46167
-7.46182
-7.26713
-7.26729
-7.09292
-7.09306
-6.93758
-6.9377
-6.79999
-6.80011
-6.67901
-6.67915
-6.57296
-6.57328
-6.47856
-6.47992
-6.37926
-6.29144
-6.29303
-6.23675
-6.23706
-6.19352
-6.19361
-6.15869
-6.15874
-6.13036
-6.1304
-6.10724
-6.10727
-6.08841
-6.08843
-6.07318
-6.0732
-6.06112
-6.06113
-6.0521
-6.05213
-6.04682
-6.04684
-6.04139
-6.04138
-6.03715
-6.03714
-6.0348
-6.03478
-6.03507
-6.03504
-6.03913
-6.03907
-6.0491
-6.04896
-6.06911
-6.06872
-6.10837
-6.10668
-6.1908
-6.18213
-6.4287
-6.87068
-6.86417
-7.58365
-7.59437
-9.01309
-9.01726
-8.98713
-8.97774
-8.97548
-16.0633
-10.5204
-11.1052
-9.11948
-9.43593
-8.45792
-8.61929
-8.07215
-8.15965
-7.88424
-7.94368
-7.64884
-7.70366
-7.43463
-7.48451
-7.24277
-7.28758
-7.07107
-7.11112
-6.91806
-6.95366
-6.78267
-6.81412
-6.66376
-6.69145
-6.55968
-6.58456
-6.46743
-6.49387
-6.37711
-6.27769
-6.29846
-6.22911
-6.2418
-6.18784
-6.1975
-6.15418
-6.16192
-6.1267
-6.133
-6.10426
-6.10939
-6.08598
-6.09014
-6.07121
-6.07453
-6.05953
-6.06209
-6.05087
-6.05266
-6.04614
-6.04749
-6.04069
-6.04183
-6.03657
-6.03734
-6.03441
-6.03463
-6.03496
-6.03437
-6.0394
-6.03757
-6.04993
-6.046
-6.0708
-6.06275
-6.11128
-6.0928
-6.19395
-6.13561
-6.39542
-6.91837
-6.76452
-7.65141
-7.4166
-9.21791
-9.05946
-8.99574
-8.97967
-8.97602
-17.0121
-9.75829
-11.3363
-8.78941
-9.55427
-8.29678
-8.68776
-7.98309
-8.19474
-7.8415
-7.98619
-7.60549
-7.742
-7.39484
-7.51886
-7.20695
-7.31832
-7.03895
-7.1385
-6.88939
-6.97788
-6.75725
-6.83539
-6.64139
-6.71013
-6.54014
-6.60152
-6.45055
-6.51354
-6.37427
-6.25914
-6.30748
-6.2182
-6.24921
-6.17962
-6.20351
-6.14763
-6.16682
-6.12139
-6.13699
-6.09993
-6.11264
-6.08244
-6.09276
-6.06834
-6.0766
-6.05725
-6.06361
-6.04913
-6.05353
-6.04515
-6.04846
-6.03967
-6.04255
-6.03574
-6.03769
-6.03391
-6.03447
-6.03488
-6.03347
-6.03995
-6.0355
-6.05141
-6.04189
-6.0738
-6.05452
-6.11689
-6.07413
-6.20347
-6.07635
-6.35163
-6.99313
-6.62323
-7.76405
-7.15739
-9.50112
-9.09788
-9.00245
-8.98111
-8.97643
-18.251
-8.64295
-11.7323
-8.32687
-9.7535
-8.06969
-8.80005
-7.85739
-8.25244
-7.77884
-8.04973
-7.54145
-7.79969
-7.3362
-7.57066
-7.1542
-7.3647
-6.99168
-7.17983
-6.84722
-7.01446
-6.71988
-6.86755
-6.60852
-6.73836
-6.51134
-6.62698
-6.42511
-6.54131
-6.37046
-6.23405
-6.32202
-6.20247
-6.26064
-6.16767
-6.21271
-6.13807
-6.1743
-6.11363
-6.1431
-6.0936
-6.11762
-6.07729
-6.09678
-6.06417
-6.07977
-6.05393
-6.06596
-6.04663
-6.0549
-6.04369
-6.04991
-6.03819
-6.04365
-6.03457
-6.03826
-6.03323
-6.03432
-6.03489
-6.03226
-6.04093
-6.03263
-6.05391
-6.03612
-6.07884
-6.04302
-6.12669
-6.04858
-6.22326
-6.001
-6.29318
-7.10834
-6.42151
-7.94658
-6.78015
-9.8942
-9.12398
-9.00619
-8.98187
-8.97664
)
;

boundaryField
{
    F1_1
    {
        type            calculated;
        value           nonuniform List<scalar> 
80
(
18.9533
7.97442
11.9807
8.04201
9.87714
7.90583
8.86909
7.7159
8.28998
7.55252
7.90447
7.49062
7.75972
7.28803
7.56013
7.11142
7.3667
6.95437
7.18734
6.8148
7.02415
6.69178
6.87776
6.58424
6.74833
6.49038
6.63674
6.40678
6.55305
6.36556
6.21815
6.32853
6.19186
6.26566
6.1595
6.21675
6.13152
6.1776
6.10832
6.1458
6.08927
6.11982
6.07376
6.09856
6.06131
6.08116
6.05165
6.06696
6.04488
6.0554
6.04257
6.05047
6.0371
6.04405
6.03371
6.0384
6.03269
6.03407
6.03479
6.03141
6.04146
6.03082
6.05539
6.03264
6.08192
6.03622
6.13282
6.03369
6.23625
5.95876
6.25964
7.17803
6.3027
8.05907
6.55659
10.1229
9.13261
9.00718
8.98205
8.97667
)
;
    }
    F1_2
    {
        type            calculated;
        value           nonuniform List<scalar> 
80
(
-19.3708
-7.89456
-12.48
-7.03238
-9.79229
-6.14115
-8.06283
-5.32786
-6.75725
-4.69702
-5.69752
-4.44545
-5.2553
-3.82721
-4.64459
-3.30458
-4.05786
-2.85653
-3.52716
-2.47013
-3.05838
-2.13613
-2.64898
-1.8467
-2.29418
-1.59375
-1.99203
-1.36612
-1.76842
-1.25352
-0.831134
-1.14829
-0.744506
-0.965689
-0.63987
-0.818398
-0.546579
-0.695955
-0.466278
-0.592631
-0.397746
-0.504908
-0.339572
-0.430231
-0.290681
-0.366561
-0.250663
-0.312139