/*--------------------------------*- C++ -*----------------------------------*\
| =========                 |                                                 |
| \\      /  F ield         | OpenFOAM: The Open Source CFD Toolbox           |
|  \\    /   O peration     | Version:  5.x                                   |
|   \\  /    A nd           | Web:      www.OpenFOAM.org                      |
|    \\/     M anipulation  |                                                 |
\*---------------------------------------------------------------------------*/
FoamFile
{
    version     2.0;
    format      ascii;
    class       volScalarField;
    location    "14.7";
    object      gradTx;
}
// * * * * * * * * * * * * * * * * * * * * * * * * * * * * * * * * * * * * * //

dimensions      [0 -1 0 1 0 0 0];

internalField   nonuniform List<scalar> 
6300
(
-31.9397
-32.0104
-32.1513
-32.3607
-32.6366
-32.9758
-33.3739
-33.8257
-34.3242
-34.8615
-35.4282
-36.0139
-36.6075
-37.1978
-37.7741
-31.8689
-31.9403
-32.0826
-32.2943
-32.5734
-32.9168
-33.3204
-33.7788
-34.2855
-34.8321
-35.4092
-36.006
-36.6108
-37.2118
-37.7974
-31.7267
-31.7995
-31.9445
-32.1606
-32.4459
-32.7976
-33.2119
-33.6838
-34.2067
-34.7722
-35.3705
-35.9901
-36.618
-37.241
-37.846
-31.5117
-31.5863
-31.7353
-31.9576
-32.2519
-32.6157
-33.046
-33.5379
-34.0852
-34.6796
-35.3107
-35.9657
-36.6302
-37.2883
-37.9241
-31.222
-31.299
-31.4527
-31.6827
-31.9882
-32.3676
-32.8183
-33.3366
-33.9166
-34.5503
-35.2268
-35.9319
-36.6488
-37.3578
-38.0387
-30.8554
-30.9348
-31.0938
-31.3324
-31.6507
-32.048
-32.5232
-33.0735
-33.6943
-34.3783
-35.1141
-35.8865
-36.6752
-37.4555
-38.2002
-30.4093
-30.4911
-30.6553
-30.9026
-31.234
-31.6506
-32.1528
-32.7399
-33.409
-34.1542
-34.965
-35.8248
-36.7099
-37.5888
-38.4239
-29.8813
-29.9651
-30.1336
-30.3885
-30.7323
-31.1677
-31.6976
-32.3242
-33.0476
-33.8647
-34.7669
-35.7379
-36.7507
-37.766
-38.7313
-29.2696
-29.3545
-29.5255
-29.7856
-30.1388
-30.5902
-31.1459
-31.8117
-32.5925
-33.49
-34.5001
-35.609
-36.7891
-37.9932
-39.1503
-28.5731
-28.6575
-28.8284
-29.0896
-29.4471
-29.9086
-30.4839
-31.1842
-32.0207
-33.0027
-34.1343
-35.4091
-36.8033
-38.2673
-39.7129
-27.792
-27.8742
-28.0411
-28.2975
-28.6512
-29.1131
-29.6971
-30.4205
-31.3033
-32.3658
-33.6255
-35.0898
-36.7479
-38.56
-40.4396
-26.9288
-27.0063
-27.1641
-27.408
-27.7473
-28.1954
-28.7708
-29.4976
-30.4061
-31.5319
-32.9121
-34.5769
-36.5388
-38.7853
-41.2875
-25.988
-26.058
-26.201
-26.4231
-26.7346
-27.1506
-27.6931
-28.3929
-29.2916
-30.4437
-31.9142
-33.7676
-36.046
-38.7566
-41.9892
-24.9773
-25.0369
-25.1587
-25.3489
-25.6173
-25.9793
-26.4583
-27.0892
-27.9237
-29.0374
-30.5339
-32.535
-35.1244
-38.2124
-41.6316
-23.907
-23.9534
-24.0482
-24.1965
-24.4063
-24.691
-25.0716
-25.5818
-26.2769
-27.2488
-28.6501
-30.7178
-33.7149
-37.3616
-37.9899
-38.2831
-38.7229
-39.1385
-39.528
-39.8906
-40.2261
-40.5348
-40.8174
-41.0741
-41.3046
-41.5084
-41.6846
-41.832
-41.95
-42.0384
-42.098
-42.1309
-42.1399
-42.1289
-42.1021
-42.0638
-42.0178
-41.967
-41.9131
-41.8567
-41.7973
-41.7332
-41.6627
-41.5837
-41.4948
-41.3954
-41.2859
-41.1676
-41.0429
-40.9145
-40.7854
-40.6582
-40.5347
-40.4157
-40.3011
-40.1897
-40.0795
-39.9682
-39.8536
-39.7339
-39.6082
-39.4766
-39.3402
-39.201
-39.0613
-38.9237
-38.7905
-38.6633
-38.5428
-38.4287
-38.3196
-38.2136
-38.1084
-38.0018
-37.8921
-37.7783
-37.6605
-37.5396
-37.4174
-37.2963
-37.1786
-37.0666
-36.9617
-36.8647
-36.7753
-36.6925
-36.6148
-36.5401
-36.467
-36.3944
-36.3222
-36.2513
-36.1841
-36.1236
-36.0736
-36.0382
-36.0211
-36.0252
-36.0523
-36.1024
-36.174
-36.2636
-36.3663
-36.4759
-36.5855
-38.3133
-38.7576
-39.1761
-39.5669
-39.9296
-40.2645
-40.5726
-40.8548
-41.1116
-41.3431
-41.5483
-41.7259
-41.8744
-41.9925
-42.0797
-42.1366
-42.1652
-42.1688
-42.1517
-42.1187
-42.075
-42.0247
-41.9714
-41.9167
-41.8612
-41.8039
-41.7426
-41.6748
-41.598
-41.51
-41.4101
-41.2985
-41.1769
-41.0481
-40.9156
-40.7828
-40.6529
-40.5281
-40.4094
-40.2965
-40.1879
-40.081
-39.973
-39.8609
-39.7425
-39.6167
-39.4836
-39.3444
-39.2016
-39.0582
-38.9173
-38.7819
-38.6537
-38.5337
-38.4214
-38.3151
-38.2124
-38.1104
-38.0063
-37.898
-37.7842
-37.6649
-37.5414
-37.4159
-37.2913
-37.1705
-37.0562
-36.9504
-36.8536
-36.7658
-36.6853
-36.6102
-36.538
-36.4663
-36.3938
-36.3201
-36.2462
-36.1744
-36.1084
-36.0527
-36.0119
-35.9906
-35.9922
-36.0191
-36.0715
-36.148
-36.2447
-36.3563
-36.4758
-36.5955
-38.3762
-38.8296
-39.2535
-39.6463
-40.0085
-40.3415
-40.6476
-40.9286
-41.1858
-41.4194
-41.6279
-41.8092
-41.9606
-42.0796
-42.1647
-42.216
-42.2356
-42.2275
-42.1971
-42.1509
-42.0954
-42.0362
-41.9775
-41.9216
-41.8684
-41.8161
-41.7614
-41.7001
-41.6281
-41.5425
-41.4415
-41.3254
-41.1966
-41.0588
-40.9169
-40.7759
-40.6401
-40.5127
-40.3948
-40.2859
-40.1836
-40.0843
-39.9835
-39.8772
-39.7619
-39.6359
-39.4992
-39.3538
-39.203
-39.0514
-38.9033
-38.7627
-38.6324
-38.5136
-38.4054
-38.3054
-38.2102
-38.1154
-38.017
-37.9117
-37.7979
-37.6754
-37.5461
-37.4132
-37.2807
-37.153
-37.0339
-36.9258
-36.8299
-36.7455
-36.6705
-36.6016
-36.5349
-36.4669
-36.3951
-36.3184
-36.2379
-36.1564
-36.0785
-36.0101
-35.9576
-35.9269
-35.9229
-35.949
-36.0061
-36.0927
-36.2045
-36.3349
-36.4755
-36.6164
-38.4769
-38.9441
-39.3754
-39.77
-40.1294
-40.4575
-40.7586
-41.0366
-41.2942
-41.5316
-41.7467
-41.9356
-42.0935
-42.2155
-42.2983
-42.3411
-42.3459
-42.3182
-42.2653
-42.1966
-42.1212
-42.047
-41.9798
-41.9224
-41.8742
-41.8318
-41.7896
-41.7406
-41.6782
-41.5971
-41.4945
-41.3707
-41.2291
-41.0755
-40.9171
-40.7616
-40.6155
-40.4834
-40.3672
-40.2657
-40.1751
-40.0896
-40.0022
-39.9063
-39.7966
-39.6703
-39.5274
-39.3708
-39.2059
-39.0394
-38.8783
-38.7287
-38.5948
-38.4781
-38.3774
-38.2891
-38.2073
-38.1256
-38.0375
-37.9379
-37.824
-37.6958
-37.5561
-37.4098
-37.2633
-37.1233
-36.9955
-36.8837
-36.7896
-36.7118
-36.647
-36.5896
-36.5336
-36.473
-36.4032
-36.3223
-36.231
-36.133
-36.0349
-35.9448
-35.8718
-35.8246
-35.8104
-35.8343
-35.8983
-36.0011
-36.1375
-36.2991
-36.4745
-36.6509
-38.624
-39.1104
-39.5504
-39.9441
-40.2956
-40.6123
-40.9027
-41.1742
-41.4317
-41.6758
-41.9032
-42.1068
-42.2779
-42.4078
-42.4896
-42.5207
-42.5033
-42.4448
-42.3565
-42.252
-42.1451
-42.0477
-41.9681
-41.9099
-41.8717
-41.8475
-41.8275
-41.8004
-41.7551
-41.6825
-41.5781
-41.4418
-41.279
-41.0989
-40.9131
-40.7336
-40.5707
-40.4314
-40.3184
-40.2299
-40.1594
-40.0975
-40.0331
-39.9552
-39.8554
-39.7287
-39.5753
-39.3998
-39.211
-39.0196
-38.8368
-38.6722
-38.5322
-38.4194
-38.3318
-38.2631
-38.2044
-38.145
-38.0744
-37.9845
-37.8707
-37.7328
-37.5754
-37.4066
-37.2366
-37.076
-36.9339
-36.8163
-36.7256
-36.6596
-36.6126
-36.5758
-36.5389
-36.4921
-36.4276
-36.3412
-36.2336
-36.11
-35.9797
-35.855
-35.749
-35.6747
-35.643
-35.6617
-35.7348
-35.861
-36.0342
-36.2432
-36.4723
-36.7031
-38.8314
-39.3433
-39.7921
-40.1788
-40.5119
-40.805
-41.0738
-41.3321
-41.5884
-41.8442
-42.0937
-42.3248
-42.5219
-42.6692
-42.7539
-42.7701
-42.72
-42.6145
-42.471
-42.3108
-42.1553
-42.0227
-41.9254
-41.8686
-41.8492
-41.8569
-41.8757
-41.8866
-41.871
-41.8141
-41.7074
-41.5511
-41.3538
-41.1305
-40.9001
-40.6817
-40.4918
-40.3414
-40.2345
-40.1679
-40.1313
-40.1091
-40.0833
-40.0359
-39.9527
-39.8257
-39.6549
-39.4482
-39.2198
-38.9875
-38.7691
-38.5801
-38.4306
-38.3246
-38.2587
-38.2229
-38.2026
-38.1804
-38.1393
-38.0657
-37.9519
-37.7979
-37.6112
-37.4051
-37.1964
-37.0022
-36.8369
-36.7103
-36.6258
-36.5801
-36.5636
-36.5621
-36.5586
-36.5368
-36.4833
-36.3907
-36.2592
-36.0965
-35.9166
-35.7381
-35.5806
-35.4634
-35.4029
-35.4111
-35.4946
-35.6532
-35.8796
-36.1584
-36.4675
-36.7799
-39.1207
-39.6671
-40.1232
-40.4909
-40.7857
-41.0327
-41.2602
-41.4928
-41.7458
-42.0218
-42.3107
-42.5917
-42.8377
-43.0206
-43.117
-43.1149
-43.0165
-42.8387
-42.6096
-42.363
-42.1326
-41.9467
-41.8246
-41.7734
-41.7877
-41.8504
-41.9351
-42.0109
-42.0467
-42.0172
-41.9081
-41.7196
-41.4659
-41.1724
-40.8697
-40.589
-40.3561
-40.1886
-40.0927
-40.0628
-40.0823
-40.1261
-40.1645
-40.1682
-40.1131
-39.9857
-39.7861
-39.5277
-39.2344
-38.9352
-38.6592
-38.4309
-38.2666
-38.1721
-38.1421
-38.1605
-38.2035
-38.243
-38.251
-38.2047
-38.0911
-37.9102
-37.6748
-37.4074
-37.1355
-36.8867
-36.6843
-36.5436
-36.4702
-36.4585
-36.4931
-36.5511
-36.6048
-36.6271
-36.5952
-36.4963
-36.3297
-36.1075
-35.8518
-35.5907
-35.3542
-35.1705
-35.0638
-35.0521
-35.1461
-35.3479
-35.6493
-36.0301
-36.4581
-36.8924
-39.5248
-40.1211
-40.5815
-40.908
-41.1283
-41.2883
-41.4391
-41.6243
-41.8701
-42.1809
-42.539
-42.909
-43.2446
-43.4962
-43.6221
-43.5985
-43.4273
-43.1367
-42.7733
-42.3918
-42.0456
-41.7791
-41.6216
-41.584
-41.6567
-41.812
-42.0075
-42.1928
-42.3163
-42.3348
-42.2233
-41.9819
-41.6355
-41.2273
-40.8079
-40.4272
-40.1263
-39.9326
-39.8559
-39.8866
-39.9983
-40.1507
-40.2958
-40.3851
-40.3776
-40.2498
-40.0019
-39.6576
-39.2574
-38.8495
-38.4805
-38.1895
-38.0019
-37.927
-37.9556
-38.0625
-38.2095
-38.3511
-38.441
-38.4405
-38.3272
-38.101
-37.7845
-37.416
-37.0412
-36.7044
-36.4426
-36.2802
-36.2256
-36.2701
-36.3892
-36.546
-36.6964
-36.7952
-36.8038
-36.6994
-36.4804
-36.1668
-35.7947
-35.408
-35.0517
-34.7669
-34.5879
-34.5408
-34.6424
-34.8992
-35.3047
-35.8337
-36.4396
-37.0584
-40.0946
-40.7709
-41.2326
-41.4779
-41.5578
-41.5573
-41.5686
-41.6683
-41.901
-42.2719
-42.75
-43.276
-43.7721
-44.1531
-44.3426
-44.2944
-44.0101
-43.5397
-42.9631
-42.3698
-41.8441
-41.4543
-41.246
-41.2355
-41.4069
-41.7155
-42.0948
-42.4638
-42.7371
-42.8397
-42.7256
-42.3951
-41.8944
-41.2981
-40.6905
-40.1504
-39.7422
-39.5084
-39.4641
-39.594
-39.8555
-40.1856
-40.5077
-40.7412
-40.8153
-40.6869
-40.3564
-39.8678
-39.2917
-38.7075
-38.1897
-37.7989
-37.5752
-37.5327
-37.6566
-37.9067
-38.2232
-38.5335
-38.7612
-38.8389
-38.7257
-38.4219
-37.969
-37.4339
-36.8921
-36.4142
-36.058
-35.8615
-35.8383
-35.9743
-36.2308
-36.5503
-36.8625
-37.0929
-37.1752
-37.0675
-36.7671
-36.3105
-35.7587
-35.1816
-34.6461
-34.2107
-33.9223
-33.8156
-33.9149
-34.2365
-34.7824
-35.5265
-36.4027
-37.3072
-40.9068
-41.7299
-42.1952
-42.2859
-42.1032
-41.8091
-41.5707
-41.5208
-41.7328
-42.2085
-42.8919
-43.6862
-44.4656
-45.0855
-45.4054
-45.3301
-44.861
-44.0956
-43.1767
-42.2507
-41.4467
-40.8682
-40.5856
-40.6252
-40.9594
-41.5173
-42.1967
-42.8724
-43.4039
-43.6566
-43.5396
-43.0536
-42.2907
-41.3853
-40.4758
-39.6837
-39.1068
-38.8112
-38.8217
-39.1117
-39.6141
-40.2321
-40.8472
-41.327
-41.5446
-41.4148
-40.9389
-40.2041
-39.3376
-38.4701
-37.7161
-37.1678
-36.8876
-36.8986
-37.1758
-37.6554
-38.2459
-38.835
-39.2972
-39.5121
-39.3986
-38.9576
-38.2717
-37.4615
-36.6508
-35.9488
-35.4432
-35.1934
-35.2219
-35.5048
-35.9818
-36.5649
-37.1463
-37.6041
-37.8202
-37.7131
-37.2788
-36.5911
-35.7593
-34.8951
-34.0964
-33.4429
-32.9949
-32.7937
-32.8675
-33.2505
-33.9748
-35.0292
-36.3249
-37.6884
-42.0709
-43.2041
-43.6974
-43.4879
-42.8089
-41.9805
-41.3016
-40.996
-41.1851
-41.8459
-42.874
-44.1178
-45.3888
-46.45
-47.0373
-46.933
-46.1383
-44.8728
-43.4004
-41.956
-40.7246
-39.8561
-39.4613
-39.5908
-40.1897
-41.1442
-42.3041
-43.4885
-44.4723
-45.006
-44.8848
-44.1108
-42.8921
-41.4785
-40.092
-38.9073
-38.0662
-37.6734
-37.7767
-38.3236
-39.2064
-40.2827
-41.3815
-42.2903
-42.7742
-42.6411
-41.894
-40.7299
-39.3851
-38.069
-36.9463
-36.1507
-35.7807
-35.8814
-36.4033
-37.2445
-38.2704
-39.3192
-40.1895
-40.6583
-40.5431
-39.8459
-38.7535
-37.4896
-36.2532
-35.2007
-34.4598
-34.1247
-34.239
-34.7561
-35.5798
-36.5821
-37.608
-38.4633
-38.9307
-38.8296
-38.1555
-37.0794
-35.8063
-34.5144
-33.3377
-32.3793
-31.7119
-31.3757
-31.3749
-31.7732
-32.6918
-34.1843
-36.1494
-38.2896
-43.7127
-45.5982
-46.2113
-45.3672
-43.7307
-41.9362
-40.4948
-39.7587
-39.9583
-40.9542
-42.5457
-44.5101
-46.6139
-48.4971
-49.665
-49.5301
-48.0938
-45.9477
-43.5837
-41.3548
-39.4797
-38.1619
-37.5817
-37.8806
-38.9079
-40.4753
-42.3762
-44.3935
-46.1889
-47.2982
-47.17
-45.8086
-43.7743
-41.5326
-39.4175
-37.6359
-36.3803
-35.8213
-36.0928
-37.0519
-38.5199
-40.3008
-42.1893
-43.8655
-44.8924
-44.7517
-43.4495
-41.5161
-39.3912
-37.3894
-35.7054
-34.5206
-33.9958
-34.2577
-35.1712
-36.5676
-38.262
-40.0603
-41.6599
-42.6457
-42.5254
-41.3035
-39.4822
-37.4783
-35.5905
-34.0041
-32.8922
-32.4089
-32.6758
-33.566
-34.9207
-36.5652
-38.3154
-39.8809
-40.86
-40.7713
-39.6111
-37.8513
-35.8804
-33.9676
-32.2648
-30.8965
-29.9522
-29.4747
-29.3077
-29.5466
-30.5824
-32.659
-35.7217
-39.2752
-45.819
-49.8191
-50.8181
-48.3887
-44.8842
-41.3842
-38.6718
-37.1737
-37.5849
-39.2047
-41.6806
-44.7016
-48.1569
-51.574
-54.1687
-54.0011
-51.0713
-47.3365
-43.5726
-40.244
-37.4322
-35.4057
-34.4364
-35.1215
-36.8481
-39.3264
-42.2805
-45.6181
-48.8935
-51.3725
-51.2312
-48.4752
-44.9549
-41.4046
-38.2629
-35.6071
-33.6912
-32.7732
-33.4189
-35.0472
-37.383
-40.1642
-43.3026
-46.3757
-48.6917
-48.535
-45.9138
-42.5779
-39.2201
-36.2522
-33.7459
-31.94
-31.0782
-31.6958
-33.2434
-35.4618
-38.104
-41.0877
-44.0139
-46.226
-46.094
-43.6241
-40.4737
-37.2999
-34.4937
-32.1241
-30.4194
-29.6128
-30.2152
-31.7068
-33.8442
-36.3963
-39.2888
-42.1431
-44.3266
-44.2562
-41.93
-38.9272
-35.8708
-33.1186
-30.7099
-28.8034
-27.5203
-27.1265
-26.6562
-26.1723
-26.9742
-29.7136
-34.5871
-40.9765
-47.3416
-58.3492
-60.3291
-52.9452
-46.0412
-39.7035
-35.1017
-31.8396
-33.4709
-36.2226
-40.0304
-44.2677
-49.7547
-55.8353
-62.6501
-62.4498
-55.2078
-48.7674
-42.9343
-38.3893
-34.2538
-31.1273
-28.9087
-30.8624
-33.7061
-37.4924
-41.6325
-46.9323
-52.7449
-59.2201
-59.0575
-52.2423
-46.1788
-40.6883
-36.4084
-32.5129
-29.565
-27.4732
-29.3303
-32.0238
-35.6045
-39.5131
-44.51
-49.9763
-56.0517
-55.8672
-49.4074
-43.6711
-38.4876
-34.4501
-30.778
-27.9997
-26.0303
-27.7945
-30.3497
-33.7456
-37.4542
-42.1981
-47.3959
-53.1821
-53.0292
-46.9245
-41.4989
-36.5923
-32.7681
-29.2868
-26.6533
-24.788
-26.4739
-28.9178
-32.1705
-35.7373
-40.3169
-45.3715
-51.0387
-50.9896
-45.2231
-40.0805
-35.4231
-31.7747
-28.4321
-25.8123
-23.808
-24.8884
-24.0241
-20.9466
-20.576
-23.6951
-31.2699
-44.1081
-41.2235
-79.913
-83.2079
-56.6923
-46.3662
-35.5248
-29.603
-19.4589
-27.7435
-31.7199
-37.7616
-42.0344
-50.4975
-59.0395
-81.2332
-81.0387
-58.19
-49.3238
-40.4413
-35.9447
-29.6223
-25.5417
-17.3728
-25.3216
-29.207
-35.1487
-39.3145
-47.5081
-55.6422
-76.6263
-76.4634
-54.9272
-46.5773
-38.2289
-34.0003
-28.0541
-24.2062
-16.487
-24.0369
-27.723
-33.3538
-37.2948
-45.0417
-52.6996
-72.426
-72.2356
-51.8594
-43.9681
-36.1051
-32.1217
-26.523
-22.8945
-15.6062
-22.7543
-26.2455
-31.5789
-35.3136
-42.6548
-49.9308
-68.6903
-68.5349
-49.2473
-41.7765
-34.3262
-30.5485
-25.2288
-21.7807
-14.8495
-21.641
-24.964
-30.0446
-33.6198
-40.661
-47.7179
-65.9823
-65.9559
-47.6178
-40.535
-33.5226
-29.9905
-25.1134
-21.9352
-15.6536
-25.4506
-24.5789
-11.8231
-9.15245
-11.2605
-20.3731
-50.2146
-36.6974
-36.8008
-36.8756
-36.9162
-36.921
-36.8918
-36.8333
-36.7524
-36.6572
-36.5563
-36.4579
-36.3696
-36.2976
-36.2468
-36.2206
-36.7174
-36.8295
-36.9096
-36.952
-36.955
-36.9211
-36.8557
-36.7667
-36.663
-36.5538
-36.4479
-36.3533
-36.2764
-36.2223
-36.1944
-36.7596
-36.8901
-36.9815
-37.0272
-37.0261
-36.9818
-36.9018
-36.7957
-36.6741
-36.5479
-36.4267
-36.3192
-36.2324
-36.1715
-36.1403
-36.8293
-36.9898
-37.099
-37.1492
-37.1402
-37.0783
-36.974
-36.8401
-36.6901
-36.5369
-36.3918
-36.2644
-36.1624
-36.0913
-36.0548
-36.9352
-37.1409
-37.2755
-37.3303
-37.3073
-37.2172
-37.0757
-36.9006
-36.7093
-36.5177
-36.3391
-36.1843
-36.0614
-35.9764
-35.933
-37.092
-37.363
-37.532
-37.5891
-37.5415
-37.4075
-37.211
-36.9772
-36.7289
-36.4855
-36.2627
-36.0722
-35.9226
-35.8199
-35.7676
-37.3228
-37.6873
-37.9001
-37.9528
-37.8621
-37.6602
-37.3838
-37.0683
-36.7435
-36.4329
-36.154
-35.9192
-35.737
-35.6129
-35.5501
-37.6656
-38.1632
-38.4285
-38.4597
-38.2941
-37.9872
-37.5958
-37.1687
-36.7438
-36.3485
-36.0011
-35.7136
-35.4933
-35.3446
-35.2697
-38.1842
-38.8713
-39.191
-39.1634
-38.8675
-38.3989
-37.8433
-37.2668
-36.7147
-36.2161
-35.7883
-35.4408
-35.1781
-35.0024
-34.9145
-38.9909
-39.9469
-40.3009
-40.1353
-39.6135
-38.8974
-38.112
-37.3404
-36.632
-36.013
-35.4954
-35.083
-34.7759
-34.5725
-34.4714
-40.2944
-41.6245
-41.9304
-41.4635
-40.5538
-39.4652
-38.3668
-37.3508
-36.4599
-35.7086
-35.0971
-34.62
-34.2699
-34.0405
-33.927
-42.5157
-44.3264
-44.3326
-43.2346
-41.6728
-40.0429
-38.5392
-37.2362
-36.1483
-35.2643
-34.5646
-34.0299
-33.6433
-33.3925
-33.2692
-46.5943
-48.8326
-47.8391
-45.4696
-42.8601
-40.4942
-38.5108
-36.9065
-35.6329
-34.6355
-33.8673
-33.2915
-32.881
-32.6171
-32.4879
-54.9098
-56.5705
-52.7218
-47.9444
-43.8037
-40.5631
-38.1034
-36.2462
-34.8412
-33.7775
-32.9775
-32.3878
-31.9722
-31.7069
-31.5776
-74.4917
-69.8176
-58.5334
-49.7823
-43.8472
-39.8512
-37.0934
-35.1338
-33.708
-32.6558
-31.8775
-31.31
-30.9129
-30.6606
-30.538
-22.8835
-22.9157
-22.9814
-23.0836
-23.2277
-23.4222
-23.6816
-24.0306
-24.5136
-25.2159
-26.3142
-28.2076
-31.8514
-39.4167
-53.3312
-21.9307
-21.949
-21.9861
-22.0429
-22.1211
-22.2236
-22.3557
-22.5273
-22.7584
-23.0931
-23.6409
-24.7213
-27.4796
-36.9758
-79.2711
-20.9651
-20.9694
-20.9772
-20.9874
-20.9977
-21.0046
-21.0025
-20.9827
-20.9312
-20.8223
-20.5988
-20.0823
-18.5042
-11.7667
25.4483
-19.9966
-19.9872
-19.9667
-19.9318
-19.8767
-19.7917
-19.6614
-19.4602
-19.1438
-18.6306
-17.7592
-16.1853
-13.18
-7.73069
-3.84172
-19.0347
-19.0127
-18.9662
-18.8903
-18.7764
-18.6103
-18.3697
-18.0177
-17.4929
-16.6874
-15.4055
-13.2762
-9.56459
-2.61888
13.4462
-18.0882
-18.0551
-17.9861
-17.8753
-17.7122
-17.4807
-17.1552
-16.6954
-16.0369
-15.0753
-13.6398
-11.4624
-8.19427
-3.84287
-1.97753
-17.1645
-17.1224
-17.0352
-16.8965
-16.6957
-16.4164
-16.0339
-15.5109
-14.7916
-13.7923
-12.3895
-10.4051
-7.57574
-3.34108
4.91529
-16.2702
-16.2211
-16.12
-15.9608
-15.7337
-15.4239
-15.0102
-14.4628
-13.7407
-12.7896
-11.5432
-9.93455
-7.93291
-5.63229
-3.47977
-15.41
-15.3559
-15.2451
-15.0723
-14.8291
-14.5035
-14.0793
-13.5361
-12.8489
-11.9921
-10.9484
-9.73687
-8.49765
-7.82066
-10.38
-14.5874
-14.53
-14.4132
-14.2326
-13.9817
-13.6515
-13.2312
-12.7092
-12.0749
-11.3243
-10.4703
-9.5584
-8.67193
-7.76158
-5.05033
-13.8045
-13.7455
-13.6257
-13.4419
-13.1893
-12.862
-12.4539
-11.9603
-11.3815
-10.7284
-10.0324
-9.36228
-8.8628
-8.95312
-11.8449
-13.0627
-13.0031
-12.8827
-12.699
-12.4488
-12.1286
-11.7358
-11.2707
-10.7399
-10.1622
-9.57642
-9.04768
-8.6441
-8.19917
-5.57101
-12.3623
-12.303
-12.1836
-12.0022
-11.7569
-11.4457
-11.068
-10.6266
-10.1308
-9.60167
-9.08086
-8.64618
-8.45413
-8.96133
-12.5486
-11.7031
-11.6447
-11.5274
-11.3499
-11.1107
-10.8089
-10.4444
-10.0204
-9.54486
-9.03535
-8.5255
-8.07617
-7.77857
-7.58455
-5.46348
-11.0843
-11.0274
-10.9131
-10.7404
-10.5082
-10.2155
-9.8623
-9.44987
-8.98252
-8.46928
-7.92811
-7.40081
-7.03109
-7.546
-13.4592
-10.5051
-10.45
-10.3393
-10.1722
-9.94757
-9.66431
-9.32127
-8.91751
-8.45205
-7.92261
-7.3211
-6.61602
-5.66928
-3.75862
3.50547
-9.96418
-9.91112
-9.80461
-9.64386
-9.42771
-9.15459
-8.8224
-8.428
-7.96601
-7.426
-6.786
-5.99907
-4.97686
-3.6889
-3.55202
-9.4601
-9.4094
-9.30764
-9.15404
-8.94741
-8.6859
-8.36675
-7.98542
-7.53415
-6.99882
-6.35296
-5.5455
-4.46901
-2.81981
0.884584
-8.99122
-8.94315
-8.84666
-8.70107
-8.50521
-8.25725
-7.95426
-7.59143
-7.16068
-6.6484
-6.03215
-5.27875
-4.35888
-3.37792
-3.50529
-8.55574
-8.51051
-8.41978
-8.283
-8.0992
-7.86683
-7.58334
-7.24459
-6.84384
-6.37017
-5.80659
-5.12761
-4.29117
-3.16634
-0.892066
-8.15167
-8.10947
-8.02489
-7.89759
-7.72693
-7.5119
-7.25078
-6.94083
-6.57764
-6.15439
-5.66118
-5.08582
-4.42375
-3.75297
-3.79097
-7.77692
-7.73785
-7.65967
-7.54228
-7.38549
-7.18897
-6.95215
-6.67404
-6.35315
-5.98718
-5.57284
-5.10424
-4.56239
-3.8474
-2.34424
-7.4293
-7.3934
-7.32168
-7.21433
-7.07164
-6.89404
-6.68217
-6.43698
-6.15995
-5.85357
-5.52218
-5.17353
-4.82128
-4.48915
-4.2256
-7.10661
-7.07382
-7.00844
-6.91093
-6.78203
-6.62291
-6.43535
-6.22203
-5.98715
-5.73733
-5.48351
-5.24534
-5.06619
-5.08326
-5.9239
-6.8067
-6.77687
-6.71752
-6.62932
-6.51341
-6.37154
-6.20641
-6.02207
-5.82473
-5.62388
-5.43396
-5.27616
-5.17484
-5.10546
-4.5643
-6.52751
-6.50042
-6.44663
-6.36696
-6.26282
-6.13634
-5.9908
-5.83113
-5.66475
-5.50283
-5.36213
-5.26775
-5.26132
-5.45526
-6.4705
-6.26713
-6.24252
-6.19371
-6.12161
-6.02773
-5.91437
-5.78502
-5.64486
-5.50167
-5.36706
-5.25814
-5.19828
-5.20866
-5.23471
-4.6147
-6.02385
-6.00141
-5.95697
-5.8914
-5.80617
-5.70352
-5.58674
-5.46071
-5.33263
-5.21345
-5.12007
-5.08003
-5.14513
-5.4628
-6.79528
-5.79615
-5.7756
-5.7349
-5.67483
-5.59672
-5.50248
-5.3949
-5.27796
-5.15743
-5.04193
-4.94498
-4.88878
-4.90621
-4.98616
-4.45369
-5.58272
-5.5638
-5.52627
-5.47081
-5.39846
-5.31071
-5.20957
-5.09772
-4.97874
-4.85752
-4.74158
-4.64641
-4.62386
-4.93479
-7.18974
-5.38244
-5.36491
-5.33011
-5.27852
-5.21091
-5.12824
-5.03167
-4.92244
-4.80161
-4.66946
-4.52376
-4.35362
-4.10995
-3.5334
-1.0345
-5.19433
-5.17803
-5.1456
-5.09737
-5.03382
-4.95542
-4.86257
-4.75522
-4.63235
-4.49081
-4.32291
-4.11189
-3.8272
-3.46698
-3.60104
-5.01755
-5.00235
-4.97205
-4.92687
-4.86703
-4.79265
-4.70354
-4.59878
-4.47607
-4.33045
-4.15203
-3.92133
-3.5969
-3.05729
-1.69136
-4.85134
-4.83715
-4.80886
-4.76656
-4.71035
-4.64012
-4.55538
-4.45482
-4.33571
-4.19289
-4.01744
-3.79587
-3.51603
-3.22143
-3.40233
-4.69497
-4.68176
-4.65538
-4.61592
-4.5634
-4.49767
-4.4182
-4.32374
-4.21181
-4.07799
-3.9149
-3.71086
-3.44543
-3.05535
-2.1468
-4.5478
-4.53551
-4.511
-4.47435
-4.42563
-4.36477
-4.29144
-4.2048
-4.10313
-3.98342
-3.84081
-3.66849
-3.4614
-3.24929
-3.35235
-4.40915
-4.39776
-4.37505
-4.34117
-4.29628
-4.24053
-4.17394
-4.09629
-4.00698
-3.90476
-3.78736
-3.65028
-3.48086
-3.22437
-2.57508
-4.27842
-4.26787
-4.24687
-4.21564
-4.17449
-4.12383
-4.06412
-3.9959
-3.9198
-3.83663
-3.74758
-3.65454
-3.5608
-3.47219
-3.4012
-4.15503
-4.14523
-4.12579
-4.09699
-4.05931
-4.01341
-3.96021
-3.90097
-3.83753
-3.77261
-3.71056
-3.65928
-3.63719
-3.70778
-4.17796
-4.03844
-4.02931
-4.01121
-3.98453
-3.94985
-3.90808
-3.86049
-3.80898
-3.7563
-3.70659
-3.66609
-3.64375
-3.64923
-3.66586
-3.4301
-3.92821
-3.91961
-3.9026
-3.87761
-3.84532
-3.80678
-3.76351
-3.71779
-3.673
-3.6342
-3.609
-3.6089
-3.65352
-3.7992
-4.36953
-3.82395
-3.81575
-3.79954
-3.77577
-3.74515
-3.70877
-3.66824
-3.62597
-3.58554
-3.55236
-3.53449
-3.54301
-3.58764
-3.63762
-3.33838
-3.7254
-3.71745
-3.70173
-3.67868
-3.64898
-3.61364
-3.57419
-3.53288
-3.49306
-3.45991
-3.44164
-3.45206
-3.51806
-3.71856
-4.46596
-3.63238
-3.62454
-3.60903
-3.58623
-3.55672
-3.52137
-3.48144
-3.43875
-3.39594
-3.35711
-3.32888
-3.32251
-3.35507
-3.41969
-3.14695
-3.54481
-3.53696
-3.5214
-3.49843
-3.46851
-3.43228
-3.39063
-3.3447
-3.29608
-3.24697
-3.20095
-3.16594
-3.16982
-3.3551
-4.60404
-3.46269
-3.45473
-3.43893
-3.41548
-3.38469
-3.34698
-3.30277
-3.25253
-3.19655
-3.13468
-3.06537
-2.98237
-2.8586
-2.55183
-1.18953
-3.38611
-3.37797
-3.36176
-3.33761
-3.3057
-3.26618
-3.21912
-3.16435
-3.10113
-3.02756
-2.93931
-2.82712
-2.67447
-2.48156
-2.5678
-3.31518
-3.30681
-3.29011
-3.26515
-3.23199
-3.19061
-3.14083
-3.08204
-3.01289
-2.93064
-2.82987
-2.69998
-2.5183
-2.21743
-1.45587
-3.25007
-3.24144
-3.2242
-3.19838
-3.16398
-3.1209
-3.0688
-3.00692
-2.93377
-2.84659
-2.74064
-2.60883
-2.44489
-2.27322
-2.36507
-3.19096
-3.18205
-3.16425
-3.13758
-3.10202
-3.05745
-3.00355
-2.93964
-2.8644
-2.77556
-2.66939
-2.53999
-2.37685
-2.14599
-1.63165
-3.13804
-3.12884
-3.11047
-3.08296
-3.04631
-3.00048
-2.94527
-2.88022
-2.80448
-2.71658
-2.61428
-2.49457
-2.35583
-2.21562
-2.24737
-3.09151
-3.082
-3.06304
-3.03468
-2.99699
-2.95004
-2.89382
-2.82823
-2.75299
-2.66761
-2.57127
-2.46238
-2.33584
-2.16582
-1.79731
-3.05158
-3.04175
-3.02214
-2.99287
-2.95411
-2.90603
-2.84889
-2.78295
-2.70856
-2.62625
-2.53696
-2.44246
-2.34606
-2.25383
-2.17909
-3.01848
-3.00828
-2.98795
-2.95767
-2.91769
-2.86833
-2.81008
-2.74354
-2.66963
-2.58974
-2.50628
-2.42387
-2.35338
-2.3297
-2.50893
-2.99248
-2.98184
-2.96069
-2.92922
-2.88777
-2.83682
-2.77701
-2.70926
-2.63485
-2.55571
-2.47487
-2.397
-2.32818
-2.26465
-2.09379
-2.97385
-2.96272
-2.94058
-2.9077
-2.86446
-2.81146
-2.74947
-2.6796
-2.60335
-2.52288
-2.4414
-2.36386
-2.29932
-2.27413
-2.42936
-2.96297
-2.95125
-2.92795
-2.89336
-2.84794
-2.79233
-2.72742
-2.65437
-2.57478
-2.49076
-2.40518
-2.32169
-2.24315
-2.15831
-1.94125
-2.96023
-2.94782
-2.92316
-2.88656
-2.8385
-2.77968
-2.71101
-2.6337
-2.54929
-2.45973
-2.36753
-2.27608
-2.19134
-2.13431
-2.23379
-2.9661
-2.9529
-2.92666
-2.88771
-2.83654
-2.77386
-2.70061
-2.61797
-2.52737
-2.43053
-2.32937
-2.2258
-2.12031
-2.00161
-1.76401
-2.98115
-2.96704
-2.939
-2.89734
-2.84257
-2.7754
-2.69674
-2.60775
-2.50979
-2.40434
-2.2929
-2.17684
-2.05845
-1.95148
-1.96055
-3.00599
-2.99087
-2.9608
-2.91608
-2.85722
-2.78491
-2.70005
-2.60378
-2.4974
-2.38231
-2.25964
-2.12951
-1.98868
-1.82075
-1.54194
-3.04133
-3.02509
-2.99276
-2.94464
-2.88121
-2.80313
-2.7113
-2.60683
-2.49108
-2.36554
-2.23155
-2.08963
-1.93771
-1.76702
-1.5511
-3.08795
-3.07049
-3.0357
-2.98385
-2.91538
-2.83092
-2.73132
-2.61771
-2.49155
-2.35463
-2.20899
-2.05668
-1.8998
-1.74468
-1.64112
-3.14671
-3.12792
-3.09047
-3.03459
-2.96065
-2.86921
-2.76107
-2.63731
-2.49951
-2.34979
-2.19105
-2.02692
-1.86065
-1.68655
-1.42835
-3.2185
-3.19833
-3.15806
-3.09788
-3.01809
-2.91912
-2.80165
-2.66668
-2.51573
-2.35121
-2.17685
-1.99865
-1.82694
-1.6868
-1.69375
-3.30432
-3.28268
-3.23947
-3.17479
-3.08883
-2.98188
-2.8544
-2.70713
-2.5414
-2.35946
-2.16533
-1.96589
-1.77129
-1.5849
-1.30646
-3.40515
-3.38203
-3.33579
-3.26649
-3.17416
-3.0589
-2.92088
-2.76043
-2.57831
-2.37618
-2.15751
-1.92975
-1.70996
-1.54693
-1.63202
-3.52206
-3.49742
-3.44814
-3.37417
-3.27541
-3.15174
-3.00293
-2.82876
-2.62913
-2.40438
-2.15602
-1.88807
-1.6092
-1.33665
-1.11041
-3.65606
-3.62994
-3.57764
-3.49906
-3.39398
-3.26202
-3.1026
-2.91479
-2.6974
-2.44896
-2.16814
-1.85397
-1.50405
-1.0942
-0.431664
-3.80822
-3.78063
-3.72539
-3.64235
-3.53121
-3.3914
-3.22197
-3.02137
-2.78722
-2.51605
-2.2034
-1.84471
-1.44053
-1.02723
-0.892657
-3.97953
-3.95053
-3.89246
-3.80517
-3.68834
-3.54133
-3.36299
-3.15126
-2.90274
-2.61196
-2.27065
-1.86705
-1.38334
-0.766687
0.339683
-4.17099
-4.14061
-4.07981
-3.98851
-3.86643
-3.71304
-3.52719
-3.30671
-3.04761
-2.74294
-2.38114
-1.94503
-1.41847
-0.846222
-0.756394
-4.38355
-4.35181
-4.28836
-4.19321
-4.06628
-3.90729
-3.71545
-3.48896
-3.22413
-2.91361
-2.54325
-2.08581
-1.48533
-0.590741
1.30668
-4.61814
-4.58504
-4.51893
-4.41997
-4.28839
-4.12435
-3.92776
-3.69786
-3.43239
-3.12584
-2.76584
-2.32592
-1.75642
-1.03167
-0.835707
-4.87573
-4.8412
-4.7723
-4.6694
-4.53305
-4.36402
-4.1632
-3.93145
-3.66917
-3.37518
-3.04393
-2.65603
-2.13534
-1.10538
2.68115
-5.1573
-5.12122
-5.04929
-4.94205
-4.80042
-4.62576
-4.42011
-4.18626
-3.92798
-3.6504
-3.36136
-3.07834
-2.86792
-3.09338
-6.06498
-5.46394
-5.42613
-5.3508
-5.2386
-5.09071
-4.90904
-4.69661
-4.45802
-4.20019
-3.93357
-3.67463
-3.45023
-3.29782
-3.17432
-1.98217
-5.79683
-5.7571
-5.67791
-5.55994
-5.40446
-5.21368
-4.99128
-4.74316
-4.47849
-4.21141
-3.96391
-3.77212
-3.70763
-3.99739
-5.90166
-6.15732
-6.11546
-6.03196
-5.90733
-5.74272
-5.54027
-5.30382
-5.0398
-4.75847
-4.47566
-4.2145
-4.00562
-3.87145
-3.69925
-2.31336
-6.54688
-6.50276
-6.41456
-6.28249
-6.10725
-5.89048
-5.63551
-5.34844
-5.0395
-4.72486
-4.42881
-4.18722
-4.06169
-4.24394
-5.88445
-6.96708
-6.92066
-6.82762
-6.68764
-6.50062
-6.26721
-5.9895
-5.67227
-5.32448
-4.96115
-4.60529
-4.28821
-4.03821
-3.77593
-2.47295
-7.41951
-7.37096
-7.27328
-7.12544
-6.92623
-6.67469
-6.37094
-6.01734
-5.62024
-5.19225
-4.75484
-4.34263
-4.02326
-4.03064
-5.62224
-7.90566
-7.85536
-7.75377
-7.59893
-7.38817
-7.11844
-6.78699
-6.3926
-5.93747
-5.42991
-4.88688
-4.33258
-3.78139
-3.18519
-2.41114
-8.42674
-8.3754
-8.27123
-8.11125
-7.89107
-7.60505
-7.24676
-6.81005
-6.29111
-5.69219
-5.02675
-4.32036
-3.57079
-2.46324
1.3375
-8.98347
-8.93213
-8.82744
-8.66538
-8.43969
-8.14184
-7.76098
-7.28461
-6.70029
-6.00066
-5.19507
-4.33812
-3.60879
-3.61157
-6.95639
-9.57587
-9.52589
-9.42351
-9.26369
-9.03844
-8.73626
-8.34155
-7.83411
-7.18957
-6.38271
-5.39907
-4.26726
-3.13838
-2.43902
-2.89111
-10.203
-10.156
-10.0595
-9.90745
-9.6906
-9.39494
-9.0004
-8.47884
-7.79155
-6.88752
-5.70595
-4.19438
-2.36968
-0.466867
0.860226
-10.8626
-10.8207
-10.7339
-10.5962
-10.3975
-10.1223
-9.74747
-9.23865
-8.54406
-7.58507
-6.24201
-4.33894
-1.65523
1.9051
5.53316
-11.5515
-11.5165
-11.4437
-11.3274
-11.1575
-10.9188
-10.5876
-10.1275
-9.48018
-8.54933
-7.16697
-5.02561
-1.54955
4.23002
12.7256
-12.2646
-12.2385
-12.1839
-12.0957
-11.9654
-11.7795
-11.5173
-11.1462
-10.6132
-9.82714
-8.619
-6.63916
-3.04352
4.66883
25.8178
-146.475
-88.0201
-61.5386
-48.8858
-42.1097
-38.0637
-35.4358
-33.6247
-32.327
-31.3765
-30.6759
-30.1659
-29.8093
-29.5827
-29.4726
-182.19
-82.364
-54.6673
-43.9897
-38.6342
-35.4538
-33.3616
-31.8963
-30.8305
-30.0398
-29.4512
-29.0193
-28.7156
-28.5219
-28.4276
46.925
-26.6179
-35.977
-35.3978
-33.6483
-32.0881
-30.8521
-29.8904
-29.1428
-28.5629
-28.1176
-27.7838
-27.5456
-27.3922
-27.317
-7.0427
-15.4439
-24.1884
-27.6186
-28.531
-28.4974
-28.1521
-27.736
-27.3388
-26.9924
-26.7065
-26.4819
-26.3166
-26.208
-26.1543
25.9143
-4.03163
-16.0902
-21.5879
-24.0706
-25.123
-25.5013
-25.5683
-25.4993
-25.3801
-25.2529
-25.1388
-25.0481
-24.9859
-24.9543
-1.42347
-5.04107
-12.5481
-17.6509
-20.6035
-22.2167
-23.0667
-23.4951
-23.6949
-23.7732
-23.7902
-23.7794
-23.76
-23.7424
-23.7324
11.463
-3.34949
-10.6757
-15.2072
-18.0665
-19.8405
-20.9247
-21.5808
-21.9747
-22.209
-22.3467
-22.4261
-22.4705
-22.4937
-22.5035
-3.07611
-6.85666
-10.7441
-13.9247
-16.2833
-17.9433
-19.0801
-19.8485
-20.3652
-20.7119
-20.9438
-21.0971
-21.1957
-21.2542
-21.2815
-14.9898
-10.2896
-11.3034
-13.213
-14.9851
-16.4095
-17.4914