/*--------------------------------*- C++ -*----------------------------------*\
| =========                 |                                                 |
| \\      /  F ield         | OpenFOAM: The Open Source CFD Toolbox           |
|  \\    /   O peration     | Version:  5.x                                   |
|   \\  /    A nd           | Web:      www.OpenFOAM.org                      |
|    \\/     M anipulation  |                                                 |
\*---------------------------------------------------------------------------*/
FoamFile
{
    version     2.0;
    format      ascii;
    class       volScalarField;
    location    "15.4";
    object      gradTx;
}
// * * * * * * * * * * * * * * * * * * * * * * * * * * * * * * * * * * * * * //

dimensions      [0 -1 0 1 0 0 0];

internalField   nonuniform List<scalar> 
2048
(
0.00630505
0.0187345
0.0306389
0.0417204
0.05175
0.0605786
0.0681356
0.0744189
0.0794781
0.0833962
0.0862728
0.0882124
0.0893168
0.089683
0.0894032
0.0885668
0.0872606
0.0855679
0.0835668
0.0813256
0.0789001
0.0763311
0.0736433
0.070847
0.0679399
0.0649098
0.0617373
0.0583967
0.0548573
0.051083
0.0470337
0.0426656
0.0379337
0.0327932
0.0272024
0.0211236
0.0145246
0.0073793
-0.000331948
-0.00862078
-0.0174887
-0.0269235
-0.0368936
-0.0473418
-0.0581765
-0.0692629
-0.0804138
-0.0913822
-0.101857
-0.111465
-0.119783
-0.12636
-0.130754
-0.132571
-0.131512
-0.127417
-0.120278
-0.110248
-0.0976159
-0.0827654
-0.0661299
-0.0481505
-0.029247
-0.00980744
0.0187887
0.0558185
0.0912572
0.124206
0.15398
0.180138
0.20248
0.221015
0.235902
0.247403
0.25582
0.26147
0.264655
0.265661
0.26476
0.262216
0.258285
0.253217
0.247244
0.240572
0.233369
0.225753
0.217799
0.209534
0.20095
0.192008
0.182651
0.172801
0.162367
0.151243
0.139308
0.126432
0.11248
0.097318
0.0808211
0.0628773
0.0433907
0.0222833
-0.000503534
-0.0250062
-0.0512324
-0.07915
-0.108672
-0.139635
-0.171777
-0.204706
-0.237876
-0.270558
-0.301833
-0.330587
-0.35555
-0.375362
-0.388676
-0.394292
-0.391298
-0.379195
-0.357964
-0.328075
-0.290414
-0.246153
-0.196609
-0.14311
-0.0869055
-0.0291384
0.0311405
0.092484
0.151107
0.205487
0.254475
0.297355
0.33383
0.363957
0.388048
0.406568
0.420047
0.429015
0.433972
0.435385
0.433691
0.429319
0.42269
0.414218
0.404292
0.393257
0.381393
0.368897
0.355885
0.342398
0.328413
0.313863
0.298649
0.282643
0.265697
0.247635
0.228258
0.207349
0.184681
0.160031
0.133189
0.103972
0.0722203
0.037806
0.000630354
-0.0393714
-0.0822209
-0.127879
-0.176221
-0.227001
-0.279814
-0.334044
-0.388819
-0.442964
-0.49497
-0.542993
-0.584902
-0.618388
-0.641139
-0.651079
-0.646613
-0.626865
-0.591803
-0.542255
-0.479771
-0.406391
-0.324374
-0.235962
-0.143224
-0.0480094
0.0436003
0.129427
0.211276
0.286942
0.354799
0.413875
0.463827
0.504823
0.537392
0.562259
0.580211
0.592006
0.598337
0.599834
0.597087
0.590675
0.581179
0.569183
0.555238
0.539839
0.523379
0.506136
0.488261
0.469795
0.450692
0.430849
0.41012
0.388332
0.36528
0.340721
0.314378
0.285944
0.255096
0.221516
0.184911
0.145022
0.101631
0.0545599
0.0036696
-0.0511385
-0.109911
-0.17262
-0.239128
-0.30914
-0.382145
-0.457348
-0.533597
-0.609309
-0.682414
-0.750338
-0.81005
-0.85821
-0.891424
-0.906598
-0.901334
-0.874295
-0.825436
-0.756016
-0.668383
-0.565594
-0.450975
-0.327746
-0.198794
-0.066611
0.0563837
0.16727
0.272723
0.369773
0.456288
0.531071
0.593802
0.644858
0.685076
0.715515
0.737264
0.751324
0.758571
0.759776
0.755655
0.746923
0.73432
0.718602
0.700503
0.68068
0.659652
0.637774
0.615222
0.592023
0.568093
0.543278
0.517387
0.4902
0.46146
0.430864
0.398055
0.362629
0.324159
0.282227
0.236448
0.186492
0.132083
0.0729969
0.00905418
-0.0598832
-0.1339
-0.213002
-0.297069
-0.385794
-0.47861
-0.574597
-0.672382
-0.770028
-0.864939
-0.953809
-1.03266
-1.097
-1.14217
-1.16387
-1.15869
-1.1247
-1.06186
-0.971947
-0.858332
-0.725318
-0.577484
-0.419135
-0.253976
-0.0850564
0.0696958
0.206601
0.336344
0.455076
0.560125
0.650112
0.724845
0.785036
0.831957
0.867095
0.891895
0.907615
0.915292
0.915802
0.909955
0.898577
0.882564
0.862863
0.840413
0.816057
0.790457
0.764043
0.737004
0.709328
0.68087
0.651413
0.620713
0.588509
0.554507
0.518346
0.479586
0.43772
0.392204
0.342507
0.288148
0.228725
0.163908
0.0934369
0.0170923
-0.0653071
-0.153899
-0.248746
-0.349781
-0.456729
-0.569021
-0.685679
-0.805178
-0.925299
-1.04297
-1.15418
-1.25392
-1.33642
-1.39554
-1.42544
-1.42144
-1.38086
-1.30359
-1.19214
-1.0512
-0.886626
-0.704543
-0.510467
-0.308918
-0.103386
0.0837405
0.247999
0.403005
0.543884
0.667385
0.772016
0.857848
0.926103
0.978645
1.01751
1.04457
1.06132
1.06895
1.06837
1.06043
1.04605
1.02628
1.00227
0.975211
0.946171
0.915972
0.885121
0.853796
0.821917
0.789244
0.755476
0.720314
0.683471
0.644627
0.603376
0.559195
0.511457
0.459484
0.402615
0.340266
0.271962
0.197333
0.116089
0.0279817
-0.0672182
-0.169715
-0.279655
-0.397059
-0.521735
-0.65317
-0.7904
-0.931837
-1.07507
-1.21665
-1.35185
-1.47462
-1.57774
-1.65328
-1.69349
-1.69205
-1.64522
-1.55282
-1.41832
-1.24812
-1.05014
-0.832388
-0.601758
-0.363565
-0.121568
0.0987296
0.29206
0.473584
0.637214
0.779082
0.897679
0.993535
1.0686
1.12553
1.16706
1.19554
1.21273
1.21985
1.21782
1.20744
1.18968
1.16575
1.13705
1.10507
1.07115
1.03631
1.00113
0.965748
0.929966
0.893407
0.855662
0.816374
0.775248
0.73197
0.686104
0.637042
0.584018
0.52619
0.462746
0.392985
0.316367
0.232496
0.141071
0.0418251
-0.0655162
-0.181239
-0.305601
-0.438752
-0.580628
-0.730837
-0.888505
-1.05209
-1.2191
-1.38581
-1.54688
-1.69518
-1.82185
-1.91682
-1.96997
-1.97277
-1.92006
-1.81151
-1.65187
-1.44985
-1.21608
-0.960868
-0.692713
-0.417662
-0.139506
0.114889
0.339416
0.548991
0.736086
0.896185
1.02791
1.13248
1.21288
1.27281
1.31585
1.34491
1.36196
1.36821
1.36442
1.35129
1.32977
1.30123
1.26739
1.23011
1.19108
1.15154
1.11216
1.07298
1.03363
0.993541
0.952148
0.909045
0.863963
0.816637
0.766629
0.713237
0.655529
0.592463
0.52304
0.446432
0.362038
0.269463
0.16842
0.0586435
-0.0601815
-0.188438
-0.326525
-0.474762
-0.633261
-0.801807
-0.979704
-1.16556
-1.35697
-1.55006
-1.73903
-1.91567
-2.06931
-2.18734
-2.25664
-2.26575
-2.20758
-2.08149
-1.89394
-1.65681
-1.38424
-1.08945
-0.78274
-0.470767
-0.157037
0.132464
0.390748
0.630191
0.841553
1.01964
1.16341
1.27514
1.35913
1.42047
1.46379
1.49259
1.50903
1.51414
1.50839
1.49224
1.46656
1.43292
1.39343
1.3504
1.30596
1.26167
1.21824
1.17559
1.13307
1.08982
1.04511
0.998464
0.949707
0.898686
0.844999
0.787845
0.72608
0.658408
0.583604
0.500689
0.409022
0.308237
0.198104
0.0783864
-0.0512655
-0.191345
-0.342429
-0.505046
-0.679528
-0.865891
-1.06369
-1.27183
-1.48812
-1.7088
-1.92775
-2.13581
-2.32034
-2.46574
-2.5551
-2.57314
-2.50999
-2.36452
-2.14549
-1.86906
-1.55402
-1.21724
-0.870956
-0.522259
-0.173941
0.151728
0.446803
0.718225
0.954711
1.1504
1.30484
1.4218
1.50737
1.56833
1.61062
1.6384
1.65386
1.6577
1.64992
1.63054
1.60032
1.56102
1.51525
1.46594
1.41577
1.36666
1.31941
1.27367
1.22842
1.18243
1.13471
1.08476
1.03254
0.978132
0.921225
0.860896
0.795728
0.724107
0.644517
0.55581
0.457322
0.348772
0.230035
0.10094
-0.0388826
-0.190056
-0.353373
-0.529616
-0.719378
-0.922941
-1.14019
-1.37043
-1.61191
-1.86123
-2.11226
-2.35503
-2.57487
-2.75268
-2.86688
-2.89712
-2.82962
-2.66238
-2.40725
-2.08629
-1.72443
-1.34295
-0.956207
-0.57136
-0.189945
0.172983
0.508406
0.814223
1.07672
1.28937
1.45277
1.57266
1.65746
1.71604
1.75593
1.78199
1.79629
1.79892
1.78917
1.76646
1.7313
1.68571
1.63295
1.57671
1.52041
1.46644
1.41563
1.36729
1.31985
1.27158
1.22116
1.16804
1.11249
1.05495
0.995274
0.932387
0.864513
0.789627
0.70585
0.611827
0.506912
0.390979
0.264072
0.126135
-0.0232024
-0.184715
-0.359465
-0.548541
-0.752817
-0.972866
-1.20895
-1.46091
-1.72765
-2.00642
-2.29149
-2.57241
-2.83247
-3.0486
-3.19342
-3.23999
-3.16899
-2.97693
-2.67984
-2.30786
-1.89402
-1.46495
-1.03709
-0.617152
-0.204733
0.196568
0.576471
0.919421
1.20881
1.43751
1.60768
1.72778
1.80908
1.86308
1.89917
1.92294
1.93609
1.93779
1.92634
1.90029
1.85977
1.80717
1.74658
1.68266
1.61976
1.56088
1.50687
1.45654
1.40754
1.3575
1.30465
1.24843
1.18956
1.12907
1.06708
1.00229
0.932458
0.85503
0.767668
0.668761
0.557741
0.434734
0.300032
0.153755
-0.00444258
-0.175515
-0.360861
-0.561936
-0.779915
-1.01565
-1.2698
-1.54285
-1.8346
-2.14331
-2.46417
-2.78673
-3.0924
-3.35362
-3.53606
-3.60422
-3.53097
-3.3102
-2.96366
-2.53269
-2.06089
-1.58124
-1.11198
-0.658617
-0.217962
0.222863
0.65201
1.03517
1.35228
1.59571
1.76998
1.88709
1.96179
2.00875
2.03963
2.06073
2.07301
2.07431
2.06163
2.03237
1.98603
1.92557
1.85619
1.78369
1.71362
1.6498
1.59309
1.54151
1.49169
1.44046
1.38545
1.32605
1.26371
1.20037
1.13653
1.07057
0.999578
0.920381
0.830046
0.726631
0.609735
0.479882
0.337692
0.183537
0.0171379
-0.162679
-0.357748
-0.569965
-0.800807
-1.05135
-1.32265
-1.61593
-1.93208
-2.27078
-2.62881
-2.99645
-3.35353
-3.66758
-3.89603
-3.99251
-3.91884
-3.66446
-3.25895
-2.75923
-2.2227
-1.6895
-1.17909
-0.694676
-0.229273
0.252295
0.736138
1.16293
1.50853
1.76489
1.93996
2.05041
2.11499
2.1522
2.17648
2.19477
2.20679
2.20848
2.1953
2.16308
2.11043
2.0411
1.96181
1.87968
1.80176
1.733
1.67422
1.6223
1.57253
1.52076
1.46386
1.40105
1.33488
1.26869
1.20349
1.13716
1.06588
0.985752
0.893077
0.785455
0.662806
0.526244
0.3768
0.215182
0.0412446
-0.146461
-0.350335
-0.572826
-0.815691
-1.08012
-1.3675
-1.6799
-2.01946
-2.38767
-2.78377
-3.19974
-3.61437
-3.98995
-4.27438
-4.40781
-4.33647
-4.04232
-3.56569
-2.98538
-2.37656
-1.78714
-1.23656
-0.724241
-0.238317
0.285347
0.830079
1.3043
1.67905
1.94588
2.1178
2.21742
2.26796
2.29244
2.30875
2.32444
2.33716
2.34029
2.32763
2.29291
2.23332
2.15394
2.06347
1.97047
1.88388
1.8102
1.75017
1.69905
1.65031
1.59877
1.54023
1.47356
1.40294
1.33379
1.26779
1.202
1.13138
1.05123
0.956883
0.845258
0.716845
0.573624
0.417075
0.248357
0.0675529
-0.127128
-0.338843
-0.570744
-0.824825
-1.1022
-1.40447
-1.73464
-2.09624
-2.49287
-2.92724
-3.39445
-3.87304
-4.31978
-4.6719
-4.85338
-4.78853
-4.4468
-3.88353
-3.20838
-2.5191
-1.87131
-1.28246
-0.746271
-0.244769
0.322566
0.93516
1.461
1.86545
2.13948
2.30349
2.38775
2.41989
2.42831
2.43537
2.44908
2.4639
2.46975
2.45895
2.42244
2.35513
2.26424
2.16124
2.05591
1.95961
1.88107
1.82088
1.77193
1.7253
1.67489
1.61502
1.54375
1.46771
1.39535
1.32924
1.26505
1.19607
1.11691
1.02163
0.906074
0.771721
0.621813
0.45822
0.282694
0.0957113
-0.104958
-0.323489
-0.563956
-0.828522
-1.11793
-1.43379
-1.7802
-2.16208
-2.58529
-3.05735
-3.57818
-4.12729
-4.65564
-5.08893
-5.33273
-5.2807
-4.88149
-4.21167
-3.42469
-2.64644
-1.93907
-1.31496
-0.759837
-0.248352
0.364593
1.0528
1.63485
2.06948
2.34638
2.49682
2.56094
2.56985
2.5585
2.55515
2.56804
2.58687
2.59685
2.5896
2.55239
2.47627
2.37212
2.2552
2.13582
2.02852
1.94522
1.88627
1.84116
1.79775
1.74954
1.6888
1.61182
1.52891
1.45299
1.38761
1.3263
1.25994
1.1829
1.08756
0.967945
0.82727
0.6706
0.499924
0.317794
0.125345
-0.0802241
-0.304469
-0.552699
-0.827144
-1.12774
-1.45579
-1.81674
-2.21688
-2.66402
-3.17211
-3.74829
-4.37452
-4.99561
-5.5252
-5.84961
-5.82
-5.35068
-4.54863
-3.62981
-2.75419
-1.98739
-1.33241
-0.76418
-0.248856
0.412191
1.18449
1.82776
2.29311
2.5671
2.69731
2.73653
2.71693
2.68156
2.66675
2.68073
2.70606
2.7215
2.71996
2.68371
2.59718
2.47759
2.34548
2.21006
2.09007
2.00216
1.9463
1.90706
1.8679
1.82319
1.7623
1.67798
1.58618
1.5062
1.4427
1.38577
1.32295
1.24931
1.15499
1.03091
0.883281
0.719784
0.541874
0.353224
0.156054
-0.053195
-0.281942
-0.537193
-0.821096
-1.13216
-1.47088
-1.84461
-2.26078
-2.72829
-3.26955
-3.9019
-4.61186
-5.33727
-5.97949
-6.4079
-6.41522
-5.85951
-4.89197
-3.81814
-2.83756
-2.01339
-1.3334
-0.758767
-0.246154
0.466319
1.33176
2.04165
2.5386
2.80193
2.90409
2.91417
2.86017
2.79583
2.76871
2.78662
2.82168
2.84351
2.85037
2.81759
2.71828
2.58051
2.43237
2.2785
2.14363
2.0513
2.00096
1.97006
1.93591
1.89631
1.83645
1.7425
1.63899
1.55436
1.49429
1.44361
1.38499
1.31624
1.2244
1.09502
0.939464
0.769199
0.583765
0.388512
0.187417
-0.0241236
-0.256018
-0.517627
-0.810821
-1.13182
-1.47951
-1.86424
-2.29427
-2.77754
-3.34766
-4.03597
-4.83628
-5.67773
-6.44926
-7.0114
-7.07752
-6.4142
-5.23786
-3.98283
-2.89142
-2.0144
-1.31693
-0.743337
-0.240213
0.528241
1.49611
2.27839
2.80869
3.05087
3.11574
3.09372
2.99872
2.89948
2.8594
2.88528
2.93424
2.96245
2.98106
2.95567
2.8399
2.68051
2.51633
2.34108
2.18842
2.09194
2.05028
2.03081
2.00176
1.96929
1.91251
1.80564
1.68664
1.59671
1.54219
1.50011
1.44584
1.38372
1.29643
1.16028
0.995411
0.818744
0.625306
0.42314
0.218987
0.0067542
-0.226734
-0.49414
-0.796791
-1.12745
-1.48217
-1.87616
-2.31824
-2.81151
-3.40448
-4.14723
-5.04465
-6.01388
-6.93015
-7.66351
-7.82114
-7.02219
-5.58053
-4.11556
-2.9105
-1.98822
-1.28244
-0.717927
-0.231099
0.599708
1.67893
2.53961
3.1068
3.31344
3.33015
3.27552
3.1318
2.99042
2.937
2.97644
3.04475
3.07751
3.11212
3.10022
2.96223
2.7768
2.59815
2.39779
2.22348
2.12323
2.09438
2.09022
2.06521
2.04243
1.99218
1.8677
1.7282
1.6323
1.58628
1.55583
1.50512
1.45172
1.37207
1.22666
1.05054
0.86844
0.666236
0.456526
0.250293
0.0392206
-0.19404
-0.466807
-0.7795
-1.11994
-1.47928
-1.8809
-2.33408
-2.83022
-3.4381
-4.23225
-5.23399
-6.34265
-7.41531
-8.36671
-8.66451
-7.69247
-5.91144
-4.20656
-2.88965
-1.93325
-1.22993
-0.682886
-0.218979
0.683246
1.8814
2.82653
3.43746
3.58854
3.5442
3.46064
3.25876
3.06626
2.99946
3.05996
3.15492
3.1873
3.24333
3.2544
3.08521
2.86802
2.67914
2.44874
2.24764
2.14413
2.13344
2.14966
2.1256
2.11585
2.07775
1.92894
1.76242
1.66004
1.62648
1.61168
1.56214
1.52007
1.45271
1.29402
1.10401
0.918503
0.706325
0.48801
0.280841
0.0730727
-0.157782
-0.43562
-0.759455
-1.11037
-1.47117
-1.87893
-2.3438
-2.83397
-3.4467
-4.2873
-5.40153
-6.66159
-7.89457
-9.1218
-9.63156
-8.43572
-6.21825
-4.24452
-2.82412
-1.84869
-1.15996
-0.638866
-0.204108
0.782596
2.10426
3.13953
3.80683
3.87421
3.75343
3.65134
3.37908
3.12424
3.04448
3.13585
3.26752
3.28957
3.37401
3.42267
3.20836
2.95198
2.76138
2.49406
2.25946
2.15338
2.16767
2.21118
2.1817
2.18934
2.17238
1.98956
1.78774
1.67862
1.66274
1.6691
1.61579
1.58834
1.54038
1.36204
1.15462
0.96946
0.745369
0.516828
0.31012
0.108113
-0.117677
-0.400478
-0.737154
-1.10008
-1.45799
-1.87043
-2.35017
-2.82339
-3.42857
-4.3083
-5.54488
-6.96971
-8.35355
-9.92682
-10.7535
-9.26459
-6.48346
-4.21684
-2.71001
-1.73468
-1.07366
-0.58679
-0.186819
0.903349
2.34766
3.47775
4.22348
4.16728
3.95153
3.85169
3.4923
3.16118
3.06944
3.20415
3.38678
3.38076
3.50275
3.61138
3.33057
3.02532
2.84814
2.53395
2.25718
2.1495
2.19732
2.27772
2.23143
2.2622
2.2804
2.04952
1.80216
1.68653
1.69507
1.73031
1.66437
1.65578
1.63799
1.43016
1.20067
1.0223
0.783178
0.542075
0.337619
0.144135
-0.0732996
-0.361177
-0.71305
-1.09077
-1.43961
-1.85519
-2.35696
-2.79932
-3.38221
-4.29066
-5.66205
-7.2687
-8.77242
-10.7756
-12.0713
-10.1938
-6.68267
-4.11005
-2.5447
-1.59242
-0.972729
-0.527803
-0.167503
1.05386
2.61079
3.83835
4.69944
4.46295
4.12976
4.06837
3.59784
3.17336
3.07141
3.26484
3.51906
3.45559
3.62716
3.8295
3.4498
3.08307
2.94436
2.56846
2.23865
2.13077
2.22252
2.35361
2.27153
2.33309
2.40776
2.10845
1.80321
1.6821
1.72341
1.79864
1.70527
1.72115
1.74969
1.49739
1.23975
1.07872
0.819526
0.562674
0.36285
0.180895
-0.0240553
-0.317407
-0.687497
-1.08465
-1.41558
-1.83228
-2.36919
-2.76272
-3.3064
-4.22902
-5.75135
-7.56455
-9.12468
-11.6556
-13.6382
-11.2404
-6.78242
-3.91053
-2.32734
-1.42423
-0.859312
-0.463215
-0.146586
1.24649
2.89153
4.21557
5.25162
4.75425
4.27616
4.31175
3.69469
3.15649
3.04718
3.3175
3.67365
3.50637
3.7434
4.08954
3.56266
3.11814
3.05734
2.59739
2.2013
2.09521
2.24316
2.44505
2.29719
2.3997
2.56259
2.16529
1.78795
1.66353
1.74752
1.8789
1.73474
1.78254
1.88133
1.56215
1.26859
1.14134
0.854086
0.577331
0.385393
0.218077
0.0308461
-0.26877
-0.660665
-1.08465
-1.38502
-1.79975
-2.39357
-2.71445
-3.2004
-4.11705
-5.81103
-7.86985
-9.37571
-12.5457
-15.5238
-12.4234
-6.73757
-3.6058
-2.05935
-1.23349
-0.73593
-0.394426
-0.12451
1.49924
3.18595
4.59958
5.90363
5.03125
4.37463
4.59726
3.78092
3.10568
2.99332
3.36092
3.86381
3.52225
3.84573
4.40877
3.66392
3.12064
3.19764
2.61988
2.14214
2.04069
2.25855
2.56079
2.3015
2.45849
2.7559
2.218
1.75289
1.62895
1.76677
1.97796
1.74742
1.8371
2.04098
1.62199
1.28272
1.21418
0.886296
0.584493
0.404953
0.255239
0.0924242
-0.214805
-0.632407
-1.09463
-1.34653
-1.75417
-2.43896
-2.65495
-3.06422
-3.94713
-5.8386
-8.20649
-9.48121
-13.4123
-17.8184
-13.7636
-6.4882
-3.18623
-1.74483
-1.02455
-0.605327
-0.322857
-0.10171
1.83793
3.48769
4.97489
6.68803
5.28017
4.40378
4.94709
3.85295
3.01549
2.90633
3.39245
4.10809
3.48827
3.92587
4.81073
3.74583
3.07715
3.38021
2.63398
2.05775
1.96496
2.26706
2.71303
2.27486
2.50429
3.00245
2.26295
1.69413
1.57657
1.77979
2.10538
1.7359
1.88082
2.23968
1.67331
1.27622
1.30301
0.915188
0.582311
0.421443
0.291735
0.161973
-0.155048
-0.60208
-1.11971
-1.29821
-1.69009
-2.51703
-2.58378
-2.89898
-3.71007
-5.82974
-8.60923
-9.38571
-14.2059
-20.6382
-15.2833
-5.95597
-2.64745
-1.39075
-0.802486
-0.470327
-0.249885
-0.0785963
2.29878
3.78721
5.31851
7.64913
5.48227
4.33568
5.39232
3.90447
2.87999
2.7829
3.40709
4.43199
3.38429
3.97226
5.32691
3.79734
2.96985
3.62571
2.63595
1.94435
1.86587
2.26551
2.91846
2.20429
2.52987
3.32179
2.29429
1.60739
1.50485
1.78401
2.27429
1.69017
1.90815
2.49222
1.71092
1.24136
1.41602
0.939131
0.568609
0.435095
0.326626
0.241119
-0.089128
-0.568297
-1.16661
-1.23756
-1.5994
-2.64309
-2.49893
-2.70745
-3.39491
-5.77665
-9.12976
-9.02099
-14.8558
-24.1316
-17.0052
-5.04011
-1.99352
-1.00697
-0.572821
-0.333679
-0.17678
-0.0555392
2.93169
4.07099
5.59767
8.84623
5.61245
4.13433
5.97538
3.92508
2.69308
2.62029
3.39633
4.86987
3.18376
3.96921
5.9988
3.80315
2.77551
3.96219
2.61937
1.79799
1.74161
2.24843
3.1995
2.07258
2.52544
3.73951
2.30304
1.48827
1.41273
1.77508
2.50233
1.59694
1.91166
2.8181
1.72759
1.1682
1.5644
0.955495
0.540876
0.44659
0.358555
0.331906
-0.016906
-0.528617
-1.24403
-1.16156
-1.47053
-2.8371
-2.39601
-2.49469
-2.98878
-5.66583
-9.84153
-8.30477
-15.2645
-28.4863
-18.9508
-3.61293
-1.24083
-0.605813
-0.341146
-0.197922
-0.104667
-0.0328603
3.80399
4.32044
5.76728
10.3574
5.63766
3.75414
6.75293
3.89852
2.44881
2.41681
3.34662
5.46726
2.85228
3.89595
6.88013
3.74261
2.46443
4.42692
2.57399
1.61477
1.59099
2.20707
3.58586
1.85741
2.47807
4.2886
2.27603
1.33246
1.29996
1.74602
2.81285
1.43894
1.88157
3.24258
1.71348
1.04423
1.76315
0.960222
0.496283
0.457214
0.385592
0.436894
0.0613353
-0.479146
-1.36315
-1.06671
-1.2875
-3.12483
-2.26711
-2.26891
-2.47699
-5.47511
-10.8451
-7.13952
-15.3013
-33.937
-21.1394
-1.51516
-0.422854
-0.201267
-0.112737
-0.0652792
-0.0344928
-0.0108262
)
;

boundaryField
{
    left
    {
        type            calculated;
        value           uniform 0;
    }
    right
    {
        type            calculated;
        value           uniform 0;
    }
    interface
    {
        type            calculated;
        value           nonuniform List<scalar> 
64
(
3.80399
4.32044
5.76728
10.3574
5.63766
3.75414
6.75293
3.89852
2.44881
2.41681
3.34662
5.46726
2.85228
3.89595
6.88013
3.74261
2.46443
4.42692
2.57399
1.61477
1.59099
2.20707
3.58586
1.85741
2.47807
4.2886
2.27603
1.33246
1.29996
1.74602
2.81285
1.43894
1.88157
3.24258
1.71348
1.04423
1.76315
0.960222
0.496283
0.457214
0.385592
0.436894
0.0613353
-0.479146
-1.36315
-1.06671
-1.2875
-3.12483
-2.26711
-2.26891
-2.47699
-5.47511
-10.8451
-7.13952
-15.3013
-33.937
-21.1394
-1.51516
-0.422854
-0.201267
-0.112737
-0.0652792
-0.0344928
-0.0108262
)
;
    }
    bottom
    {
        type            calculated;
        value           nonuniform List<scalar> 
64
(
0.00630505
0.0187345
0.0306389
0.0417204
0.05175
0.0605786
0.0681356
0.0744189
0.0794781
0.0833962
0.0862728
0.0882124
0.0893168
0.089683
0.0894032
0.0885668
0.0872606
0.0855679
0.0835668
0.0813256
0.0789001
0.0763311
0.0736433
0.070847
0.0679399
0.0649098
0.0617373
0.0583967
0.0548573
0.051083
0.0470337
0.0426656
0.0379337
0.0327932
0.0272024
0.0211236
0.0145246
0.0073793
-0.000331948
-0.00862078
-0.0174887
-0.0269235
-0.0368936
-0.0473418
-0.0581765
-0.0692629
-0.0804138
-0.0913822
-0.101857
-0.111465
-0.119783
-0.12636
-0.130754
-0.132571
-0.131512
-0.127417
-0.120278
-0.110248
-0.0976159
-0.0827654
-0.0661299
-0.0481505
-0.029247
-0.00980744
)
;
    }
    defaultFaces
    {
        type            empty;
    }
}


// ************************************************************************* //
