/*--------------------------------*- C++ -*----------------------------------*\
| =========                 |                                                 |
| \\      /  F ield         | OpenFOAM: The Open Source CFD Toolbox           |
|  \\    /   O peration     | Version:  5.x                                   |
|   \\  /    A nd           | Web:      www.OpenFOAM.org                      |
|    \\/     M anipulation  |                                                 |
\*---------------------------------------------------------------------------*/
FoamFile
{
    version     2.0;
    format      ascii;
    class       volScalarField;
    location    "14.1";
    object      T;
}
// * * * * * * * * * * * * * * * * * * * * * * * * * * * * * * * * * * * * * //

dimensions      [0 0 0 1 0 0 0];

internalField   nonuniform List<scalar> 
6300
(
322.84
322.521
322.2
321.878
321.553
321.225
320.894
320.558
320.217
319.872
319.52
319.163
318.8
318.431
318.056
322.841
322.522
322.202
321.88
321.556
321.229
320.898
320.563
320.223
319.877
319.526
319.169
318.806
318.437
318.062
322.841
322.524
322.206
321.885
321.562
321.236
320.907
320.572
320.233
319.888
319.538
319.181
318.818
318.449
318.073
322.843
322.527
322.211
321.893
321.572
321.248
320.92
320.587
320.249
319.905
319.556
319.199
318.836
318.467
318.091
322.844
322.532
322.218
321.903
321.585
321.263
320.937
320.607
320.271
319.929
319.58
319.224
318.861
318.491
318.114
322.846
322.537
322.227
321.915
321.601
321.282
320.96
320.632
320.298
319.958
319.611
319.256
318.893
318.523
318.144
322.848
322.544
322.238
321.931
321.62
321.306
320.988
320.663
320.333
319.995
319.65
319.296
318.933
318.562
318.182
322.851
322.552
322.252
321.949
321.644
321.335
321.021
320.701
320.374
320.04
319.697
319.345
318.982
318.61
318.227
322.854
322.561
322.267
321.971
321.671
321.368
321.059
320.745
320.423
320.093
319.754
319.403
319.042
318.668
318.282
322.857
322.571
322.284
321.995
321.703
321.406
321.104
320.797
320.481
320.156
319.821
319.474
319.113
318.738
318.348
322.861
322.583
322.304
322.022
321.738
321.449
321.156
320.856
320.547
320.23
319.9
319.557
319.199
318.822
318.427
322.865
322.596
322.325
322.053
321.777
321.498
321.214
320.923
320.624
320.315
319.993
319.657
319.302
318.926
318.526
322.87
322.61
322.349
322.086
321.821
321.552
321.278
320.998
320.71
320.412
320.101
319.774
319.426
319.053
318.651
322.875
322.625
322.375
322.122
321.868
321.61
321.348
321.081
320.807
320.523
320.226
319.912
319.575
319.21
318.811
322.881
322.641
322.402
322.161
321.918
321.673
321.424
321.171
320.913
320.646
320.368
320.073
319.753
319.399
319.006
317.707
317.387
317.062
316.734
316.403
316.07
315.733
315.394
315.053
314.71
314.365
314.018
313.67
313.321
312.971
312.62
312.269
311.918
311.567
311.216
310.865
310.515
310.165
309.816
309.467
309.118
308.77
308.423
308.076
307.73
307.384
307.04
306.696
306.353
306.012
305.672
305.332
304.994
304.657
304.32
303.985
303.65
303.317
302.984
302.653
302.322
301.992
301.664
301.337
301.011
300.686
300.362
300.039
299.717
299.397
299.077
298.758
298.44
298.123
297.806
297.491
297.177
296.863
296.551
296.239
295.929
295.62
295.311
295.004
294.697
294.391
294.085
293.78
293.476
293.172
292.869
292.567
292.265
291.964
291.663
291.363
291.062
290.762
290.462
290.161
289.86
289.558
289.256
288.952
288.648
317.713
317.392
317.067
316.739
316.408
316.073
315.737
315.397
315.056
314.712
314.367
314.02
313.672
313.322
312.972
312.621
312.27
311.918
311.567
311.216
310.865
310.514
310.165
309.815
309.466
309.117
308.769
308.422
308.075
307.728
307.383
307.038
306.695
306.352
306.01
305.67
305.331
304.992
304.655
304.319
303.984
303.649
303.316
302.983
302.651
302.32
301.991
301.662
301.335
301.009
300.684
300.36
300.037
299.716
299.395
299.075
298.757
298.438
298.121
297.805
297.49
297.175
296.862
296.549
296.238
295.928
295.618
295.31
295.003
294.696
294.39
294.084
293.779
293.475
293.172
292.869
292.566
292.264
291.963
291.663
291.362
291.062
290.762
290.462
290.162
289.861
289.56
289.257
288.954
288.649
317.724
317.402
317.077
316.748
316.416
316.081
315.744
315.404
315.062
314.717
314.371
314.024
313.675
313.325
312.973
312.622
312.27
311.918
311.566
311.215
310.864
310.513
310.163
309.814
309.465
309.116
308.768
308.42
308.073
307.726
307.38
307.035
306.692
306.349
306.007
305.667
305.328
304.99
304.652
304.316
303.981
303.647
303.313
302.98
302.648
302.317
301.988
301.659
301.332
301.005
300.681
300.357
300.035
299.713
299.393
299.073
298.754
298.436
298.119
297.802
297.487
297.172
296.859
296.546
296.235
295.925
295.616
295.308
295
294.694
294.388
294.082
293.778
293.473
293.17
292.867
292.564
292.263
291.962
291.661
291.362
291.062
290.763
290.463
290.164
289.863
289.562
289.26
288.956
288.652
317.74
317.418
317.091
316.761
316.429
316.093
315.754
315.414
315.07
314.725
314.378
314.03
313.68
313.328
312.976
312.623
312.27
311.918
311.565
311.213
310.862
310.511
310.161
309.812
309.463
309.114
308.765
308.417
308.07
307.723
307.377
307.031
306.687
306.344
306.002
305.662
305.323
304.985
304.648
304.312
303.977
303.643
303.309
302.976
302.644
302.313
301.983
301.654
301.326
301
300.676
300.352
300.03
299.709
299.389
299.069
298.75
298.432
298.115
297.798
297.483
297.168
296.854
296.542
296.231
295.921
295.612
295.304
294.997
294.691
294.385
294.08
293.775
293.471
293.167
292.864
292.562
292.26
291.959
291.66
291.36
291.062
290.763
290.465
290.166
289.866
289.566
289.264
288.961
288.656
317.763
317.439
317.111
316.78
316.445
316.108
315.768
315.426
315.082
314.736
314.388
314.038
313.686
313.333
312.979
312.625
312.271
311.917
311.563
311.211
310.859
310.509
310.159
309.809
309.46
309.111
308.763
308.414
308.066
307.718
307.371
307.025
306.681
306.337
305.996
305.655
305.317
304.979
304.643
304.307
303.972
303.638
303.304
302.971
302.638
302.306
301.976
301.647
301.319
300.993
300.669
300.346
300.024
299.703
299.384
299.065
298.746
298.428
298.11
297.793
297.477
297.162
296.848
296.535
296.224
295.915
295.606
295.299
294.993
294.687
294.382
294.077
293.772
293.468
293.164
292.86
292.558
292.256
291.956
291.657
291.358
291.061
290.764
290.467
290.169
289.871
289.572
289.271
288.968
288.663
317.791
317.465
317.135
316.802
316.466
316.127
315.786
315.443
315.097
314.749
314.4
314.048
313.694
313.339
312.983
312.627
312.271
311.915
311.56
311.207
310.855
310.505
310.155
309.806
309.457
309.109
308.76
308.411
308.062
307.713
307.365
307.018
306.672
306.328
305.987
305.647
305.309
304.972
304.636
304.301
303.967
303.632
303.298
302.964
302.631
302.298
301.967
301.637
301.31
300.984
300.66
300.337
300.017
299.697
299.378
299.059
298.741
298.422
298.104
297.787
297.47
297.154
296.84
296.527
296.216
295.907
295.599
295.293
294.987
294.682
294.378
294.073
293.768
293.464
293.159
292.855
292.553
292.251
291.951
291.652
291.355
291.059
290.764
290.469
290.174
289.878
289.58
289.28
288.977
288.672
317.826
317.498
317.165
316.829
316.49
316.149
315.806
315.462
315.115
314.766
314.415
314.061
313.705
313.347
312.988
312.628
312.269
311.912
311.556
311.202
310.85
310.499
310.151
309.802
309.454
309.106
308.757
308.407
308.057
307.706
307.356
307.008
306.661
306.317
305.975
305.636
305.298
304.963
304.629
304.295
303.961
303.627
303.292
302.957
302.623
302.289
301.956
301.625
301.297
300.971
300.648
300.327
300.008
299.689
299.371
299.053
298.735
298.417
298.098
297.779
297.461
297.144
296.829
296.516
296.205
295.897
295.591
295.285
294.981
294.678
294.374
294.069
293.764
293.459
293.154
292.849
292.546
292.244
291.944
291.646
291.35
291.057
290.764
290.472
290.18
289.886
289.591
289.292
288.99
288.685
317.868
317.536
317.199
316.86
316.518
316.174
315.83
315.484
315.136
314.786
314.433
314.077
313.718
313.356
312.993
312.629
312.267
311.906
311.548
311.193
310.841
310.492
310.145
309.799
309.452
309.104
308.755
308.404
308.052
307.699
307.346
306.995
306.647
306.301
305.96
305.621
305.286
304.952
304.62
304.288
303.955
303.622
303.286
302.95
302.613
302.277
301.942
301.61
301.281
300.956
300.634
300.314
299.997
299.681
299.365
299.048
298.73
298.411
298.091
297.77
297.45
297.132
296.815
296.502
296.191
295.884
295.58
295.277
294.975
294.673
294.37
294.066
293.761
293.455
293.148
292.841
292.536
292.233
291.933
291.637
291.343
291.052
290.764
290.476
290.188
289.898
289.606
289.31
289.009
288.703
317.918
317.581
317.238
316.893
316.547
316.201
315.855
315.508
315.16
314.81
314.456
314.098
313.735
313.368
312.999
312.629
312.261
311.896
311.535
311.18
310.829
310.482
310.138
309.795
309.451
309.105
308.756
308.404
308.048
307.691
307.334
306.979
306.628
306.281
305.939
305.603
305.27
304.94
304.612
304.283
303.952
303.618
303.282
302.943
302.603
302.263
301.925
301.59
301.26
300.935
300.615
300.299
299.985
299.672
299.359
299.045
298.727
298.407
298.085
297.761
297.438
297.116
296.797
296.483
296.173
295.868
295.566
295.267
294.968
294.669
294.369
294.065
293.759
293.451
293.141
292.831
292.523
292.219
291.918
291.622
291.332
291.045
290.761
290.48
290.198
289.914
289.627
289.335
289.035
288.728
317.977
317.632
317.282
316.929
316.577
316.227
315.88
315.535
315.188
314.839
314.485
314.125
313.757
313.384
313.006
312.627
312.25
311.879
311.516
311.16
310.811
310.469
310.13
309.793
309.453
309.11
308.761
308.407
308.047
307.683
307.319
306.958
306.602
306.253
305.912
305.578
305.251
304.927
304.604
304.28
303.952
303.619
303.281
302.938
302.592
302.246
301.902
301.564
301.232
300.908
300.591
300.279
299.971
299.664
299.356
299.045
298.728
298.407
298.081
297.752
297.422
297.095
296.773
296.457
296.148
295.846
295.549
295.255
294.963
294.668
294.371
294.069
293.761
293.449
293.134
292.819
292.506
292.198
291.896
291.602
291.314
291.033
290.757
290.483
290.21
289.935
289.656
289.369
289.072
288.764
318.048
317.692
317.328
316.964
316.604
316.25
315.904
315.562
315.221
314.876
314.523
314.161
313.788
313.405
313.014
312.621
312.232
311.852
311.484
311.129
310.785
310.45
310.121
309.793
309.461
309.123
308.775
308.418
308.051
307.677
307.301
306.929
306.565
306.214
305.874
305.546
305.226
304.911
304.598
304.281
303.959
303.628
303.288
302.938
302.583
302.225
301.872
301.527
301.193
300.87
300.558
300.255
299.956
299.658
299.358
299.051
298.737
298.413
298.081
297.743
297.404
297.068
296.739
296.422
296.114
295.817
295.528
295.243
294.959
294.672
294.379
294.079
293.77
293.452
293.129
292.803
292.481
292.167
291.863
291.57
291.288
291.015
290.748
290.486
290.225
289.963
289.696
289.418
289.126
288.816
318.136
317.762
317.376
316.992
316.62
316.263
315.921
315.589
315.258
314.923
314.576
314.214
313.834
313.437
313.026
312.609
312.201
311.808
311.435
311.082
310.746
310.424
310.11
309.797
309.479
309.149
308.804
308.443
308.064
307.673
307.276
306.887
306.512
306.157
305.82
305.5
305.193
304.894
304.596
304.292
303.978
303.65
303.307
302.947
302.575
302.199
301.829
301.474
301.137
300.818
300.514
300.223
299.939
299.656
299.368
299.07
298.758
298.432
298.09
297.737
297.379
297.029
296.691
296.37
296.066
295.777
295.499
295.229
294.959
294.684
294.4
294.102
293.79
293.463
293.125
292.782
292.446
292.122
291.815
291.524
291.249
290.986
290.734
290.487
290.242
289.999
289.75
289.489
289.206
288.893
318.25
317.851
317.42
317.004
316.613
316.256
315.924
315.612
315.304
314.985
314.651
314.291
313.906
313.488
313.047
312.586
312.147
311.735
311.358
311.008
310.687
310.385
310.097
309.811
309.512
309.197
308.856
308.492
308.096
307.677
307.24
306.823
306.432
306.074
305.742
305.436
305.149
304.875
304.602
304.318
304.018
303.695
303.349
302.973
302.576
302.161
301.767
301.396
301.057
300.742
300.453
300.18
299.92
299.662
299.392
299.108
298.801
298.472
298.116
297.739
297.345
296.97
296.618
296.296
295.996
295.721
295.461
295.214
294.967
294.71
294.439
294.146
293.832
293.491
293.129
292.752
292.392
292.053
291.743
291.455
291.191
290.943
290.711
290.485
290.259
290.04
289.823
289.591
289.327
289.014
318.413
317.986
317.441
316.981
316.559
316.213
315.897
315.628
315.366
315.071
314.763
314.404
314.025
313.575
313.095
312.531
312.054
311.611
311.241
310.895
310.602
310.324
310.083
309.842
309.568
309.281
308.944
308.587
308.162
307.708
307.175
306.724
306.304
305.954
305.626
305.347
305.084
304.854
304.626
304.366
304.092
303.772
303.434
303.03
302.601
302.096
301.669
301.272
300.941
300.631
300.367
300.118
299.9
299.684
299.437
299.178
298.874
298.553
298.171
297.763
297.284
296.879
296.502
296.188
295.892
295.641
295.404
295.197
294.991
294.756
294.509
294.22
293.913
293.547
293.157
292.697
292.307
291.943
291.639
291.353
291.109
290.879
290.679
290.482
290.264
290.081
289.915
289.738
289.52
289.217
318.669
318.288
317.338
316.902
316.393
316.129
315.801
315.636
315.477
315.174
314.948
314.544
314.248
313.703
313.264
312.349
311.913
311.38
311.092
310.706
310.493
310.212
310.067
309.922
309.645
309.436
309.059
308.781
308.267
307.853
306.99
306.579
306.075
305.803
305.438
305.236
304.97
304.833
304.695
304.432
304.233
303.876
303.612
303.125
302.733
301.918
301.529
301.053
300.796
300.452
300.261
300.009
299.879
299.749
299.5
299.312
298.973
298.723
298.262
297.891
297.117
296.748
296.296
296.052
295.724
295.543
295.304
295.18
295.056
294.819
294.64
294.318
294.079
293.64
293.284
292.54
292.185
291.747
291.509
291.188
291.009
290.769
290.644
290.508
290.219
290.099
290.022
289.946
289.835
289.607
288.312
287.944
287.576
287.207
286.838
286.468
286.1
285.732
285.365
284.998
284.633
284.269
283.906
283.543
283.181
288.313
287.945
287.576
287.207
286.837
286.468
286.099
285.731
285.364
284.997
284.632
284.269
283.905
283.543
283.181
288.315
287.947
287.578
287.207
286.837
286.467
286.097
285.729
285.361
284.995
284.631
284.267
283.904
283.542
283.181
288.319
287.95
287.58
287.208
286.837
286.465
286.095
285.726
285.358
284.992
284.627
284.264
283.902
283.541
283.18
288.325
287.955
287.582
287.209
286.836
286.463
286.091
285.721
285.353
284.987
284.623
284.26
283.899
283.539
283.18
288.333
287.961
287.586
287.21
286.834
286.459
286.086
285.715
285.346
284.98
284.617
284.255
283.895
283.537
283.179
288.344
287.969
287.591
287.211
286.832
286.454
286.078
285.706
285.337
284.971
284.608
284.248
283.89
283.533
283.178
288.36
287.98
287.597
287.212
286.828
286.446
286.068
285.694
285.324
284.959
284.597
284.239
283.883
283.529
283.176
288.382
287.996
287.604
287.212
286.821
286.434
286.053
285.677
285.308
284.943
284.583
284.227
283.875
283.524
283.174
288.412
288.016
287.613
287.21
286.81
286.418
286.032
285.655
285.286
284.923
284.565
284.213
283.864
283.517
283.172
288.455
288.043
287.623
287.204
286.793
286.393
286.004
285.626
285.257
284.896
284.543
284.194
283.85
283.509
283.169
288.517
288.077
287.63
287.191
286.766
286.357
285.965
285.586
285.22
284.863
284.515
284.172
283.834
283.499
283.166
288.607
288.119
287.631
287.163
286.721
286.305
285.911
285.535
285.173
284.822
284.48
284.145
283.815
283.487
283.162
288.742
288.162
287.61
287.108
286.651
286.232
285.84
285.47
285.115
284.773
284.44
284.113
283.792
283.474
283.158
288.937
288.178
287.54
287.007
286.545
286.13
285.748
285.388
285.045
284.714
284.392
284.076
283.766
283.458
283.153
322.886
322.657
322.427
322.197
321.966
321.733
321.498
321.259
321.017
320.769
320.513
320.243
319.949
319.606
319.16
322.89
322.671
322.452
322.232
322.011
321.789
321.566
321.342
321.116
320.887
320.654
320.414
320.16
319.865
319.42
322.895
322.686
322.476
322.266
322.056
321.846
321.636
321.426
321.217
321.008
320.8
320.596
320.399
320.226
320.164
322.9
322.7
322.5
322.301
322.102
321.904
321.706
321.51
321.317
321.128
320.945
320.773
320.621
320.509
320.466
322.905
322.715
322.525
322.335
322.147
321.96
321.775
321.593
321.415
321.243
321.081
320.935
320.816
320.744
320.763
322.91
322.729
322.549
322.369
322.191
322.015
321.842
321.672
321.508
321.352
321.207
321.079
320.977
320.915
320.901
322.914
322.743
322.572
322.402
322.234
322.068
321.906
321.748
321.596
321.452
321.32
321.204
321.112
321.053
321.045
322.919
322.756
322.594
322.434
322.275
322.119
321.967
321.819
321.678
321.545
321.422
321.314
321.224
321.155
321.111
322.923
322.769
322.616
322.464
322.315
322.168
322.025
321.886
321.754
321.63
321.514
321.411
321.32
321.241
321.163
322.927
322.781
322.637
322.493
322.352
322.214
322.079
321.949
321.825
321.708
321.599
321.499
321.408
321.325
321.253
322.931
322.793
322.656
322.521
322.388
322.257
322.13
322.008
321.891
321.781
321.677
321.58
321.49
321.403
321.311
322.935
322.804
322.675
322.547
322.421
322.298
322.179
322.063
321.953
321.849
321.75
321.657
321.569
321.485
321.406
322.938
322.815
322.692
322.571
322.452
322.336
322.224
322.115
322.011
321.913
321.82
321.731
321.647
321.562
321.468
322.941
322.825
322.709
322.594
322.482
322.372
322.266
322.164
322.066
321.973
321.885
321.803
321.724
321.647
321.572
322.945
322.834
322.724
322.616
322.51
322.406
322.306
322.209
322.117
322.03
321.948
321.871
321.8
321.731
321.649
322.947
322.843
322.739
322.636
322.535
322.437
322.342
322.251
322.164
322.082
322.006
321.936
321.874
321.823
321.799
322.95
322.851
322.752
322.655
322.56
322.467
322.377
322.29
322.208
322.131
322.06
321.996
321.94
321.897
321.867
322.953
322.858
322.765
322.672
322.582
322.494
322.408
322.327
322.249
322.176
322.109
322.049
321.999
321.96
321.943
322.955
322.865
322.776
322.689
322.603
322.519
322.438
322.36
322.286
322.217
322.154
322.097
322.048
322.01
321.981
322.957
322.872
322.787
322.704
322.622
322.542
322.465
322.391
322.32
322.254
322.193
322.138
322.091
322.053
322.028
322.959
322.878
322.797
322.718
322.64
322.563
322.49
322.419
322.351
322.288
322.228
322.175
322.127
322.087
322.052
322.961
322.884
322.807
322.731
322.656
322.583
322.513
322.445
322.379
322.318
322.26
322.207
322.158
322.116
322.082
322.963
322.889
322.815
322.743
322.671
322.602
322.534
322.468
322.405
322.345
322.289
322.235
322.185
322.139
322.096
322.964
322.894
322.823
322.754
322.685
322.618
322.553
322.49
322.429
322.371
322.315
322.261
322.21
322.16
322.109
322.966
322.898
322.831
322.764
322.698
322.634
322.571
322.51
322.451
322.394
322.339
322.286
322.234
322.183
322.132
322.967
322.902
322.838
322.774
322.711
322.649
322.588
322.529
322.472
322.416
322.362
322.309
322.257
322.205
322.149
322.969
322.906
322.844
322.783
322.722
322.662
322.604
322.547
322.492
322.437
322.385
322.333
322.281
322.229
322.177
322.97
322.91
322.85
322.791
322.733
322.675
322.619
322.564
322.51
322.458
322.406
322.356
322.305
322.253
322.196
322.971
322.913
322.856
322.799
322.743
322.687
322.633
322.58
322.528
322.477
322.427
322.378
322.33
322.281
322.231
322.972
322.917
322.861
322.806
322.752
322.699
322.646
322.595
322.545
322.496
322.448
322.401
322.355
322.309
322.257
322.973
322.92
322.866
322.813
322.761
322.709
322.659
322.609
322.561
322.513
322.468
322.423
322.381
322.341
322.311
322.974
322.922
322.871
322.82
322.769
322.719
322.67
322.623
322.576
322.53
322.486
322.444
322.404
322.368
322.335
322.975
322.925
322.875
322.826
322.777
322.729
322.682
322.635
322.59
322.546
322.504
322.463
322.426
322.392
322.365
322.976
322.927
322.879
322.832
322.784
322.738
322.692
322.647
322.603
322.561
322.52
322.481
322.444
322.411
322.38
322.977
322.93
322.883
322.837
322.791
322.746
322.702
322.658
322.616
322.574
322.534
322.496
322.46
322.428
322.4
322.977
322.932
322.887
322.842
322.798
322.754
322.711
322.668
322.627
322.587
322.548
322.51
322.475
322.441
322.41
322.978
322.934
322.89
322.847
322.804
322.761
322.719
322.678
322.638
322.598
322.56
322.523
322.487
322.454
322.423
322.979
322.936
322.894
322.851
322.81
322.768
322.728
322.687
322.648
322.609
322.572
322.535
322.499
322.464
322.43
322.979
322.938
322.897
322.856
322.815
322.775
322.735
322.696
322.657
322.62
322.582
322.546
322.51
322.473
322.436
322.98
322.94
322.9
322.86
322.82
322.781
322.742
322.704
322.667
322.629
322.593
322.556
322.52
322.484
322.447
322.98
322.941
322.902
322.864
322.825
322.787
322.749
322.712
322.675
322.639
322.603
322.567
322.531
322.494
322.456
322.981
322.943
322.905
322.867
322.83
322.793
322.756
322.72
322.684
322.648
322.613
322.578
322.542
322.506
322.47
322.981
322.944
322.907
322.871
322.834
322.798
322.762
322.727
322.692
322.657
322.623
322.589
322.554
322.519
322.48
322.982
322.946
322.91
322.874
322.838
322.803
322.768
322.734
322.7
322.666
322.633
322.6
322.567
322.533
322.499
322.982
322.947
322.912
322.877
322.842
322.808
322.774
322.74
322.707
322.675
322.643
322.611
322.58
322.548
322.513
322.983
322.948
322.914
322.88
322.846
322.812
322.779
322.747
322.715
322.683
322.652
322.622
322.593
322.565
322.542
322.983
322.949
322.916
322.882
322.849
322.817
322.784
322.753
322.721
322.691
322.661
322.632
322.605
322.579
322.556
322.983
322.95
322.918
322.885
322.853
322.821
322.789
322.758
322.728
322.698
322.669
322.642
322.616
322.592
322.572
322.984
322.951
322.919
322.887
322.856
322.824
322.793
322.763
322.734
322.705
322.677
322.65
322.625
322.602
322.58
322.984
322.952
322.921
322.889
322.858
322.828
322.797
322.768
322.739
322.711
322.684
322.658
322.633
322.61
322.591
322.984
322.953
322.922
322.891
322.861
322.831
322.801
322.772
322.744
322.716
322.69
322.664
322.64
322.617
322.596
322.985
322.954
322.923
322.893
322.863
322.833
322.804
322.776
322.748
322.721
322.695
322.67
322.646
322.623
322.603
322.985
322.954
322.924
322.894
322.865
322.835
322.807
322.779
322.751
322.725
322.699
322.674
322.651
322.628
322.606
322.985
322.955
322.925
322.895
322.866
322.837
322.809
322.781
322.754
322.728
322.703
322.678
322.655
322.632
322.608
322.985
322.955
322.926
322.896
322.867
322.839
322.811
322.784
322.757
322.731
322.706
322.682
322.658
322.636
322.613
322.985
322.956
322.926
322.897
322.868
322.84
322.812
322.785
322.759
322.733
322.709
322.685
322.662
322.639
322.617
322.985
322.956
322.926
322.897
322.869
322.841
322.813
322.786
322.76
322.735
322.711
322.687
322.665
322.643
322.622
322.985
322.956
322.927
322.898
322.869
322.841
322.814
322.787
322.761
322.736
322.712
322.689
322.667
322.646
322.625
322.985
322.956
322.926
322.897
322.869
322.841
322.814
322.787
322.761
322.737
322.713
322.69
322.669
322.648
322.629
322.985
322.955
322.926
322.897
322.868
322.84
322.813
322.787
322.761
322.737
322.713
322.691
322.67
322.65
322.631
322.985
322.955
322.925
322.896
322.867
322.839
322.812
322.785
322.76
322.736
322.712
322.691
322.67
322.651
322.634
322.985
322.955
322.925
322.895
322.866
322.837
322.81
322.783
322.758
322.734
322.711
322.689
322.669
322.651
322.634
322.985
322.954
322.923
322.893
322.864
322.835
322.807
322.781
322.755
322.731
322.708
322.687
322.667
322.649
322.633
322.984
322.953
322.922
322.891
322.861
322.832
322.804
322.777
322.752
322.727
322.705
322.684
322.664
322.647
322.631
322.984
322.952
322.92
322.889
322.858
322.829
322.8
322.773
322.747
322.723
322.7
322.679
322.66
322.643
322.627
322.983
322.951
322.918
322.886
322.855
322.824
322.795
322.767
322.741
322.717
322.694
322.674
322.655
322.638
322.623
322.983
322.949
322.916
322.883
322.85
322.819
322.789
322.761
322.734
322.71
322.687
322.667
322.648
322.632
322.618
322.982
322.947
322.913
322.879
322.845
322.813
322.782
322.753
322.726
322.701
322.678
322.658
322.64
322.626
322.614
322.982
322.945
322.909
322.874
322.839
322.806
322.774
322.744
322.716
322.69
322.667
322.647
322.63
322.617
322.609
322.981
322.943
322.905
322.869
322.833
322.798
322.765
322.734
322.705
322.678
322.655
322.634
322.618
322.606
322.597
322.98
322.94
322.901
322.863
322.825
322.789
322.755
322.722
322.692
322.664
322.64
322.619
322.602
322.591
322.587
322.979
322.938
322.896
322.856
322.817
322.779
322.743
322.708
322.677
322.648
322.622
322.6
322.583
322.572
322.566
322.978
322.934
322.891
322.849
322.807
322.768
322.729
322.693
322.66
322.629
322.602
322.578
322.56
322.549
322.548
322.977
322.931
322.885
322.841
322.797
322.755
322.715
322.677
322.641
322.608
322.578
322.553
322.532
322.518
322.512
322.976
322.927
322.879
322.832
322.786
322.741
322.698
322.658
322.62
322.585
322.553
322.524
322.5
322.481
322.478
322.974
322.923
322.872
322.822
322.773
322.726
322.681
322.638
322.597
322.559
322.524
322.492
322.463
322.435
322.401
322.973
322.918
322.864
322.811
322.76
322.71
322.661
322.616
322.572
322.532
322.494
322.458
322.425
322.392
322.361
322.971
322.913
322.856
322.8
322.745
322.692
322.641
322.592
322.546
322.503
322.462
322.423
322.386
322.349
322.306
322.969
322.908
322.847
322.787
322.729
322.672
322.618
322.566
322.517
322.471
322.428
322.387
322.348
322.31
322.274
322.967
322.902
322.837
322.774
322.712
322.652
322.594
322.539
322.487
322.438
322.393
322.35
322.309
322.269
322.224
322.965
322.896
322.827
322.759
322.693
322.629
322.568
322.51
322.454
322.403
322.355
322.311
322.27
322.23
322.194
322.963
322.889
322.816
322.743
322.673
322.605
322.54
322.478
322.419
322.365
322.316
322.27
322.229
322.19
322.148
322.96
322.882
322.803
322.727
322.651
322.579
322.509
322.443
322.381
322.324
322.273
322.227
322.186
322.151
322.123
322.958
322.874
322.79
322.708
322.628
322.551
322.476
322.406
322.34
322.28
322.226
322.179
322.14
322.108
322.091
322.955
322.865
322.776
322.689
322.603
322.52
322.44
322.365
322.295
322.231
322.175
322.127
322.088
322.055
322.016
322.952
322.856
322.762
322.668
322.576
322.487
322.402
322.321
322.245
322.177
322.118
322.069
322.032
322.006
321.983
322.949
322.847
322.746
322.646
322.548
322.452
322.36
322.272
322.19
322.116
322.053
322.002
321.969
321.955
321.96
322.946
322.837
322.729
322.623
322.517
322.415
322.315
322.22
322.13
322.049
321.979
321.924
321.892
321.891
321.93
322.942
322.827
322.712
322.598
322.485
322.375
322.267
322.163
322.065
321.974
321.894
321.83
321.793
321.799
321.878
322.939
322.816
322.694
322.572
322.452
322.333
322.217
322.103
321.994
321.891
321.797
321.718
321.664
321.658
321.758
289.142
288.08
287.381
286.849
286.403
286.007
285.642
285.298
284.97
284.652
284.342
284.038
283.739
283.442
283.147
288.768
287.74
287.12
286.646
286.241
285.874
285.531
285.206
284.894
284.59
284.293
284.001
283.712
283.427
283.142
287.291
287.115
286.759
286.396
286.051
285.723
285.409
285.106
284.811
284.523
284.24
283.961
283.684
283.41
283.136
286.71
286.617
286.401
286.133
285.849
285.562
285.279
284.999
284.724
284.453
284.184
283.919
283.655
283.392
283.131
286.161
286.203
286.08
285.882
285.648
285.4
285.146
284.89
284.635
284.38
284.127
283.875
283.624
283.374
283.125
285.912
285.905
285.811
285.654
285.459
285.242
285.014
284.781
284.544
284.307
284.069
283.831
283.593
283.356
283.119
285.654
285.666
285.587
285.453
285.283
285.092
284.886
284.673
284.455
284.234
284.011
283.787
283.562
283.337
283.113
285.539
285.491
285.402
285.276
285.123
284.951
284.764
284.569
284.367
284.162
283.953
283.743
283.531
283.319
283.106
285.447
285.345
285.241
285.119
284.977
284.819
284.649
284.469
284.283
284.092
283.897
283.7
283.501
283.301
283.1
285.289
285.199
285.093
284.974
284.842
284.696
284.539
284.374
284.202
284.024
283.843
283.658
283.471
283.283
283.095
285.186
285.065
284.955
284.84
284.715
284.581
284.436
284.284
284.124
283.959
283.79
283.618
283.443
283.266
283.089
285.017
284.924
284.82
284.712
284.596
284.472
284.339
284.198
284.051
283.898
283.74
283.579
283.415
283.25
283.083
284.908
284.79
284.689
284.589
284.483
284.369
284.247
284.117
283.981
283.839
283.692
283.542
283.389
283.234
283.078
284.723
284.643
284.558
284.47
284.375
284.271
284.16
284.041
283.915
283.784
283.647
283.507
283.364
283.219
283.073
284.59
284.5
284.43
284.356
284.272
284.18
284.079
283.969
283.853
283.732
283.605
283.474
283.341
283.205
283.069
284.33
284.342
284.305
284.247
284.176
284.094
284.003
283.903
283.796
283.683
283.565
283.443
283.319
283.192
283.064
284.215
284.217
284.193
284.149
284.088
284.015
283.932
283.841
283.742
283.637
283.528
283.415
283.298
283.18
283.06
284.088
284.111
284.097
284.061
284.008
283.943
283.868
283.784
283.693
283.596
283.494
283.388
283.279
283.168
283.056
284.025
284.029
284.016
283.985
283.938
283.879
283.809
283.732
283.647
283.557
283.462
283.363
283.261
283.158
283.053
283.95
283.961
283.948
283.919
283.875
283.821
283.757
283.685
283.606
283.522
283.433
283.34
283.245
283.148
283.049
283.913
283.908
283.892
283.862
283.821
283.77
283.709
283.642
283.568
283.489
283.406
283.319
283.23
283.139
283.046
283.869
283.865
283.845
283.814
283.774
283.724
283.667
283.604
283.535
283.46
283.382
283.301
283.216
283.131
283.044
283.849
283.831
283.806
283.773
283.732
283.684
283.63
283.57
283.504
283.434
283.36
283.283
283.204
283.123
283.041
283.832
283.802
283.772
283.737
283.696
283.649
283.597
283.539
283.477
283.41
283.34
283.268
283.193
283.116
283.039
283.803
283.774
283.741
283.705
283.664
283.618
283.567
283.512
283.452
283.389
283.323
283.254
283.183
283.11
283.037
283.784
283.748
283.713
283.676
283.635
283.59
283.541
283.487
283.43
283.37
283.307
283.241
283.174
283.105
283.035
283.754
283.722
283.687
283.649
283.609
283.565
283.517
283.465
283.411
283.353
283.292
283.23
283.165
283.1
283.033
283.735
283.698
283.662
283.625
283.585
283.542
283.496
283.446
283.393
283.338
283.28
283.22
283.158
283.095
283.032
283.705
283.673
283.639
283.603
283.564
283.522
283.477
283.429
283.378
283.324
283.268
283.211
283.152
283.091
283.031
283.684
283.65
283.617
283.582
283.545
283.504
283.46
283.413
283.364
283.312
283.258
283.203
283.146
283.088
283.029
283.645
283.625
283.597
283.564
283.527
283.488
283.445
283.4
283.352
283.302
283.249
283.196
283.141
283.085
283.028
283.629
283.607
283.58
283.548
283.512
283.474
283.432
283.388
283.341
283.292
283.242
283.19
283.136
283.082
283.027
283.613
283.592
283.566
283.534
283.5
283.462
283.421
283.378
283.332
283.284
283.235
283.184
283.133
283.08
283.027
283.605
283.582
283.555
283.524
283.489
283.452
283.412
283.369
283.324
283.278
283.23
283.18
283.129
283.078
283.026
283.598
283.574
283.546
283.515
283.481
283.444
283.404
283.362
283.318
283.272
283.225
283.176
283.127
283.076
283.025
283.595
283.569
283.54
283.509
283.474
283.437
283.398
283.356
283.313
283.268
283.221
283.173
283.124
283.075
283.025
283.593
283.566