/*--------------------------------*- C++ -*----------------------------------*\
| =========                 |                                                 |
| \\      /  F ield         | OpenFOAM: The Open Source CFD Toolbox           |
|  \\    /   O peration     | Version:  5.x                                   |
|   \\  /    A nd           | Web:      www.OpenFOAM.org                      |
|    \\/     M anipulation  |                                                 |
\*---------------------------------------------------------------------------*/
FoamFile
{
    version     2.0;
    format      ascii;
    class       volScalarField;
    location    "16.5999";
    object      gradTy;
}
// * * * * * * * * * * * * * * * * * * * * * * * * * * * * * * * * * * * * * //

dimensions      [0 -1 0 1 0 0 0];

internalField   nonuniform List<scalar> 
6300
(
32284.1
32252.1
32220.1
32187.9
32155.4
32122.6
32089.5
32055.9
32021.9
31987.3
31952.2
31916.5
31880.1
31843.2
31805.7
0.0533374
0.159514
0.264164
0.366158
0.464208
0.556823
0.642291
0.718701
0.784001
0.836126
0.873188
0.893719
0.896964
0.883156
0.853705
0.0894452
0.267545
0.443215
0.614635
0.779706
0.935962
1.08053
1.21016
1.32128
1.41024
1.47363
1.50868
1.51383
1.48925
1.43728
0.126344
0.378009
0.626517
0.869467
1.10402
1.32679
1.53373
1.72013
1.88072
2.00996
2.10244
2.15358
2.16046
2.12277
2.04366
0.164265
0.49163
0.81538
1.13269
1.44013
1.73347
2.00748
2.25591
2.47154
2.64646
2.77262
2.84277
2.85169
2.79774
2.68448
0.203349
0.608867
1.01068
1.40578
1.79036
2.15947
2.50682
2.82451
3.1031
3.33174
3.49886
3.59325
3.60583
3.53208
3.37483
0.243614
0.729808
1.2127
1.68941
2.15605
2.60726
3.03582
3.43226
3.78464
4.07859
4.29788
4.42558
4.44638
4.34999
4.13591
0.284914
0.854054
1.4209
1.98312
2.53717
3.07771
3.59696
4.08409
4.52463
4.90017
5.18854
5.36489
5.40421
5.28569
4.99992
0.326903
0.9806
1.63372
2.285
2.93183
3.56947
4.19025
4.78254
5.32968
5.80899
6.1913
6.44135
6.51998
6.38877
6.01874
0.369003
1.10773
1.84837
2.59135
3.33568
4.07811
4.81206
5.52619
6.20261
6.8149
7.32641
7.68935
7.84578
7.7309
7.27923
0.410381
1.23294
2.0607
2.89637
3.74144
4.59524
5.45373
6.30761
7.13971
7.92168
8.61024
9.14412
9.44333
9.41051
8.92709
0.449962
1.35297
2.2651
3.19201
4.13848
5.10772
6.10006
7.11084
8.12701
9.12199
10.0489
10.834
11.374
11.543
11.1882
0.486461
1.46387
2.45475
3.46809
4.51277
5.5971
6.72796
7.90873
9.13557
10.3905
11.6299
12.7701
13.6786
14.2061
14.3013
0.518475
1.5613
2.62193
3.71285
4.8474
6.03999
7.30596
8.66059
10.1161
11.6745
13.3106
14.9397
16.3706
17.3203
17.9368
0.544614
1.64092
2.75883
3.91398
5.124
6.40952
7.79532
9.31153
10.9939
12.8809
14.9987
17.3102
19.556
20.8112
18.552
31770.8
31738.7
31706.2
31673.4
31640.3
31606.9
31573.2
31539.3
31505.2
31470.8
31436.3
31401.6
31366.8
31331.8
31296.8
31261.7
31226.6
31191.5
31156.3
31121.2
31086.1
31051.1
31016.1
30981.1
30946.2
30911.4
30876.6
30841.8
30807.1
30772.5
30737.9
30703.5
30669.1
30634.9
30600.7
30566.7
30532.8
30498.9
30465.2
30431.6
30398
30364.6
30331.3
30298
30264.8
30231.8
30198.8
30166
30133.3
30100.7
30068.2
30035.8
30003.6
29971.4
29939.3
29907.4
29875.5
29843.7
29812
29780.4
29748.9
29717.4
29686.1
29654.9
29623.8
29592.7
29561.8
29531
29500.2
29469.6
29439
29408.4
29377.9
29347.5
29317.2
29286.9
29256.6
29226.5
29196.4
29166.3
29136.3
29106.2
29076.2
29046.2
29016.2
28986.1
28955.9
28925.7
28895.3
28864.9
0.814757
0.772557
0.725837
0.67681
0.627319
0.578602
0.531147
0.484727
0.438564
0.391629
0.342983
0.292103
0.23912
0.184918
0.131069
0.0796096
0.0327131
-0.00769588
-0.0402869
-0.0645725
-0.0810112
-0.0909491
-0.0964154
-0.0998075
-0.103517
-0.109558
-0.119257
-0.133055
-0.150457
-0.170138
-0.190199
-0.208522
-0.223158
-0.232684
-0.236455
-0.234711
-0.228535
-0.219661
-0.210182
-0.202196
-0.19746
-0.197095
-0.201399
-0.209799
-0.220957
-0.233002
-0.243871
-0.251674
-0.255027
-0.253289
-0.246662
-0.236147
-0.223366
-0.210278
-0.198851
-0.190729
-0.18695
-0.187778
-0.19265
-0.200275
-0.208862
-0.216434
-0.221178
-0.221761
-0.21755
-0.20871
-0.196158
-0.181387
-0.166198
-0.152375
-0.141366
-0.134007
-0.130346
-0.129596
-0.13022
-0.130152
-0.12711
-0.11895
-0.104013
-0.0813984
-0.0511316
-0.0142243
0.0273873
0.0710041
0.113411
0.151193
0.181091
0.200367
0.207149
0.200667
1.36876
1.29481
1.21343
1.12877
1.04432
0.962337
0.883601
0.807454
0.73214
0.655395
0.575138
0.490122
0.400408
0.307575
0.21459
0.125379
0.0441635
-0.0252942
-0.0803834
-0.120129
-0.145386
-0.158724
-0.164024
-0.165877
-0.168858
-0.176817
-0.19228
-0.216063
-0.247166
-0.28298
-0.319778
-0.353407
-0.380059
-0.396961
-0.402863
-0.398239
-0.385191
-0.367078
-0.347945
-0.331846
-0.322173
-0.32109
-0.329171
-0.345299
-0.36686
-0.390211
-0.411327
-0.42653
-0.433137
-0.429919
-0.417283
-0.397185
-0.37277
-0.347833
-0.32618
-0.310989
-0.304276
-0.306549
-0.316717
-0.33227
-0.349719
-0.365217
-0.375242
-0.377217
-0.369938
-0.353751
-0.33046
-0.302984
-0.274835
-0.249502
-0.229828
-0.217487
-0.21264
-0.213832
-0.218157
-0.221671
-0.220002
-0.209037
-0.185574
-0.147836
-0.095777
-0.0311787
0.0424745
0.120289
0.196407
0.264566
0.318747
0.353858
0.366382
0.354863
1.93961
1.8278
1.70576
1.58049
1.45781
1.34142
1.23235
1.129
1.02779
0.924232
0.814158
0.694911
0.566195
0.430455
0.292678
0.159634
0.0386837
-0.0635826
-0.142575
-0.196548
-0.226924
-0.23807
-0.236598
-0.23032
-0.227028
-0.233268
-0.253321
-0.288527
-0.337088
-0.394404
-0.453918
-0.508338
-0.550999
-0.577077
-0.584426
-0.573895
-0.54914
-0.515963
-0.481337
-0.45224
-0.434514
-0.431889
-0.445355
-0.472972
-0.510187
-0.550637
-0.587296
-0.613762
-0.625396
-0.620107
-0.598651
-0.56444
-0.522924
-0.480657
-0.444201
-0.41904
-0.40866
-0.413951
-0.433029
-0.461533
-0.493385
-0.521878
-0.540898
-0.546
-0.535152
-0.509022
-0.470789
-0.425548
-0.379418
-0.338481
-0.30773
-0.290175
-0.286237
-0.293558
-0.30726
-0.320653
-0.326281
-0.317122
-0.287693
-0.234893
-0.158479
-0.0611718
0.0515692
0.172018
0.290864
0.398068
0.483864
0.539876
0.560235
0.542471
2.53533
2.37556
2.2028
2.02851
1.86227
1.71001
1.5729
1.44749
1.32685
1.20246
1.06639
0.913336
0.742095
0.556264
0.363948
0.176471
0.00629374
-0.135391
-0.240797
-0.306949
-0.336157
-0.335589
-0.316092
-0.290467
-0.271473
-0.269831
-0.292542
-0.341759
-0.414403
-0.502664
-0.595394
-0.680201
-0.745816
-0.784165
-0.791734
-0.770035
-0.725214
-0.666937
-0.606766
-0.556262
-0.525109
-0.519517
-0.541161
-0.586822
-0.648857
-0.716522
-0.777944
-0.822351
-0.842024
-0.833576
-0.798385
-0.742214
-0.674161
-0.605113
-0.545959
-0.505806
-0.490478
-0.501501
-0.535767
-0.585976
-0.641886
-0.692182
-0.726595
-0.737748
-0.722373
-0.681722
-0.621208
-0.549394
-0.476522
-0.41279
-0.366632
-0.343252
-0.34362
-0.364095
-0.396809
-0.430815
-0.453855
-0.454396
-0.423464
-0.355953
-0.25127
-0.113389
0.0495654
0.226053
0.402087
0.562399
0.691868
0.777235
0.808984
0.782986
3.16591
2.94208
2.70212
2.46497
2.24668
2.05682
1.89663
1.75913
1.63133
1.49752
1.34309
1.15795
0.939005
0.691409
0.428245
0.168388
-0.0671308
-0.259445
-0.39555
-0.470555
-0.488271
-0.460371
-0.40441
-0.341068
-0.290934
-0.271326
-0.293596
-0.361256
-0.469231
-0.60449
-0.748279
-0.879702
-0.979897
-1.03558
-1.04119
-0.999472
-0.920666
-0.820639
-0.718273
-0.63242
-0.578895
-0.567925
-0.602385
-0.677093
-0.779422
-0.891398
-0.993093
-1.06656
-1.09915
-1.08556
-1.02833
-0.9371
-0.826831
-0.715323
-0.620355
-0.556825
-0.534349
-0.555582
-0.615547
-0.70221
-0.798469
-0.885359
-0.945788
-0.967698
-0.94599
-0.883025
-0.787898
-0.674763
-0.560465
-0.461792
-0.392732
-0.362134
-0.372048
-0.417008
-0.484498
-0.556766
-0.613826
-0.636989
-0.61191
-0.53054
-0.391865
-0.201711
0.0280735
0.280743
0.535948
0.771144
0.963379
1.09181
1.14089
1.10354
3.84541
3.5319
3.19749
2.87437
2.59018
2.36099
2.18771
2.05685
1.94448
1.82227
1.66404
1.45126
1.17717
0.848969
0.487777
0.125254
-0.202776
-0.464448
-0.638294
-0.71666
-0.706078
-0.625562
-0.503361
-0.372651
-0.266439
-0.212518
-0.229288
-0.322703
-0.484768
-0.694034
-0.918972
-1.12417
-1.27808
-1.35909
-1.3588
-1.28232
-1.14667
-0.97771
-0.806001
-0.662028
-0.571402
-0.550914
-0.60565
-0.727593
-0.896093
-1.08108
-1.2489
-1.36962
-1.42277
-1.40037
-1.30723
-1.15941
-0.981282
-0.801717
-0.649478
-0.548726
-0.515281
-0.553888
-0.656882
-0.804627
-0.968542
-1.11664
-1.22045
-1.26046
-1.22902
-1.13064
-0.980519
-0.801805
-0.621907
-0.468151
-0.363448
-0.32268
-0.350007
-0.437478
-0.565306
-0.704618
-0.82261
-0.88905
-0.881414
-0.787645
-0.606592
-0.347099
-0.0263731
0.331784
0.69862
1.04175
1.32677
1.52064
1.59725
1.54379
4.59617
4.15189
3.67671
3.22779
2.85457
2.58469
2.41776
2.32801
2.27182
2.19892
2.06357
1.83288
1.49323
1.05404
0.54922
0.0324456
-0.433982
-0.795927
-1.01853
-1.09086
-1.0246
-0.850783
-0.614568
-0.368958
-0.166648
-0.0519164
-0.0546116
-0.185293
-0.432338
-0.76101
-1.11809
-1.44251
-1.68123
-1.79968
-1.78611
-1.65036
-1.42067
-1.13874
-0.853788
-0.614817
-0.462914
-0.425579
-0.512141
-0.71105
-0.989028
-1.29548
-1.57252
-1.76998
-1.85519
-1.81706
-1.66488
-1.42534
-1.13781
-0.848762
-0.604462
-0.443707
-0.392455
-0.459477
-0.633777
-0.883761
-1.16139
-1.4117
-1.58697
-1.6561
-1.60845
-1.45276
-1.21432
-0.930552
-0.645704
-0.403873
-0.242098
-0.185166
-0.241361
-0.399832
-0.629577
-0.883169
-1.10563
-1.24778
-1.27495
-1.17044
-0.934269
-0.580663
-0.13472
0.370326
0.895423
1.39606
1.82143
2.1183
2.24094
2.16439
5.45824
4.81643
4.11819
3.47231
2.97031
2.66021
2.53673
2.55089
2.62326
2.66552
2.6004
2.37142
1.95263
1.35363
0.627872
-0.132867
-0.815649
-1.32806
-1.61518
-1.66462
-1.49799
-1.16587
-0.739304
-0.302917
0.0592541
0.277779
0.304364
0.119678
-0.262368
-0.787082
-1.36423
-1.88426
-2.25756
-2.43037
-2.38938
-2.15368
-1.76989
-1.3041
-0.835369
-0.442229
-0.189447
-0.121832
-0.256852
-0.580648
-1.04097
-1.55221
-2.01076
-2.33199
-2.46522
-2.39797
-2.14835
-1.76039
-1.29652
-0.831371
-0.439139
-0.181004
-0.0993154
-0.210587
-0.501686
-0.923085
-1.39358
-1.81481
-2.10635
-2.2199
-2.14346
-1.89403
-1.51338
-1.06086
-0.607555
-0.224316
0.0302263
0.115253
0.0145613
-0.25955
-0.659508
-1.10655
-1.5043
-1.77208
-1.85811
-1.74282
-1.43105
-0.947193
-0.328174
0.379997
1.12745
1.85873
2.50113
2.96685
3.17146
3.0624
6.51096
5.56213
4.48413
3.50973
2.80997
2.46714
2.45752
2.69
3.0181
3.28676
3.37319
3.18332
2.67153
1.83577
0.756888
-0.410439
-1.44266
-2.1846
-2.55412
-2.54952
-2.20969
-1.61696
-0.878189
-0.130005
0.492005
0.883865
0.967567
0.708849
0.113041
-0.737654
-1.69261
-2.5373
-3.12261
-3.36893
-3.27303
-2.87025
-2.23717
-1.47373
-0.708094
-0.067526
0.350658
0.473709
0.270272
-0.253651
-1.01958
-1.88482
-2.64674
-3.16472
-3.36392
-3.24152
-2.83101
-2.20474
-1.45706
-0.708986
-0.0807181
0.335781
0.471688
0.297252
-0.181962
-0.891709
-1.69671
-2.40469
-2.88201
-3.0573
-2.92756
-2.52426
-1.91596
-1.19228
-0.468514
0.140567
0.546653
0.683105
0.52021
0.0619502
-0.621636
-1.40092
-2.09011
-2.55809
-2.73117
-2.59814
-2.17565
-1.50835
-0.650009
0.333095
1.38278
2.44939
3.43524
4.19141
4.55365
4.40244
7.92523
6.49368
4.69983
3.15088
2.13611
1.79466
2.02983
2.69146
3.49856
4.17045
4.54387
4.45879
3.85697
2.668
1.01326
-0.88257
-2.48767
-3.57743
-4.03177
-3.91718
-3.28558
-2.27833
-1.03064
0.224597
1.25617
1.93369
2.12386
1.78343
0.855487
-0.538095
-2.17975
-3.56387
-4.47579
-4.80029
-4.59861
-3.91845
-2.89218
-1.6465
-0.400727
0.627409
1.31575
1.53939
1.2589
0.421832
-0.855195
-2.36619
-3.634
-4.4565
-4.72573
-4.49994
-3.82436
-2.82393
-1.61816
-0.414083
0.582649
1.25662
1.48958
1.24397
0.469729
-0.723166
-2.13955
-3.32672
-4.09258
-4.33397
-4.10557
-3.4497
-2.48465
-1.32385
-0.164319
0.797763
1.45135
1.68202
1.45118
0.707922
-0.445964
-1.82501
-2.99448
-3.76874
-4.04503
-3.87027
-3.2728
-2.34458
-1.1515
0.190312
1.61375
3.15636
4.70008
5.98322
6.67522
6.48595
10.0953
7.95005
4.5606
2.0175
0.491867
0.292493
0.988526
2.48363
4.17381
5.48399
6.3748
6.47839
5.88791
4.17094
1.61683
-1.77336
-4.27475
-5.88529
-6.32868
-6.02932
-4.9024
-3.28594
-1.19395
0.901267
2.53017
3.68532
4.04419
3.70402
2.26846
0.0186919
-3.03776
-5.27042
-6.67485
-6.98935
-6.61319
-5.46506
-3.86313
-1.81941
0.220036
1.81164
2.95002
3.33102
3.04898
1.73086
-0.353888
-3.19778
-5.2625
-6.54499
-6.80036
-6.40605
-5.28551
-3.73883
-1.77681
0.179391
1.7108
2.81249
3.19664
2.95192
1.72428
-0.232798
-2.91246
-4.85546
-6.05836
-6.28713
-5.89916
-4.82035
-3.33524
-1.45358
0.424202
1.89919
2.96506
3.3455
3.12004
1.9452
0.0539355
-2.55087
-4.46797
-5.69646
-6.00843
-5.75108
-4.84623
-3.56222
-1.86718
-0.0700049
1.67311
3.86172
6.34017
8.62628
10.0658
9.92834
13.953
11.2301
3.2149
-0.596964
-3.07105
-2.50136
-1.20389
1.99483
5.39628
7.40143
9.33938
9.49745
9.54101
6.87939
3.42434
-3.94404
-7.34462
-9.87386
-9.69517
-9.33313
-7.22415
-4.9783
-1.36193
2.24943
4.48638
6.58359
6.97116
7.20197
4.85388
1.73711
-5.08205
-8.16961
-10.4434
-10.173
-9.7394
-7.66512
-5.47029
-1.98615
1.48568
3.64852
5.67493
6.0774
6.33104
4.14383
1.24058
-5.15135
-8.01742
-10.1125
-9.81053
-9.35792
-7.36031
-5.25182
-1.92707
1.38456
3.45772
5.40165
5.80925
6.07527
4.02922
1.29809
-4.74614
-7.44996
-9.4269
-9.12838
-8.68755
-6.77607
-4.75687
-1.57774
1.59275
3.58974
5.46581
5.88148
6.15601
4.21412
1.58134
-4.26705
-6.93305
-8.94398
-8.79163
-8.56428
-6.96564
-5.37173
-2.72995
-0.252462
1.09094
4.14971
8.25723
12.4884
15.7273
16.1986
21.3928
22.3256
-4.00751
-5.1081
-11.0191
-6.34454
-6.13451
1.21398
8.6294
9.41565
14.867
12.6814
17.0896
10.7304
10.8671
-11.8283
-11.6692
-17.7619
-13.3257
-15.1526
-9.74297
-8.64424
-1.52268
5.57673
6.64382
11.9438
10.1238
14.4135
8.54619
8.78697
-12.4998
-12.2406
-17.8756
-13.5916
-15.2282
-10.0388
-8.93403
-2.13516
4.63626
5.68187
10.7383
9.0381
13.1279
7.5879
7.85873
-12.1822
-11.8825
-17.1319
-13.0376
-14.5346
-9.59476
-8.51623
-2.05843
4.37314
5.39073
10.2031
8.62572
12.528
7.32067
7.59981
-11.39
-11.0912
-16.0721
-12.1745
-13.5937
-8.88692
-7.84877
-1.68948
4.45117
5.4544
10.0695
8.62073
12.3836
7.47791
7.73924
-10.5659
-10.3414
-15.3066
-11.6828
-13.3522
-9.07825
-8.69018
-3.35614
1.19816
-1.96135
2.92748
9.99627
17.7793
25.3743
29.6249
32.2702
72.7067
-47.5438
-2.67229
-34.2031
-3.75707
-21.3442
0.336774
21.4085
4.71212
31.3918
6.37047
40.1432
5.2273
51.188
-52.6231
-6.9913
-40.8113
-7.93732
-31.3925
-6.05414
-20.983
-1.65151
17.5906
2.70598
27.5565
4.47869
36.2513
3.44283
46.8366
-50.9439
-7.82399
-39.5912
-8.48441
-30.5464
-6.53063
-20.5973
-2.24463
16.032
1.93962
25.5313
3.66118
33.7918
2.66435
43.7258
-48.5033
-7.75717
-37.606
-8.2132
-28.9803
-6.26892
-19.5268
-2.152
15.1579
1.85918
24.206
3.55141
32.0986
2.71161
41.6488
-45.8094
-7.12949
-35.5024
-7.56456
-27.3212
-5.71494
-18.3151
-1.77436
14.7074
2.11797
23.4052
3.85518
31.0939
3.30121
40.6328
-43.5472
-6.27663
-34.0376
-6.95182
-26.6983
-5.59528
-19.1308
-2.8595
13.7567
-16.6033
-1.43387
10.7068
23.3409
39.8372
66.3772
28831.3
28794.5
28757.6
28720.7
28683.8
28646.8
28610
28573.1
28536.4
28499.8
28463.3
28426.9
28390.6
28354.3
28318.1
0.179442
0.140387
0.09013
0.0344179
-0.0209021
-0.0706771
-0.11096
-0.139219
-0.154295
-0.156215
-0.145925
-0.125032
-0.0955813
-0.0598806
-0.0203842
0.31667
0.246387
0.156273
0.0569503
-0.0409566
-0.128292
-0.198245
-0.246635
-0.271744
-0.2739
-0.254971
-0.217886
-0.166241
-0.104015
-0.035386
0.482515
0.372218
0.231625
0.0780669
-0.0715827
-0.203288
-0.307094
-0.377332
-0.412145
-0.412669
-0.382174
-0.325299
-0.24748
-0.154555
-0.0525304
0.693252
0.528344
0.319943
0.0952748
-0.120153
-0.306185
-0.449509
-0.543455
-0.586834
-0.582459
-0.535756
-0.453656
-0.343826
-0.214193
-0.0727113
0.971006
0.727963
0.424529
0.103242
-0.198118
-0.451789
-0.641304
-0.760146
-0.809277
-0.794576
-0.724734
-0.609744
-0.459975
-0.28568
-0.0968332
1.34723
0.987974
0.546968
0.091282
-0.323772
-0.661549
-0.90377
-1.04655
-1.09555
-1.06184
-0.958858
-0.800611
-0.600649
-0.371718
-0.125775
1.86826
1.32974
0.684088
0.0386901
-0.526705
-0.966863
-1.26568
-1.42672
-1.46454
-1.39836
-1.24825
-1.03319
-0.770292
-0.474769
-0.160322
2.60477
1.77864
0.820954
-0.0939045
-0.854873
-1.41352
-1.76536
-1.93013
-1.93754
-1.8188
-1.6026
-1.31362
-0.972556
-0.596745
-0.201068
3.66819
2.35908
0.914994
-0.380388
-1.38536
-2.06699
-2.45209
-2.5909
-2.53667
-2.33671
-2.02972
-1.64613
-1.20957
-0.738586
-0.248272
5.23972
3.07451
0.860328
-0.95728
-2.2392
-3.01698
-3.38513
-3.44471
-3.28154
-2.96166
-2.53344
-2.0316
-1.481
-0.89976
-0.301704
7.61693
3.8389
0.409091
-2.06986
-3.59717
-4.3766
-4.62674
-4.52126
-4.18313
-3.69493
-3.11078
-2.46585
-1.78308
-1.07775
-0.360488
11.2506
4.25507
-0.993002
-4.13409
-5.70302
-6.26549
-6.22398
-5.83047
-5.23479
-4.52415
-3.74889
-2.93792
-2.10773
-1.26765
-0.422991
16.4821
2.92374
-4.50208
-7.77046
-8.81533
-8.75838
-8.1732
-7.34185
-6.40141
-5.418
-4.42272
-3.42921
-2.44227
-1.46214
-0.486813
20.9343
-4.54011
-12.1686
-13.6304
-13.0295
-11.7795
-10.3686
-8.9623
-7.61101
-6.32371
-5.09477
-3.91395
-2.76998
-1.65183
-0.548932
0.562667
1.69589
2.85326
4.05264
5.31474
6.66497
8.13593
9.77121
11.6311
13.8
16.3943
19.55
23.2964
26.8092
24.277
0.573072
1.72746
2.90714
4.13096
5.42114
6.80551
8.32095
10.0192
11.9773
14.3174
17.249
21.1721
26.971
37.0517
59.7604
0.577754
1.74147
2.93035
4.16319
5.46213
6.85501
8.379
10.0868
12.0583
14.4235
17.4136
21.4845
27.6565
38.5668
62.2158
0.57674
1.73799
2.92304
4.1495
5.43786
6.81346
8.30938
9.9713
11.8659
14.096
16.8271
20.331
25.0109
31.0913
35.8757
0.570328
1.71798
2.88698
4.09282
5.35301
6.68834
8.12444
9.69416
11.4406
13.4207
15.7052
18.3624
21.3764
24.369
26.0386
0.559057
1.68314
2.82534
3.99837
5.21597
6.49321
7.84669
9.29423
10.8531
12.534
14.3254
16.151
17.769
18.5445
16.9038
0.54364
1.63573
2.74227
3.87297
5.03751
6.24511
7.50358
8.81696
10.1806
11.5705
12.9216
14.0846
14.7532
14.4002
12.6078
0.524883
1.57827
2.64241
3.72407
4.82912
5.96168
7.12232
8.30477
9.48979
10.6337
11.648
12.3612
12.4484
11.2559
7.07815
0.503611
1.51334
2.5304
3.55891
4.60162
5.65873
6.72588
7.79078
8.82748
9.78707
10.5832
11.0721
11.0326
10.1846
8.47807
0.480597
1.44333
2.41042
3.38388
4.36411
5.34879
6.33098
7.29633
8.21868
9.05386
9.73178
10.1498
10.1782
9.7094
8.81871
0.456515
1.37029
2.28602
3.20413
4.12352
5.04057
5.94777
6.83172
7.6704
8.42982
9.06077
9.49809
9.66913
9.52713
9.13974
0.43192
1.29588
2.15997
3.0235
3.88454
4.73917
5.58069
6.39852
7.17712
7.89496
8.52419
9.03119
9.37738
9.51522
9.36216
0.407243
1.22138
2.03431
2.84462
3.65
4.44688
5.23005
5.99256
6.72601
7.42162
8.07247
8.67594
9.23026
9.70529
9.95766
0.382807
1.14773
1.91046
2.66915
3.42138
4.1641
4.89375
5.60679
6.30117
6.97933
7.65363
8.35479
9.13819
10.0499
10.8227
0.358851
1.0756
1.78943
2.49816
3.19935
3.89041
4.56898
5.23396
5.8876
6.53972
7.21613
7.97651
8.95698
10.4911
13.52
0.335555
1.00551
1.67195
2.33242
2.98437
3.62539
4.25365
4.869
5.47508
6.08323
6.72032
7.44537
8.39127
9.8942
12.9921
0.313064
0.937856
1.55862
2.17259
2.777
3.36924
3.94728
4.5105
5.06112
5.60664
6.16342
6.76087
7.43873
8.18971
8.55341
0.291501
0.873007
1.45
2.0194
2.57808
3.12295
3.65121
4.16074
4.65072
5.12224
5.5783
6.02052
6.43543
6.75415
6.8008
0.270977
0.811294
1.34666
1.87367
2.38876
2.88821
3.36816
3.82458
4.25314
4.6486
5.00278
5.29914
5.49893
5.50753
5.07992
0.251592
0.753021
1.24913
1.73621
2.2103
2.66702
3.10145
3.50776
3.87855
4.20362
4.46743
4.64482
4.69522
4.56385
4.24282
0.233427
0.698442
1.15788
1.60779
2.0439
2.46132
2.85429
3.21561
3.53573
3.80118
3.99211
4.07871
4.01774
3.75189
3.20092
0.216539
0.64774
1.07323
1.48897
1.89047
2.2726
2.62911
2.95209
3.23088
3.45051
3.58923
3.6151
3.48254
3.13792
2.60046
0.200956
0.601002
0.995371
1.38003
1.75051
2.10166
2.42723
2.71926
2.96711
3.15602
3.26474
3.26151
3.0946
2.65788
1.61682
0.186671
0.558206
0.924255
1.28093
1.62398
1.9485
2.24865
2.51711
2.74429
2.91723
3.018
3.02159
2.89404
2.59754
2.15581
0.17364
0.51922
0.859648
1.19131
1.51031
1.81226
2.09209
2.34362
2.55912
2.72856
2.83876
2.87274
2.81081
2.63804
2.36423
0.16179
0.483813
0.801128
1.11049
1.40847
1.6914
1.95517
2.19516
2.40596
2.58104
2.71245
2.7905
2.80456
2.74872
2.6482
0.151023
0.451675
0.748132
1.03757
1.3171
1.58383
1.83477
2.06699
2.27759
2.46385
2.6232
2.7527
2.84684
2.89044
2.83594
0.141225
0.42245
0.700014
0.971516
1.23464
1.48721
1.72738
1.95382
2.16612
2.36535
2.55468
2.73946
2.92422
3.10029
3.22014
0.132276
0.395768
0.656107
0.911288
1.15949
1.39921
1.62953
1.85047
2.06373
2.27372
2.48933
2.72622
3.00765
3.34918
3.63808
0.124064
0.371276
0.615781
0.855908
1.09023
1.31775
1.53818
1.75247
1.96361
2.17819
2.4092
2.68205
3.04935
3.63461
4.78767
0.116487
0.348664
0.578494
0.804559
1.0257
1.24121
1.4511
1.65664
1.86111
2.07125
2.30001
2.57229
2.9397
3.52573
4.69627
0.109463
0.327684
0.543822
0.756629
0.965083
1.16856
1.36705
1.56157
1.75467
1.95139
2.16058
2.39648
2.67821
3.01096
3.24906
0.10293
0.308148
0.511465
0.71172
0.907924
1.09937
1.28577
1.46747
1.64571
1.82288
2.00262
2.18884
2.3813
2.56192
2.67623
0.0968442
0.289932
0.481235
0.669626
0.854071
1.03368
1.20775
1.37578
1.53749
1.69258
1.84015
1.97688
2.0926
2.15893
2.09622
0.0911751
0.272955
0.453027
0.630271
0.803577
0.971841
1.13391
1.28848
1.43387
1.56752
1.68519
1.7795
1.83821
1.84555
1.80583
0.0859024
0.257163
0.426785
0.59365
0.756585
0.914303
1.06528
1.20757
1.33839
1.45355
1.54647
1.60684
1.61949
1.56485
1.41772
0.0810077
0.24251
0.402457
0.559758
0.713217
0.861445
1.0027
1.13461
1.25378
1.35503
1.43035
1.46733
1.44749
1.34839
1.18033
0.0764695
0.228936
0.379966
0.528533
0.673483
0.813431
0.946593
1.07051
1.18162
1.27451
1.34086
1.36729
1.33054
1.1798
0.749404
0.0722595
0.21636
0.359187
0.499821
0.637223
0.77013
0.896909
1.01531
1.1221
1.21244
1.27908
1.31111
1.29276
1.20543
1.06043
0.06834
0.204669
0.339929
0.473355
0.604083
0.731084
0.853042
0.968182
1.07399
1.16682
1.24133
1.28993
1.30288
1.2711
1.19326
0.0646644
0.19372
0.321946
0.448761
0.573533
0.69554
0.81391
0.927531
1.03491
1.13393
1.22158
1.2935
1.34405
1.36877
1.37899
0.061179
0.183346
0.304942
0.425587
0.544904
0.662522
0.778076
0.891217
1.00162
1.10895
1.21274
1.31191
1.40317
1.47651
1.5011
0.0578259
0.17337
0.288599
0.403335
0.517456
0.630937
0.743917
0.856808
0.970464
1.08642
1.20712
1.33582
1.47473
1.6181
1.73915
0.0545478
0.163612
0.272598
0.381511
0.490453
0.5997
0.709821
0.821869
0.937715
1.06059
1.19595
1.35263
1.54319
1.77521
1.98389
0.0512915
0.153909
0.256649
0.359666
0.463237
0.567858
0.674386
0.784292
0.900085
1.02609
1.16997
1.34592
1.58286
1.94852
2.63607
0.0480114
0.14412
0.240509
0.337436
0.435293
0.534691
0.636607
0.742628
0.855363
0.97919
1.1217
1.29688
1.53313
1.89829
2.59323
0.0446716
0.134138
0.223993
0.314561
0.40628
0.499775
0.595977
0.696303
0.80294
0.919311
1.05076
1.20541
1.39389
1.61906
1.80097
0.0412462
0.123886
0.206983
0.290888
0.376034
0.462981
0.552485
0.645594
0.743759
0.848962
0.963707
1.09046
1.22916
1.36986
1.48322
0.0377184
0.113318
0.189411
0.266354
0.344537
0.42441
0.506491
0.591373
0.679692
0.771988
0.868316
0.967204
1.06306
1.13966
1.15106
0.0340777
0.102405
0.17125
0.240957
0.311868
0.384307
0.458552
0.534768
0.612862
0.692214
0.771149
0.846061
0.910313
0.954741
0.981098
0.0303176
0.0911345
0.152491
0.214726
0.278137
0.342949
0.409246
0.476857
0.545161
0.612731
0.676776
0.732321
0.771338
0.782371
0.747654
0.0264313
0.0794889
0.133122
0.187677
0.243435
0.300561
0.359026
0.418468
0.47797
0.535697
0.588306
0.630061
0.651797
0.641774
0.604879
0.0224095
0.0674441
0.113113
0.159793
0.207782
0.257245
0.308129
0.360036
0.412012
0.462219
0.507375
0.541702
0.554313
0.519838
0.352962
0.0182379
0.0549589
0.0924019
0.131
0.171106
0.212942
0.256523
0.301557
0.347284
0.392249
0.433966
0.468425
0.489529
0.489849
0.475383
0.0138961
0.0419726
0.0708889
0.101161
0.13323
0.167426
0.203909
0.242598
0.283086
0.324537
0.365597
0.404423
0.439179
0.470128
0.505672
0.00935698
0.0284031
0.0484349
0.0700727
0.0938779
0.120324
0.149762
0.182389
0.21822
0.257096
0.29878
0.343249
0.391473
0.447216
0.520622
0.00458725
0.0141493
0.024866
0.03748
0.0526921
0.071144
0.0934028
0.119957
0.15124
0.187708
0.230029
0.279469
0.338548
0.412041
0.508426
-0.000451576
-0.000906203
-2.02602e-05
0.00308335
0.00925706
0.0193208
0.0340606
0.0542423
0.0806608
0.114254
0.156337
0.208996
0.275614
0.360969
0.468103
-0.00580182
-0.0168925
-0.0264463
-0.0334449
-0.036879
-0.0357489
-0.0290601
-0.0158028
0.00509957
0.0349071
0.075301
0.12883
0.19967
0.294775
0.425827
-0.0115082
-0.0339459
-0.0546465
-0.0724483
-0.086184
-0.0946784
-0.0967415
-0.0911562
-0.0766448
-0.0517906
-0.014855
0.0366434
0.106877
0.203619
0.339495
-0.0176164
-0.0522056
-0.0848596
-0.114275
-0.139129
-0.158073
-0.169734
-0.172708
-0.165571
-0.146877
-0.115123
-0.0685522
-0.00432169
0.0852897
0.232582
-0.0241716
-0.071809
-0.117321
-0.159269
-0.196176
-0.226526
-0.248757
-0.261279
-0.262521
-0.251032
-0.225678
-0.18601
-0.133145
-0.0730939
-0.0354746
-0.031217
-0.0928879
-0.152259
-0.207762
-0.257777
-0.300617
-0.334523
-0.357684
-0.368311
-0.364815
-0.346172
-0.312632
-0.266955
-0.215898
-0.16635
-0.0387922
-0.115564
-0.189882
-0.260066
-0.32436
-0.380911
-0.427749
-0.462791
-0.483909
-0.489116
-0.477009
-0.447681
-0.4045
-0.357652
-0.333532
-0.0469319
-0.139943
-0.230377
-0.316459
-0.396319
-0.46795
-0.529166
-0.577568
-0.610554
-0.625438
-0.619804
-0.592347
-0.544592
-0.48362
-0.421631
-0.0556639
-0.166111
-0.273895
-0.377174
-0.473992
-0.562221
-0.639482
-0.70305
-0.74977
-0.776009
-0.777754
-0.751109
-0.69386
-0.610293
-0.526713
-0.0650075
-0.194127
-0.320541
-0.442374
-0.557629
-0.664109
-0.759305
-0.84023
-0.903208
-0.943587
-0.955417
-0.931121
-0.861405
-0.736973
-0.56495
-0.0749729
-0.224023
-0.370368
-0.512141
-0.647359
-0.773834
-0.889037
-0.989874
-1.07234
-1.13099
-1.15817
-1.14267
-1.06695
-0.896703
-0.528031
-0.0855602
-0.255797
-0.423371
-0.586461
-0.743159
-0.891386
-1.02875
-1.15227
-1.258
-1.34025
-1.39055
-1.39606
-1.33812
-1.19423
-0.968466
-0.096761
-0.28942
-0.479486
-0.66522
-0.844842
-1.01648
-1.17806
-1.32704
-1.45997
-1.57171
-1.65402
-1.6935
-1.66898
-1.54861
-1.27676
-0.108561
-0.324843
-0.538611
-0.748222
-0.952067
-1.14857
-1.33612
-1.51293
-1.67666
-1.82361
-1.94724
-2.03539
-2.06641
-2.00819
-1.84909
-0.120945
-0.362011
-0.600623
-0.835226
-1.06439
-1.28687
-1.50165
-1.70792
-1.90499
-2.09169
-2.26508
-2.41696
-2.52581
-2.53782
-2.31398
-0.133903
-0.400882
-0.665418
-0.926008
-1.18136
-1.43052
-1.67307
-1.90931
-2.14051
-2.36903
-2.59787
-2.8284
-3.05246
-3.23124
-3.27219
-0.147434
-0.441451
-0.732955
-1.02043
-1.30262
-1.57877
-1.84887
-2.11419
-2.3779
-2.64615
-2.92948
-3.24432
-3.61056
-4.02038
-4.22373
-0.161557
-0.483763
-0.803291
-1.11851
-1.42808
-1.7312
-2.028
-2.32019
-2.61214
-2.91278
-3.23922
-3.62455
-4.13839
-4.95289
-6.60297
-0.176309
-0.527936
-0.876619
-1.22051
-1.55802
-1.88803
-2.21034
-2.52635
-2.84033
-3.16151
-3.50806
-3.91553
-4.45743
-5.30513
-6.93075
-0.19175
-0.574153
-0.953271
-1.32695
-1.69317
-2.05021
-2.39704
-2.73393
-3.06354
-3.39261
-3.73459
-4.11315
-4.56411
-5.11716
-5.64535
-0.207953
-0.622652
-1.0337
-1.43858
-1.83469
-2.21948
-2.59064
-2.94655
-3.28711
-3.61475
-3.93572
-4.26051
-4.59988
-4.94645
-5.22761
-0.224995
-0.673687
-1.11841
-1.55628
-1.98408
-2.39823
-2.79482
-3.16985
-3.51966
-3.84151
-4.13419
-4.39773
-4.63066
-4.82117
-4.92581
-0.242937
-0.727477
-1.20788
-1.68098
-2.14295
-2.58916
-3.01397
-3.41066
-3.77161
-4.08854
-4.35289
-4.55622
-4.69089
-4.7555
-4.78244
-0.261807
-0.784137
-1.30243
-1.81339
-2.31277
-2.79497
-3.25263
-3.67629
-4.05415
-4.37207
-4.61397
-4.76238
-4.79978
-4.716
-4.54437
-0.281568
-0.843598
-1.40208
-1.95385
-2.49451
-3.01781
-3.51491
-3.97374
-4.3783
-4.70839
-4.93997
-5.04563
-4.99281
-4.73752
-4.28465
-0.302098
-0.905525
-1.50638
-2.10203
-2.68832
-3.25883
-3.80377
-4.30888
-4.75416
-5.11313
-5.35341
-5.43894
-5.32645
-4.89623
-3.44726
-0.32316
-0.969238
-1.6143
-2.25669
-2.8931
-3.5176
-4.1203
-4.68557
-5.18995
-5.60029
-5.87432
-5.96975
-5.88074
-5.76241
-6.39148
-0.344392
-1.03365
-1.72408
-2.41551
-3.10615
-3.79152
-4.46281
-5.10453
-5.69104
-6.18213
-6.51924
-6.62865
-6.4554
-6.10956
-6.42519
-0.365292
-1.09726
-1.83317
-2.57487
-3.32286
-4.0752
-4.82587
-5.56185
-6.25838
-6.8709
-7.3223
-7.48383
-7.14991
-5.99736
-3.37756
-0.38523
-1.15813
-1.93823
-2.72987
-3.53654
-4.36005
-5.19912
-6.04657
-6.88406
-7.67157
-8.32665
-8.68307
-8.41293
-6.90406
-3.20169
-0.403474
-1.214
-2.03527
-2.87444
-3.73852
-4.6341
-5.56654
-6.53821
-7.54443
-8.56421
-9.53839
-10.3174
-10.5362
-9.33404
-4.90153
-0.419232
-1.26241
-2.11989
-3.0017
-3.91862
-4.88255
-5.90673
-7.00586
-8.1954
-9.48851
-10.8857
-12.3408
-13.6461
-14.0073
-10.3309
-0.431714
-1.30089
-2.18762
-3.10457
-4.06609
-5.08915
-6.19486
-7.41072
-8.77445
-10.3405
-12.1927
-14.4684
-17.4116
-21.4846
-27.5557
-11.2524
-25.7351
-24.3219
-20.7696
-17.4704
-14.7051
-12.3898
-10.4091
-8.6707
-7.10784
-5.67228
-4.32852
-3.04944
-1.81332
-0.601772
-111.008
-57.8653
-37.3351
-27.1959
-21.1523
-17.0442
-13.9832
-11.5453
-9.50349
-7.72556
-6.12848
-4.65683
-3.27119
-1.94162
-0.643783
-123.427
-67.3478
-43.1325
-30.778
-23.49
-18.6562
-15.144
-12.4063
-10.1531
-8.21767
-6.49759
-4.92543
-3.45398
-2.0479
-0.678661
-67.7936
-54.703
-40.693
-30.8418
-24.1234
-19.3504
-15.767
-12.931
-10.5819
-8.56026
-6.76397
-5.12407
-3.59139
-2.12858
-0.705266
-47.8479
-42.6966
-35.3655
-28.7299
-23.406
-19.2185
-15.8708
-13.1176
-10.7833
-8.74638
-6.92174
-5.24827
-3.68028
-2.18184
-0.722992
-30.374
-32.204
-29.5551
-25.7072
-21.8993
-18.5035
-15.5618
-13.0131
-10.7782
-8.78507
-6.97452
-5.29922
-3.72087
-2.2076
-0.731788
-22.3999
-24.8216
-24.5774
-22.6565
-20.1065
-17.4733
-14.9797
-12.6909
-10.6053
-8.69693
-6.93338
-5.28285
-3.71626
-2.20734
-0.73209
-12.4396
-19.2905
-20.7641
-20.0428
-18.3713
-16.3461
-14.2554
-12.2275
-10.3093
-8.50822
-6.81374
-5.2082
-3.6716
-2.1837
-0.724706
-14.999
-17.4937
-18.4749
-18.0891
-16.8818
-15.2643
-13.4875
-11.688
-9.93204
-8.24546
-6.63234
-5.08567
-3.59312
-2.13998
-0.710672
-15.6475
-16.7479
-17.1351
-16.7057
-15.6772
-14.2932
-12.7353
-11.1182
-9.50657
-7.93167
-6.40479
-4.92557
-3.48726
-2.07971
-0.691107
-16.2541
-16.4974
-16.3625
-15.7382
-14.7196
-13.4429