/*--------------------------------*- C++ -*----------------------------------*\
| =========                 |                                                 |
| \\      /  F ield         | OpenFOAM: The Open Source CFD Toolbox           |
|  \\    /   O peration     | Version:  5.x                                   |
|   \\  /    A nd           | Web:      www.OpenFOAM.org                      |
|    \\/     M anipulation  |                                                 |
\*---------------------------------------------------------------------------*/
FoamFile
{
    version     2.0;
    format      ascii;
    class       volScalarField;
    location    "9.6";
    object      gradTx;
}
// * * * * * * * * * * * * * * * * * * * * * * * * * * * * * * * * * * * * * //

dimensions      [0 -1 0 1 0 0 0];

internalField   nonuniform List<scalar> 
2048
(
0.00630483
0.018734
0.0306382
0.0417195
0.0517489
0.0605773
0.0681341
0.0744172
0.0794763
0.0833942
0.0862707
0.0882102
0.0893146
0.0896808
0.089401
0.0885647
0.0872585
0.0855659
0.0835649
0.0813238
0.0788985
0.0763297
0.0736421
0.070846
0.0679391
0.0649092
0.0617369
0.0583965
0.0548572
0.0510831
0.0470339
0.042666
0.0379343
0.032794
0.0272035
0.0211249
0.0145263
0.00738125
-0.000329723
-0.0086183
-0.017486
-0.0269206
-0.0368907
-0.0473388
-0.0581734
-0.0692598
-0.0804109
-0.0913794
-0.101854
-0.111462
-0.119781
-0.126358
-0.130752
-0.132569
-0.131511
-0.127415
-0.120277
-0.110247
-0.0976152
-0.0827648
-0.0661295
-0.0481502
-0.0292469
-0.00980739
0.0187881
0.055817
0.0912552
0.124204
0.153977
0.180134
0.202476
0.22101
0.235897
0.247397
0.255814
0.261464
0.264648
0.265654
0.264754
0.262209
0.258279
0.253211
0.247239
0.240567
0.233364
0.225749
0.217796
0.209531
0.200948
0.192007
0.18265
0.1728
0.162367
0.151243
0.139308
0.126433
0.112482
0.0973203
0.0808242
0.0628812
0.0433954
0.022289
-0.000497042
-0.024999
-0.0512245
-0.0791417
-0.108663
-0.139626
-0.171768
-0.204697
-0.237867
-0.27055
-0.301825
-0.330579
-0.355543
-0.375355
-0.38867
-0.394287
-0.391294
-0.379191
-0.35796
-0.328072
-0.290411
-0.246151
-0.196608
-0.143109
-0.086905
-0.0291382
0.0311395
0.0924816
0.151104
0.205483
0.254469
0.297349
0.333823
0.363949
0.388039
0.406559
0.420037
0.429005
0.433962
0.435374
0.433681
0.429309
0.42268
0.414208
0.404283
0.393249
0.381385
0.36889
0.35588
0.342393
0.32841
0.313861
0.298647
0.282642
0.265697
0.247635
0.228259
0.207351
0.184683
0.160034
0.133194
0.103978
0.0722278
0.0378149
0.000640717
-0.0393598
-0.0822082
-0.127865
-0.176207
-0.226987
-0.279799
-0.334029
-0.388805
-0.44295
-0.494957
-0.542981
-0.584891
-0.618378
-0.64113
-0.65107
-0.646606
-0.626859
-0.591798
-0.542251
-0.479767
-0.406388
-0.324372
-0.235961
-0.143224
-0.0480092
0.043599
0.129424
0.211271
0.286936
0.354791
0.413867
0.463817
0.504812
0.53738
0.562246
0.580198
0.591992
0.598323
0.59982
0.597073
0.590661
0.581166
0.56917
0.555226
0.539828
0.523369
0.506128
0.488254
0.469789
0.450688
0.430846
0.410118
0.388331
0.365279
0.340721
0.314379
0.285946
0.255099
0.22152
0.184917
0.14503
0.101641
0.0545716
0.00368333
-0.051123
-0.109894
-0.172602
-0.239109
-0.309121
-0.382125
-0.457328
-0.533578
-0.609291
-0.682397
-0.750322
-0.810035
-0.858196
-0.891412
-0.906587
-0.901324
-0.874287
-0.825429
-0.75601
-0.668378
-0.565591
-0.450972
-0.327744
-0.198793
-0.0666108
0.0563822
0.167266
0.272718
0.369766
0.456279
0.531061
0.59379
0.644844
0.685061
0.7155
0.737248
0.751307
0.758554
0.759759
0.755638
0.746907
0.734304
0.718586
0.700489
0.680666
0.65964
0.637763
0.615213
0.592016
0.568087
0.543274
0.517384
0.490198
0.461459
0.430864
0.398056
0.36263
0.324161
0.282231
0.236455
0.186501
0.132094
0.0730108
0.00907067
-0.0598643
-0.13388
-0.21298
-0.297045
-0.38577
-0.478585
-0.574573
-0.672358
-0.770005
-0.864917
-0.953789
-1.03264
-1.09698
-1.14216
-1.16386
-1.15867
-1.12469
-1.06185
-0.97194
-0.858327
-0.725313
-0.577481
-0.419133
-0.253975
-0.0850562
0.069694
0.206596
0.336338
0.455068
0.560115
0.6501
0.724831
0.785021
0.83194
0.867077
0.891877
0.907596
0.915272
0.915783
0.909935
0.898558
0.882546
0.862845
0.840396
0.816041
0.790443
0.764031
0.736994
0.70932
0.680864
0.651408
0.62071
0.588507
0.554506
0.518345
0.479586
0.43772
0.392205
0.34251
0.288154
0.228733
0.16392
0.0934522
0.0171109
-0.0652855
-0.153875
-0.24872
-0.349753
-0.4567
-0.568993
-0.68565
-0.80515
-0.925272
-1.04295
-1.15415
-1.2539
-1.3364
-1.39552
-1.42542
-1.42142
-1.38085
-1.30358
-1.19214
-1.05119
-0.886622
-0.70454
-0.510465
-0.308917
-0.103385
0.0837385
0.247994
0.402998
0.543875
0.667374
0.772003
0.857833
0.926086
0.978627
1.01749
1.04455
1.0613
1.06893
1.06835
1.06041
1.04603
1.02626
1.00225
0.975193
0.946154
0.915957
0.885108
0.853785
0.821908
0.789237
0.755471
0.720311
0.683469
0.644625
0.603374
0.559193
0.511456
0.459484
0.402617
0.340271
0.27197
0.197345
0.116105
0.0280017
-0.0671945
-0.169688
-0.279625
-0.397027
-0.521702
-0.653137
-0.790367
-0.931805
-1.07504
-1.21662
-1.35182
-1.4746
-1.57772
-1.65326
-1.69347
-1.69203
-1.64521
-1.55281
-1.41831
-1.24811
-1.05014
-0.832384
-0.601755
-0.363564
-0.121568
0.0987274
0.292055
0.473577
0.637204
0.77907
0.897665
0.993519
1.06858
1.12551
1.16704
1.19552
1.2127
1.21983
1.2178
1.20742
1.18966
1.16573
1.13703
1.10505
1.07114
1.0363
1.00112
0.965737
0.929957
0.893401
0.855657
0.81637
0.775245
0.731967
0.686102
0.637039
0.584015
0.526188
0.462746
0.392988
0.316374
0.232508
0.141087
0.0418458
-0.065491
-0.18121
-0.305569
-0.438717
-0.580592
-0.7308
-0.888469
-1.05205
-1.21907
-1.38577
-1.54685
-1.69516
-1.82183
-1.9168
-1.96995
-1.97275
-1.92005
-1.8115
-1.65186
-1.44985
-1.21607
-0.960864
-0.69271
-0.417661
-0.139506
0.114886
0.339411
0.548983
0.736076
0.896172
1.02789
1.13247
1.21286
1.27279
1.31583
1.34488
1.36193
1.36819
1.3644
1.35126
1.32974
1.3012
1.26737
1.23009
1.19106
1.15153
1.11214
1.07297
1.03362
0.993534
0.952143
0.909041
0.86396
0.816634
0.766625
0.713233
0.655524
0.592459
0.523037
0.446432
0.362043
0.269472
0.168435
0.0586644
-0.0601555
-0.188407
-0.326491
-0.474725
-0.633222
-0.801767
-0.979664
-1.16552
-1.35693
-1.55002
-1.73899
-1.91564
-2.06928
-2.18732
-2.25661
-2.26574
-2.20757
-2.08148
-1.89394
-1.65681
-1.38423
-1.08945
-0.782737
-0.470766
-0.157037
0.132462
0.390743
0.630183
0.841542
1.01963
1.1634
1.27512
1.35911
1.42045
1.46376
1.49257
1.50901
1.51412
1.50837
1.49221
1.46654
1.4329
1.3934
1.35038
1.30594
1.26166
1.21823
1.17558
1.13306
1.08981
1.0451
0.99846
0.949703
0.898682
0.844994
0.787839
0.726072
0.658401
0.583597
0.500686
0.409023
0.308244
0.198118
0.0784067
-0.0512393
-0.191314
-0.342394
-0.505007
-0.679487
-0.865849
-1.06365
-1.27178
-1.48808
-1.70876
-1.92772
-2.13578
-2.32031
-2.46571
-2.55508
-2.57313
-2.50997
-2.36451
-2.14548
-1.86905
-1.55402
-1.21724
-0.870954
-0.522258
-0.173941
0.151725
0.446797
0.718217
0.9547
1.15038
1.30483
1.42178
1.50735
1.56831
1.61059
1.63837
1.65384
1.65768
1.64989
1.63051
1.60029
1.561
1.51523
1.46592
1.41575
1.36665
1.31939
1.27366
1.22841
1.18243
1.13471
1.08475
1.03253
0.978127
0.921218
0.860887
0.795718
0.724096
0.644507
0.555803
0.45732
0.348776
0.230047
0.100959
-0.0388567
-0.190024
-0.353336
-0.529576
-0.719335
-0.922897
-1.14015
-1.37038
-1.61187
-1.86119
-2.11222
-2.35499
-2.57484
-2.75266
-2.86686
-2.8971
-2.8296
-2.66236
-2.40724
-2.08629
-1.72442
-1.34295
-0.956204
-0.571359
-0.189945
0.17298
0.5084
0.814215
1.07671
1.28936
1.45276
1.57265
1.65744
1.71602
1.75591
1.78197
1.79626
1.7989
1.78914
1.76644
1.73127
1.68569
1.63293
1.57669
1.52039
1.46643
1.41562
1.36728
1.31985
1.27158
1.22115
1.16803
1.11248
1.05494
0.995266
0.932376
0.864501
0.789612
0.705836
0.611815
0.506906
0.390981
0.264082
0.126153
-0.0231774
-0.184684
-0.359429
-0.5485
-0.752772
-0.97282
-1.20891
-1.46086
-1.7276
-2.00638
-2.29145
-2.57237
-2.83244
-3.04857
-3.19339
-3.23997
-3.16898
-2.97692
-2.67983
-2.30786
-1.89401
-1.46495
-1.03708
-0.617151
-0.204733
0.196565
0.576465
0.919412
1.2088
1.43749
1.60767
1.72777
1.80906
1.86306
1.89915
1.92292
1.93606
1.93777
1.92631
1.90027
1.85974
1.80714
1.74656
1.68264
1.61974
1.56086
1.50686
1.45653
1.40754
1.3575
1.30465
1.24842
1.18955
1.12906
1.06707
1.00228
0.932443
0.855012
0.767649
0.668746
0.557731
0.434732
0.300039
0.15377
-0.00441887
-0.175484
-0.360824
-0.561895
-0.77987
-1.0156
-1.26976
-1.54281
-1.83455
-2.14327
-2.46413
-2.78669
-3.09237
-3.35359
-3.53603
-3.6042
-3.53096
-3.31019
-2.96365
-2.53268
-2.06089
-1.58123
-1.11197
-0.658617
-0.217962
0.22286
0.652004
1.03516
1.35227
1.5957
1.76997
1.88708
1.96177
2.00872
2.03961
2.06071
2.07299
2.07429
2.06161
2.03234
1.98601
1.92555
1.85617
1.78367
1.7136
1.64979
1.59309
1.5415
1.49169
1.44045
1.38545
1.32605
1.2637
1.20037
1.13652
1.07056
0.99956
0.920359
0.830023
0.726611
0.609721
0.479876
0.337697
0.18355
0.0171599
-0.16265
-0.357711
-0.569924
-0.800761
-1.0513
-1.3226
-1.61588
-1.93203
-2.27074
-2.62877
-2.99642
-3.3535
-3.66755
-3.896
-3.99249
-3.91882
-3.66445
-3.25894
-2.75922
-2.22269
-1.6895
-1.17909
-0.694677
-0.229274
0.252292
0.736132
1.16292
1.50852
1.76487
1.93995
2.05039
2.11497
2.15218
2.17645
2.19475
2.20677
2.20845
2.19528
2.16306
2.1104
2.04108
1.96178
1.87966
1.80174
1.73299
1.67421
1.6223
1.57253
1.52076
1.46385
1.40104
1.33487
1.26868
1.20348
1.13714
1.06586
0.985728
0.89305
0.78543
0.662788
0.526235
0.376801
0.215194
0.0412647
-0.146433
-0.3503
-0.572786
-0.815646
-1.08007
-1.36745
-1.67985
-2.01941
-2.38763
-2.78372
-3.1997
-3.61434
-3.98992
-4.27436
-4.40779
-4.33646
-4.04231
-3.56568
-2.98537
-2.37655
-1.78713
-1.23656
-0.724242
-0.238318
0.285344
0.830073
1.30429
1.67904
1.94587
2.11778
2.21741
2.26795
2.29242
2.30873
2.32442
2.33714
2.34027
2.32761
2.29289
2.2333
2.15392
2.06345
1.97045
1.88386
1.81019
1.75017
1.69905
1.65031
1.59877
1.54022
1.47355
1.40293
1.33378
1.26778
1.20199
1.13136
1.0512
0.956853
0.845229
0.716823
0.573613
0.417074
0.248366
0.0675707
-0.127103
-0.33881
-0.570705
-0.82478
-1.10215
-1.40442
-1.73459
-2.09619
-2.49282
-2.9272
-3.39441
-3.87301
-4.31975
-4.67188
-4.85336
-4.78852
-4.44678
-3.88353
-3.20838
-2.5191
-1.87131
-1.28246
-0.746273
-0.244771
0.322564
0.935154
1.46099
1.86543
2.13947
2.30347
2.38773
2.41987
2.42829
2.43535
2.44906
2.46388
2.46973
2.45893
2.42242
2.3551
2.26422
2.16122
2.05589
1.9596
1.88107
1.82088
1.77193
1.72529
1.67488
1.61501
1.54374
1.46769
1.39534
1.32923
1.26504
1.19605
1.11688
1.0216
0.906042
0.771696
0.621799
0.458217
0.282701
0.0957268
-0.104934
-0.323459
-0.563919
-0.828479
-1.11788
-1.43374
-1.78015
-2.16204
-2.58525
-3.0573
-3.57814
-4.12725
-4.65561
-5.08891
-5.33271
-5.28069
-4.88148
-4.21167
-3.42468
-2.64644
-1.93907
-1.31496
-0.75984
-0.248354
0.36459
1.05279
1.63484
2.06947
2.34637
2.49681
2.56092
2.56984
2.55848
2.55513
2.56802
2.58685
2.59683
2.58958
2.55237
2.47624
2.37209
2.25517
2.13581
2.02851
1.94522
1.88627
1.84116
1.79775
1.74953
1.68879
1.6118
1.5289
1.45298
1.3876
1.32629
1.25993
1.18287
1.08753
0.967909
0.827243
0.670585
0.49992
0.317799
0.125357
-0.0802038
-0.304441
-0.552664
-0.827103
-1.1277
-1.45574
-1.8167
-2.21683
-2.66398
-3.17207
-3.74825
-4.37448
-4.99558
-5.52517
-5.84959
-5.81999
-5.35067
-4.54862
-3.6298
-2.75419
-1.98739
-1.33241
-0.764184
-0.248859
0.412188
1.18449
1.82775
2.2931
2.56708
2.6973
2.73651
2.71691
2.68154
2.66673
2.68071
2.70604
2.72148
2.71994
2.68368
2.59716
2.47756
2.34546
2.21004
2.09007
2.00215
1.9463
1.90706
1.8679
1.82318
1.76228
1.67796
1.58616
1.50619
1.44269
1.38576
1.32294
1.24929
1.15496
1.03088
0.883252
0.719768
0.54187
0.353228
0.156064
-0.0531782
-0.281919
-0.537162
-0.821058
-1.13212
-1.47083
-1.84456
-2.26073
-2.72824
-3.2695
-3.90186
-4.61183
-5.33723
-5.97946
-6.40788
-6.41521
-5.85951
-4.89196
-3.81814
-2.83756
-2.01339
-1.3334
-0.758772
-0.246157
0.466316
1.33175
2.04164
2.53859
2.80192
2.90407
2.91415
2.86016
2.79582
2.76869
2.7866
2.82166
2.84349
2.85034
2.81756
2.71825
2.58048
2.43235
2.27848
2.14363
2.0513
2.00096
1.97007
1.9359
1.89629
1.83643
1.74247
1.63897
1.55435
1.49428
1.44361
1.38498
1.31621
1.22436
1.09498
0.939434
0.769184
0.583762
0.388516
0.187424
-0.0241108
-0.255999
-0.517601
-0.810787
-1.13178
-1.47947
-1.86419
-2.29422
-2.7775
-3.34762
-4.03593
-4.83624
-5.6777
-6.44923
-7.01138
-7.07751
-6.41419
-5.23786
-3.98282
-2.89141
-2.0144
-1.31693
-0.743342
-0.240216
0.528238
1.4961
2.27838
2.80868
3.05086
3.11573
3.09371
2.99871
2.89947
2.85938
2.88526
2.93422
2.96242
2.98104
2.95565
2.83987
2.68048
2.5163
2.34106
2.18841
2.09195
2.05029
2.03081
2.00176
1.96927
1.91249
1.80561
1.68662
1.59669
1.54219
1.50012
1.44584
1.3837
1.29639
1.16024
0.995381
0.818731
0.625306
0.423143
0.218992
0.00676242
-0.22672
-0.49412
-0.796761
-1.12741
-1.48213
-1.87611
-2.3182
-2.81147
-3.40444
-4.14719
-5.04462
-6.01384
-6.93013
-7.6635
-7.82113
-7.02219
-5.58053
-4.11556
-2.9105
-1.98822
-1.28244
-0.717932
-0.231102
0.599705
1.67893
2.5396
3.10679
3.31343
3.33014
3.27551
3.13179
2.9904
2.93698
2.97642
3.04473
3.07748
3.1121
3.1002
2.96219
2.77676
2.59811
2.39777
2.22347
2.12324
2.09439
2.09022
2.06521
2.04242
1.99215
1.86766
1.72817
1.63229
1.58629
1.55585
1.50512
1.45171
1.37203
1.22662
1.05051
0.868431
0.66624
0.456531
0.250295
0.0392238
-0.194033
-0.466793
-0.779476
-1.11991
-1.47925
-1.88087
-2.33404
-2.83018
-3.43806
-4.23221
-5.23395
-6.34261
-7.41528
-8.3667
-8.66451
-7.69247
-5.91144
-4.20656
-2.88965
-1.93326
-1.22994
-0.682892
-0.218982
0.683244
1.88139
2.82652
3.43745
3.58853
3.54419
3.46063
3.25875
3.06624
2.99945
3.05994
3.1549
3.18728
3.24331
3.25437
3.08517
2.86798
2.6791
2.44871
2.24763
2.14414
2.13345
2.14967
2.1256
2.11583
2.07772
1.9289
1.76239
1.66003
1.62648
1.6117
1.56215
1.52006
1.45267
1.29397
1.10398
0.918499
0.706335
0.488018
0.280839
0.0730702
-0.157782
-0.435613
-0.759438
-1.11035
-1.47114
-1.87889
-2.34377
-2.83394
-3.44666
-4.28726
-5.40149
-6.66155
-7.89455
-9.12179
-9.63156
-8.43573
-6.21825
-4.24452
-2.82412
-1.84869
-1.15996
-0.638872
-0.204111
0.782593
2.10425
3.13952
3.80682
3.87419
3.75342
3.65133
3.37908
3.12423
3.04446
3.13582
3.26749
3.28954
3.37399
3.42264
3.20832
2.95194
2.76134
2.49403
2.25945
2.15339
2.16768
2.21118
2.1817
2.18932
2.17234
1.98951
1.7877
1.6786
1.66275
1.66913
1.61582
1.58833
1.54034
1.36199
1.1546
0.969463
0.745387
0.51684
0.310115
0.108105
-0.117685
-0.400481
-0.737144
-1.10006
-1.45796
-1.8704
-2.35014
-2.82336
-3.42854
-4.30826
-5.54483
-6.96967
-8.35352
-9.92681
-10.7535
-9.2646
-6.48346
-4.21684
-2.71001
-1.73468
-1.07367
-0.586795
-0.186821
0.903347
2.34765
3.47774
4.22346
4.16726
3.95152
3.85168
3.4923
3.16117
3.06942
3.20413
3.38674
3.38073
3.50273
3.61136
3.33053
3.02528
2.84809
2.53391
2.25717
2.14951
2.19733
2.27772
2.23142
2.26218
2.28036
2.04947
1.80212
1.68651
1.69508
1.73035
1.66441
1.65579
1.63795
1.43011
1.20064
1.02231
0.783205
0.542092
0.337611
0.14412
-0.073317
-0.361189
-0.713048
-1.09076
-1.4396
-1.85517
-2.35693
-2.7993
-3.38218
-4.29061
-5.662
-7.26865
-8.77239
-10.7756
-12.0713
-10.1939
-6.68267
-4.11004
-2.5447
-1.59242
-0.972735
-0.527806
-0.167502
1.05386
2.61078
3.83833
4.69942
4.46294
4.12975
4.06837
3.59784
3.17336
3.07139
3.26481
3.51902
3.45555
3.62713
3.82947
3.44976
3.08303
2.94431
2.56842
2.23864
2.13078
2.22254
2.35362
2.27152
2.33306
2.40771
2.10839
1.80317
1.68209
1.72343
1.79869
1.70533
1.72117
1.74965
1.49734
1.23973
1.07873
0.819563
0.562699
0.36284
0.180875
-0.0240817
-0.317431
-0.687504
-1.08465
-1.41558
-1.83227
-2.36917
-2.7627
-3.30637
-4.22898
-5.75131
-7.56451
-9.12465
-11.6556
-13.6382
-11.2404
-6.78243
-3.91053
-2.32734
-1.42423
-0.859318
-0.463215
-0.146582
1.24648
2.89153
4.21556
5.25161
4.75424
4.27615
4.31175
3.69469
3.15649
3.04715
3.31747
3.67361
3.50633
3.74337
4.0895
3.56262
3.11809
3.05728
2.59734
2.20129
2.09522
2.24319
2.44506
2.29718
2.39966
2.56254
2.16523
1.7879
1.66352
1.74754
1.87895
1.73481
1.78257
1.8813
1.5621
1.26857
1.14136
0.854131
0.577364
0.385381
0.218052
0.0308111
-0.268806
-0.660681
-1.08465
-1.38502
-1.79975
-2.39355
-2.71443
-3.20038
-4.11701
-5.81099
-7.8698
-9.37568
-12.5456
-15.5238
-12.4234
-6.73759
-3.6058
-2.05935
-1.23349
-0.735936
-0.394422
-0.124502
1.49924
3.18595
4.59957
5.90362
5.03123
4.37462
4.59726
3.78092
3.10569
2.99329
3.3609
3.86377
3.5222
3.8457
4.40874
3.66388
3.12059
3.19758
2.61983
2.14212
2.04069
2.25858
2.5608
2.30148
2.45845
2.75584
2.21793
1.75286
1.62895
1.76679
1.978
1.74749
1.83714
2.04096
1.62195
1.2827
1.2142
0.886346
0.584535
0.40494
0.25521
0.0923822
-0.21485
-0.632431
-1.09464
-1.34655
-1.75417
-2.43894
-2.65494
-3.0642
-3.94709
-5.83856
-8.20644
-9.48118
-13.4123
-17.8184
-13.7636
-6.48822
-3.18623
-1.74483
-1.02455
-0.605333
-0.322849
-0.101698
1.83792
3.48768
4.97488
6.68802
5.28016
4.40378
4.94708
3.85295
3.01549
2.9063
3.39243
4.10805
3.48822
3.92583
4.81069
3.74579
3.07712
3.38016
2.63393
2.05772
1.96496
2.26709
2.71304
2.27485
2.50424
3.00238
2.26288
1.69411
1.57658
1.7798
2.1054
1.73596
1.88088
2.23969
1.67328
1.2762
1.30302
0.915235
0.58236
0.421432
0.291707
0.161927
-0.155102
-0.602109
-1.11973
-1.29823
-1.6901
-2.51702
-2.58376
-2.89896
-3.71003
-5.8297
-8.60918
-9.38568
-14.2058
-20.6382
-15.2834
-5.95599
-2.64745
-1.39075
-0.802487
-0.470333
-0.249872
-0.0785793
2.29877
3.7872
5.3185
7.64911
5.48226
4.33568
5.39231
3.90446
2.87999
2.78288
3.40708
4.43195
3.38424
3.97221
5.32685
3.79729
2.96984
3.62568
2.6359
1.94431
1.86586
2.26555
2.91847
2.20428
2.52981
3.32171
2.29422
1.6074
1.50488
1.78401
2.27427
1.69019
1.90823
2.49226
1.71091
1.24133
1.41601
0.939161
0.568661
0.435089
0.326604
0.241075
-0.0891863
-0.568329
-1.16663
-1.23758
-1.59942
-2.64308
-2.49891
-2.70743
-3.39487
-5.77662
-9.12971
-9.02096
-14.8557
-24.1316
-17.0052
-5.04013
-1.99352
-1.00697
-0.572823
-0.333683
-0.176764
-0.0555193
2.93167
4.07096
5.59767
8.84622
5.61244
4.13434
5.97536
3.92506
2.69308
2.62027
3.39633
4.86985
3.18371
3.96915
5.99871
3.8031
2.77552
3.96218
2.61933
1.79794
1.74158
2.24848
3.19952
2.07257
2.52536
3.73941
2.30298
1.48832
1.41281
1.77506
2.50224
1.59689
1.91174
2.81818
1.72762
1.16817
1.56434
0.955485
0.540925
0.446592
0.358545
0.331872
-0.0169605
-0.528646
-1.24405
-1.16157
-1.47054
-2.83708
-2.39599
-2.49467
-2.98874
-5.66581
-9.84151
-8.30475
-15.2644
-28.4862
-18.9508
-3.61294
-1.24083
-0.605813
-0.341147
-0.197926
-0.104651
-0.0328413
3.80396
4.32041
5.76728
10.3574
5.63767
3.75415
6.7529
3.89848
2.4488
2.4168
3.34665
5.46726
2.85225
3.89586
6.88
3.74255
2.46448
4.42696
2.57397
1.6147
1.59093
2.20712
3.58589
1.85739
2.47798
4.28848
2.27599
1.33259
1.30011
1.74599
2.81264
1.43877
1.88165
3.24273
1.71357
1.0442
1.76303
0.960139
0.496314
0.457231
0.385606
0.436883
0.0612969
-0.479162
-1.36315
-1.06671
-1.28751
-3.12481
-2.26708
-2.26888
-2.47696
-5.47512
-10.8451
-7.13951
-15.3012
-33.9369
-21.1394
-1.51517
-0.422855
-0.201267
-0.112737
-0.0652807
-0.0344834
-0.0108155
)
;

boundaryField
{
    left
    {
        type            calculated;
        value           uniform 0;
    }
    right
    {
        type            calculated;
        value           uniform 0;
    }
    interface
    {
        type            calculated;
        value           nonuniform List<scalar> 
64
(
3.80396
4.32041
5.76728
10.3574
5.63767
3.75415
6.7529
3.89848
2.4488
2.4168
3.34665
5.46726
2.85225
3.89586
6.88
3.74255
2.46448
4.42696
2.57397
1.6147
1.59093
2.20712
3.58589
1.85739
2.47798
4.28848
2.27599
1.33259
1.30011
1.74599
2.81264
1.43877
1.88165
3.24273
1.71357
1.0442
1.76303
0.960139
0.496314
0.457231
0.385606
0.436883
0.0612969
-0.479162
-1.36315
-1.06671
-1.28751
-3.12481
-2.26708
-2.26888
-2.47696
-5.47512
-10.8451
-7.13951
-15.3012
-33.9369
-21.1394
-1.51517
-0.422855
-0.201267
-0.112737
-0.0652807
-0.0344834
-0.0108155
)
;
    }
    bottom
    {
        type            calculated;
        value           nonuniform List<scalar> 
64
(
0.00630483
0.018734
0.0306382
0.0417195
0.0517489
0.0605773
0.0681341
0.0744172
0.0794763
0.0833942
0.0862707
0.0882102
0.0893146
0.0896808
0.089401
0.0885647
0.0872585
0.0855659
0.0835649
0.0813238
0.0788985
0.0763297
0.0736421
0.070846
0.0679391
0.0649092
0.0617369
0.0583965
0.0548572
0.0510831
0.0470339
0.042666
0.0379343
0.032794
0.0272035
0.0211249
0.0145263
0.00738125
-0.000329723
-0.0086183
-0.017486
-0.0269206
-0.0368907
-0.0473388
-0.0581734
-0.0692598
-0.0804109
-0.0913794
-0.101854
-0.111462
-0.119781
-0.126358
-0.130752
-0.132569
-0.131511
-0.127415
-0.120277
-0.110247
-0.0976152
-0.0827648
-0.0661295
-0.0481502
-0.0292469
-0.00980739
)
;
    }
    defaultFaces
    {
        type            empty;
    }
}


// ************************************************************************* //
