/*--------------------------------*- C++ -*----------------------------------*\
| =========                 |                                                 |
| \\      /  F ield         | OpenFOAM: The Open Source CFD Toolbox           |
|  \\    /   O peration     | Version:  5.x                                   |
|   \\  /    A nd           | Web:      www.OpenFOAM.org                      |
|    \\/     M anipulation  |                                                 |
\*---------------------------------------------------------------------------*/
FoamFile
{
    version     2.0;
    format      ascii;
    class       volScalarField;
    location    "9.6";
    object      gradTy;
}
// * * * * * * * * * * * * * * * * * * * * * * * * * * * * * * * * * * * * * //

dimensions      [0 -1 0 1 0 0 0];

internalField   nonuniform List<scalar> 
2048
(
-26.4237
-26.3961
-26.3417
-26.2621
-26.1593
-26.0359
-25.8946
-25.7383
-25.5698
-25.3916
-25.2061
-25.0155
-24.8216
-24.6263
-24.4309
-24.2369
-24.0453
-23.857
-23.6728
-23.4933
-23.3189
-23.1499
-22.9867
-22.8295
-22.6785
-22.5339
-22.396
-22.2652
-22.1418
-22.0264
-21.9194
-21.8215
-21.7334
-21.6561
-21.5904
-21.5373
-21.498
-21.4736
-21.4654
-21.4745
-21.5023
-21.5501
-21.6189
-21.7101
-21.8245
-21.9629
-22.1257
-22.3128
-22.5236
-22.7567
-23.0097
-23.2793
-23.5613
-23.8504
-24.1406
-24.4253
-24.6976
-24.9511
-25.1796
-25.3777
-25.5412
-25.6666
-25.7515
-25.7943
-26.446
-26.4178
-26.3621
-26.2808
-26.176
-26.0503
-25.9068
-25.7482
-25.5776
-25.3975
-25.2102
-25.018
-24.8228
-24.6263
-24.4299
-24.2349
-24.0426
-23.8537
-23.669
-23.4891
-23.3145
-23.1453
-22.9819
-22.8245
-22.6733
-22.5284
-22.3903
-22.2592
-22.1354
-22.0195
-21.912
-21.8135
-21.7248
-21.6467
-21.5801
-21.5262
-21.4859
-21.4606
-21.4513
-21.4594
-21.4862
-21.533
-21.6009
-21.6913
-21.8051
-21.9432
-22.106
-22.2937
-22.5056
-22.7406
-22.9962
-23.2693
-23.5556
-23.8496
-24.1451
-24.4352
-24.7129
-24.9713
-25.2041
-25.4058
-25.572
-25.6994
-25.7855
-25.829
-26.4887
-26.4592
-26.4012
-26.3165
-26.2076
-26.0777
-25.9297
-25.7669
-25.5923
-25.4085
-25.218
-25.0228
-24.825
-24.6262
-24.4278
-24.2311
-24.0373
-23.8473
-23.6618
-23.4812
-23.306
-23.1365
-22.9728
-22.815
-22.6634
-22.5182
-22.3795
-22.2478
-22.1233
-22.0066
-21.8981
-21.7985
-21.7085
-21.6289
-21.5608
-21.5052
-21.4631
-21.4359
-21.4247
-21.4309
-21.4557
-21.5005
-21.5667
-21.6555
-21.7681
-21.9055
-22.0684
-22.257
-22.4711
-22.7095
-22.9701
-23.2498
-23.5442
-23.8476
-24.1534
-24.4541
-24.7421
-25.01
-25.251
-25.4595
-25.6309
-25.7619
-25.8504
-25.895
-26.55
-26.5186
-26.4569
-26.3673
-26.2526
-26.1163
-25.9619
-25.793
-25.6126
-25.4237
-25.2285
-25.0293
-24.8278
-24.6257
-24.4245
-24.2255
-24.0297
-23.8381
-23.6514
-23.4699
-23.2941
-23.1241
-22.9599
-22.8017
-22.6496
-22.5038
-22.3645
-22.2319
-22.1064
-21.9885
-21.8787
-21.7775
-21.6856
-21.604
-21.5337
-21.4756
-21.431
-21.4012
-21.3872
-21.3906
-21.4126
-21.4548
-21.5184
-21.6049
-21.7157
-21.8519
-22.0146
-22.2044
-22.4212
-22.6643
-22.932
-23.2211
-23.5271
-23.8441
-24.1648
-24.481
-24.784
-25.0656
-25.3184
-25.5364
-25.7151
-25.8512
-25.9428
-25.9889
-26.6284
-26.5944
-26.528
-26.4317
-26.3092
-26.1646
-26.002
-25.8252
-25.6376
-25.4421
-25.2412
-25.0369
-24.8309
-24.6248
-24.4201
-24.2181
-24.0198
-23.8263
-23.6381
-23.4556
-23.279
-23.1084
-22.9438
-22.7851
-22.6324
-22.4859
-22.3457
-22.2122
-22.0855
-21.9662
-21.8546
-21.7514
-21.6573
-21.5731
-21.5
-21.4389
-21.3911
-21.3578
-21.3405
-21.3403
-21.3588
-21.3974
-21.4576
-21.5411
-21.6494
-21.7839
-21.9461
-22.1369
-22.3569
-22.6057
-22.882
-23.1829
-23.5039
-23.8385
-24.1787
-24.515
-24.8376
-25.137
-25.4049
-25.6349
-25.8224
-25.9647
-26.0601
-26.1079
-26.723
-26.6857
-26.6131
-26.5085
-26.3762
-26.2213
-26.0485
-25.8622
-25.666
-25.4629
-25.2554
-25.0451
-24.8339
-24.6231
-24.4143
-24.2088
-24.0077
-23.8119
-23.622
-23.4385
-23.2612
-23.09
-22.9249
-22.7658
-22.6125
-22.4651
-22.324
-22.1893
-22.0613
-21.9403
-21.8268
-21.7212
-21.6244
-21.5372
-21.4607
-21.396
-21.3444
-21.3072
-21.2858
-21.2814
-21.2956
-21.33
-21.3861
-21.4658
-21.5708
-21.703
-21.864
-22.0556
-22.2787
-22.5337
-22.8199
-23.1348
-23.4737
-23.83
-24.1942
-24.5555
-24.9023
-25.2234
-25.5095
-25.7536
-25.9513
-26.1003
-26.1997
-26.2493
-26.8331
-26.7918
-26.7115
-26.5965
-26.4523
-26.285
-26.1001
-25.9028
-25.6968
-25.4853
-25.2703
-25.0535
-24.8364
-24.6205
-24.4071
-24.1975
-23.9932
-23.795
-23.6034
-23.4187
-23.2408
-23.0693
-22.9038
-22.7441
-22.5902
-22.442
-22.2998
-22.1639
-22.0344
-21.9116
-21.7959
-21.6877
-21.5879
-21.4972
-21.4169
-21.3481
-21.2922
-21.2505
-21.2244
-21.2152
-21.2246
-21.254
-21.3052
-21.3803
-21.4812
-21.6102
-21.7695
-21.9611
-22.1871
-22.4485
-22.7455
-23.076
-23.4359
-23.8175
-24.2105
-24.6019
-24.9777
-25.3245
-25.6317
-25.8916
-26.1003
-26.2562
-26.3595
-26.4108
-26.9584
-26.912
-26.8223
-26.6947
-26.5363
-26.3543
-26.1556
-25.9458
-25.7291
-25.5083
-25.2854
-25.0617
-24.8384
-24.6167
-24.3982
-24.1843
-23.9764
-23.7755
-23.5823
-23.3966
-23.2182
-23.0465
-22.8808
-22.7207
-22.566
-22.417
-22.2737
-22.1364
-22.0054
-21.8807
-21.7627
-21.6517
-21.5485
-21.4539
-21.3694
-21.296
-21.2354
-21.1887
-21.1575
-21.143
-21.1469
-21.1707
-21.2164
-21.2861
-21.382
-21.5069
-21.6633
-21.8542
-22.0823
-22.3499
-22.658
-23.0058
-23.3892
-23.8002
-24.227
-24.6538
-25.0637
-25.4404
-25.7713
-26.0484
-26.2682
-26.4307
-26.5374
-26.5901
-27.0986
-27.0461
-26.945
-26.8024
-26.627
-26.428
-26.2136
-25.99
-25.7617
-25.5313
-25.3002
-25.0694
-24.8395
-24.6118
-24.3877
-24.169
-23.9573
-23.7536
-23.5587
-23.3723
-23.1937
-23.022
-22.8562
-22.6958
-22.5405
-22.3905
-22.246
-22.1074
-21.9748
-21.8482
-21.7278
-21.6138
-21.5069
-21.4082
-21.3189
-21.2407
-21.1748
-21.1228
-21.086
-21.0659
-21.0638
-21.0814
-21.1208
-21.1843
-21.2744
-21.3941
-21.5466
-21.7356
-21.9647
-22.2377
-22.5569
-22.9229
-23.3323
-23.7768
-24.2427
-24.711
-25.1606
-25.5715
-25.9286
-26.2236
-26.4542
-26.6223
-26.7314
-26.7849
-27.254
-27.194
-27.0791
-26.9185
-26.7233
-26.5048
-26.2727
-26.0342
-25.7937
-25.5535
-25.3144
-25.0763
-24.8397
-24.6056
-24.3755
-24.1516
-23.9356
-23.7292
-23.5327
-23.3458
-23.1675
-22.9962
-22.8306
-22.67
-22.514
-22.3629
-22.2172
-22.0773
-21.9432
-21.8147
-21.6918
-21.5746
-21.4638
-21.3606
-21.2663
-21.1827
-21.1113
-21.0536
-21.011
-20.9847
-20.9763
-20.9872
-21.0197
-21.0762
-21.1595
-21.273
-21.4203
-21.6058
-21.8346
-22.1117
-22.4414
-22.8261
-23.2637
-23.7459
-24.2567
-24.7733
-25.2689
-25.7185
-26.1041
-26.4171
-26.6573
-26.8293
-26.9393
-26.9928
-27.4246
-27.3556
-27.2243
-27.0424
-26.824
-26.5833
-26.3317
-26.0772
-25.8243
-25.5745
-25.3275
-25.0824
-24.839
-24.5982
-24.3616
-24.1319
-23.9115
-23.7021
-23.5043
-23.3174
-23.1398
-22.9694
-22.8043
-22.6435
-22.4868
-22.3345
-22.1875
-22.0462
-21.9108
-21.7806
-21.6553
-21.5348
-21.4199
-21.3117
-21.212
-21.1227
-21.0455
-20.9819
-20.9332
-20.9006
-20.8854
-20.8892
-20.9142
-20.9629
-21.0385
-21.1446
-21.2853
-21.4658
-21.6923
-21.9717
-22.3107
-22.7141
-23.1818
-23.7057
-24.2679
-24.8405
-25.3894
-25.8827
-26.2986
-26.6291
-26.8768
-27.0502
-27.1591
-27.2115
-27.6111
-27.5313
-27.3802
-27.1731
-26.9279
-26.6621
-26.3891
-26.1177
-25.8524
-25.5936
-25.3393
-25.0876
-24.8375
-24.5896
-24.346
-24.1099
-23.8847
-23.6723
-23.4734
-23.2871
-23.1109
-22.9419
-22.7777
-22.6168
-22.4592
-22.3056
-22.1571
-22.0146
-21.878
-21.7463
-21.6187
-21.4949
-21.3756
-21.2621
-21.1566
-21.0612
-20.9779
-20.9083
-20.8534
-20.8142
-20.792
-20.7882
-20.8051
-20.8455
-20.9125
-21.0101
-21.1427
-21.3164
-21.5384
-21.8177
-22.164
-22.5853
-23.0845
-23.6544
-24.2752
-24.9128
-25.5235
-26.0657
-26.5134
-26.8597
-27.1117
-27.2833
-27.3885
-27.4383
-27.814
-27.7212
-27.5467
-27.3098
-27.0337
-26.7397
-26.4435
-26.1547
-25.8774
-25.6104
-25.3499
-25.0922
-24.8354
-24.5801
-24.3287
-24.0856
-23.8551
-23.6397
-23.4401
-23.2549
-23.081
-22.9141
-22.7511
-22.5903
-22.4317
-22.2764
-22.1262
-21.9826
-21.8451
-21.7123
-21.5825
-21.4554
-21.3314
-21.2122
-21.1004
-20.9987
-20.9091
-20.8333
-20.7721
-20.7264
-20.697
-20.6853
-20.6936
-20.7249
-20.7826
-20.8706
-20.9937
-21.1585
-21.3735
-21.6498
-22.0005
-22.4382
-22.9696
-23.5898
-24.2771
-24.9903
-25.6727
-26.2698
-26.7502
-27.1094
-27.3613
-27.5266
-27.625
-27.6706
-28.0343
-27.9258
-27.7234
-27.4517
-27.14
-26.8145
-26.4934
-26.1869
-25.8984
-25.6247
-25.3593
-25.0962
-24.8329
-24.5699
-24.3099
-24.0588
-23.8225
-23.604
-23.4041
-23.221
-23.0504
-22.8865
-22.7251
-22.5643
-22.4044
-22.2469
-22.0949
-21.9502
-21.8124
-21.6788
-21.5472
-21.4166
-21.2877
-21.1624
-21.0438
-20.9354
-20.8394
-20.7574
-20.6901
-20.6379
-20.6011
-20.5812
-20.5805
-20.6022
-20.6498
-20.7272
-20.8394
-20.9934
-21.1985
-21.4682
-21.8197
-22.2711
-22.8348
-23.509
-24.2715
-25.0731
-25.8394
-26.498
-27.0107
-27.3784
-27.6243
-27.7783
-27.8662
-27.9057
-28.273
-28.1457
-27.9104
-27.5977
-27.2451
-26.885
-26.5374
-26.213
-25.9147
-25.6362
-25.3676
-25.1001
-24.8305
-24.5593
-24.2896
-24.0294
-23.7867
-23.5651
-23.3653
-23.1854
-23.0193
-22.8595
-22.7001
-22.5393
-22.3776
-22.2174
-22.0629
-21.9175
-21.7799
-21.6463
-21.5131
-21.3791
-21.2451
-21.113
-20.9871
-20.8717
-20.7692
-20.681
-20.6077
-20.5491
-20.5051
-20.4767
-20.4665
-20.4781
-20.5151
-20.5812
-20.6811
-20.8222
-21.0145
-21.2733
-21.6209
-22.0824
-22.6774
-23.4091
-24.2562
-25.1613
-26.0266
-26.7537
-27.2973
-27.667
-27.8997
-28.0362
-28.1094
-28.1408
-28.5312
-28.3815
-28.1074
-27.7469
-27.3475
-26.9496
-26.574
-26.2319
-25.9256
-25.6449
-25.3752
-25.1043
-24.8286
-24.5487
-24.2679
-23.9971
-23.7475
-23.5227
-23.3236
-23.1481
-22.9881
-22.8335
-22.6765
-22.5154
-22.3517
-22.1878
-22.0303
-21.8844
-21.7479
-21.6152
-21.4806
-21.3432
-21.2038
-21.0643
-20.9304
-20.8077
-20.6987
-20.6044
-20.5255
-20.4608
-20.4096
-20.3724
-20.3523
-20.3533
-20.3793
-20.4335
-20.52
-20.6463
-20.8228
-21.066
-21.404
-21.8704
-22.4947
-23.2865
-24.228
-25.2552
-26.2381
-27.0414
-27.6124
-27.9754
-28.1857
-28.2977
-28.3518
-28.373
-28.8104
-28.6339
-28.3144
-27.8979
-27.4452
-27.0065
-26.6018
-26.2423
-25.9305
-25.6509
-25.3828
-25.1093
-24.8276
-24.5389
-24.245
-23.9617
-23.7047
-23.4766
-23.2785
-23.1091
-22.9572
-22.8092
-22.6547
-22.4933
-22.3269
-22.158
-21.9966
-21.8506
-21.7166
-21.5857
-21.4502
-21.3094
-21.1643
-21.0165
-20.8737
-20.7436
-20.628
-20.5279
-20.4438
-20.3734
-20.3152
-20.269
-20.2385
-20.2287
-20.2435
-20.2852
-20.3572
-20.4673
-20.625
-20.8473
-21.1688
-21.6336
-22.2838
-23.1369
-24.1826
-25.3545
-26.4789
-27.3665
-27.9586
-28.3032
-28.4805
-28.5604
-28.5908
-28.5998
-29.1122
-28.9034
-28.5315
-28.0494
-27.5359
-27.0542
-26.6195
-26.2429
-25.9288
-25.6542
-25.3911
-25.1158
-24.8281
-24.5304
-24.221
-23.9227
-23.6581
-23.4266
-23.2298
-23.0684
-22.9267
-22.7871
-22.6353
-22.473
-22.3037
-22.1281
-21.9612
-21.816
-21.6859
-21.5585
-21.4222
-21.2778
-21.1271
-20.9698
-20.8169
-20.6794
-20.5574
-20.4516
-20.3629
-20.2875
-20.2225
-20.167
-20.1257
-20.1046
-20.1082
-20.1374
-20.1941
-20.2868
-20.423
-20.6186
-20.9157
-21.3706
-22.0422
-22.956
-24.1143
-25.4588
-26.7559
-27.7355
-28.3385
-28.6498
-28.7817
-28.8214
-28.8237
-28.8185
-29.4384
-29.1906
-28.7591
-28.2001
-27.6169
-27.0914
-26.626
-26.2321
-25.9201
-25.6554
-25.4012
-25.1241
-24.8303
-24.5244
-24.1961
-23.8792
-23.6075
-23.3725
-23.1768
-23.0258
-22.8973
-22.7682
-22.6186
-22.4549
-22.2827
-22.098
-21.9236
-21.7802
-21.6561
-21.534
-21.3968
-21.2487
-21.0927
-20.9244
-20.7598
-20.6153
-20.487
-20.3754
-20.2831
-20.2035
-20.1321
-20.0669
-20.0141
-19.9814
-19.9742
-19.9911
-20.0315
-20.1062
-20.2192
-20.3814
-20.6451
-21.0801
-21.7674
-22.739
-24.0157
-25.5671
-27.0779
-28.1563
-28.7543
-29.0136
-29.0865
-29.0779
-29.0479
-29.0267
-29.7912
-29.4956
-28.9977
-28.3482
-27.685
-27.117
-26.6205
-26.2084
-25.904
-25.6547
-25.4147
-25.1349
-24.8345
-24.5222
-24.1704
-23.8303
-23.5531
-23.3143
-23.1188
-22.9815
-22.8691
-22.7536
-22.6049
-22.4389
-22.2646
-22.0674
-21.8825
-21.7428
-21.6273
-21.513
-21.3744
-21.2222
-21.0619
-20.8803
-20.702
-20.5512
-20.4168
-20.2995
-20.2046
-20.1217
-20.0446
-19.9692
-19.904
-19.8595
-19.842
-19.8473
-19.8704
-19.9271
-20.016
-20.1379
-20.358
-20.7606
-21.4578
-22.4812
-23.8763
-25.6775
-27.4568
-28.6377
-29.2079
-29.3923
-29.3914
-29.3268
-29.2608
-29.2223
-30.1732
-29.8178
-29.2487
-28.4919
-27.7358
-27.1307
-26.6024
-26.1694
-25.8803
-25.6526
-25.4335
-25.1482
-24.8403
-24.5261
-24.1441
-23.774
-23.4952
-23.2522
-23.0545
-22.9352
-22.8427
-22.7445
-22.5945
-22.425
-22.2507
-22.0363
-21.8363
-21.7034
-21.5995
-21.4965
-21.355
-21.198
-21.0355
-20.8376
-20.6425
-20.4875
-20.3472
-20.2235
-20.1278
-20.0427
-19.9606
-19.8741
-19.7956
-19.7387
-19.7121
-19.707
-19.7112
-19.7509
-19.8167
-19.8901
-20.0558
-20.4106
-21.1125
-22.1786
-23.6821
-25.7864
-27.909
-29.19
-29.6998
-29.7826
-29.6928
-29.565
-29.4603
-29.4037
-30.5874
-30.1555
-29.5146
-28.6294
-27.7637
-27.1331
-26.572
-26.1124
-25.8491
-25.6495
-25.4605
-25.1641
-24.8467
-24.5391
-24.1173
-23.7076
-23.4349
-23.1864
-22.9822
-22.8874
-22.8182
-22.7428
-22.5872
-22.4123
-22.2429
-22.0046
-21.783
-21.6617
-21.5727
-21.4861
-21.3385
-21.1757
-21.0152
-20.7964
-20.5802
-20.4244
-20.2782
-20.1469
-20.0529
-19.9666
-19.8809
-19.7821
-19.689
-19.6191
-19.585
-19.5715
-19.5541
-19.5789
-19.6249
-19.6404
-19.7407
-20.0281
-20.732
-21.829
-23.414
-25.8882
-28.4571
-29.8243
-30.2293
-30.1797
-29.9863
-29.7897
-29.6445
-29.5693
-31.0379
-30.5049
-29.7995
-28.7584
-27.7609
-27.1267
-26.5301
-26.0332
-25.8113
-25.6451
-25.4998
-25.182
-24.8517
-24.5657
-24.0901
-23.627
-23.3742
-23.1179
-22.8994
-22.8383
-22.7955
-22.7514
-22.5827
-22.3994
-22.2441
-21.9722
-21.7194
-21.6178
-21.5469
-21.4837
-21.3247
-21.1541
-21.003
-20.7567
-20.513
-20.3629
-20.2104
-20.069
-19.9803
-19.8938
-19.8064
-19.6934
-19.5841
-19.5002
-19.4608
-19.4425
-19.3986
-19.4116
-19.4452
-19.3908
-19.4157
-19.6098
-20.3184
-21.433
-23.046
-25.9739
-29.1321
-30.5521
-30.7931
-30.5777
-30.2675
-29.9982
-29.8119
-29.7182
-31.5301
-30.8592
-30.1106
-28.8767
-27.7166
-27.116
-26.4785
-25.9259
-25.7686
-25.6386
-25.5571
-25.2006
-24.8515
-24.6129
-24.0626
-23.5257
-23.3164
-23.048
-22.8021
-22.7893
-22.774
-22.7738
-22.58
-22.384
-22.2586
-21.9389
-21.6413
-21.5722
-21.5212
-21.4924
-21.3129
-21.1312
-21.0022
-20.7185
-20.438
-20.3044
-20.1443
-19.9885
-19.9106
-19.8243
-19.738
-19.6081
-19.4808
-19.3814
-19.3396
-19.3219
-19.2433
-19.2493
-19.2834
-19.143
-19.0853
-19.1506
-19.8759
-20.9965
-22.5432
-26.0296
-29.977
-31.3839
-31.3851
-30.9695
-30.5318
-30.1881
-29.9613
-29.8498
-32.0714
-31.2065
-30.4589
-28.9822
-27.6156
-27.1094
-26.42
-25.7818
-25.7248
-25.6273
-25.6408
-25.2176
-24.8398
-24.6907
-24.0349
-23.3946
-23.2672
-22.9788
-22.6846
-22.7426
-22.7519
-22.8155
-22.5778
-22.3618
-22.2927
-21.9048
-21.5427
-21.5267
-21.4945
-21.5165
-21.3018
-21.1039
-21.0176
-20.6815
-20.3509
-20.2511
-20.0806
-19.9033
-19.8447
-19.7578
-19.6772
-19.5263
-19.3791
-19.2618
-19.2211
-19.213
-19.0859
-19.0912
-19.1468
-18.8973
-18.7562
-18.642
-19.4109
-20.5338
-21.8589
-26.0347
-31.0517
-32.3275
-31.9955
-31.3466
-30.7747
-30.3574
-30.092
-29.9639
-32.6723
-31.5278
-30.8619
-29.0725
-27.4365
-27.1205
-26.3591
-25.5882
-25.6866
-25.606
-25.7626
-25.2296
-24.8068
-24.8136
-24.007
-23.2201
-23.2355
-22.9131
-22.5385
-22.7025
-22.7257
-22.8843
-22.5736
-22.3266
-22.3559
-21.8696
-21.4153
-21.4848
-21.4638
-21.5623
-21.2896
-21.0671
-21.0563
-20.6457
-20.2454
-20.2069
-20.0203
-19.8105
-19.7845
-19.6936
-19.6258
-19.4477
-19.279
-19.14
-19.1048
-19.1202
-18.9228
-18.9351
-19.0455
-18.652
-18.4385
-18.0708
-18.9318
-20.071
-20.9309
-25.9592
-32.4383
-33.3851
-32.6102
-31.7001
-30.9921
-30.5046
-30.2037
-30.0606
-33.3475
-31.7937
-31.3458
-29.1454
-27.1496
-27.1698
-26.3016
-25.3269
-25.6656
-25.565
-25.9395
-25.2315
-24.7377
-25.0024
-23.9785
-22.9829
-23.2347
-22.8548
-22.3516
-22.6765
-22.689
-22.9913
-22.564
-22.2688
-22.4615
-21.8332
-21.2476
-21.4525
-21.4241
-21.6386
-21.2737
-21.0135
-21.1284
-20.6106
-20.113
-20.1776
-19.9646
-19.7056
-19.7325
-19.6302
-19.5863
-19.3717
-19.1807
-19.0145
-18.9891
-19.05
-18.7483
-18.7774
-18.9927
-18.4017
-18.148
-17.4167
-18.449
-19.6519
-19.6777
-25.7602
-34.2496
-34.5487
-33.2103
-32.0205
-31.1806
-30.6289
-30.2966
-30.1405
-34.118
-31.9598
-31.949
-29.1986
-26.7136
-27.2879
-26.255
-24.9718
-25.6805
-25.4879
-26.1955
-25.2162
-24.6109
-25.2861
-23.949
-22.6562
-23.2844
-22.809
-22.1065
-22.6766
-22.6308
-23.1521
-22.5444
-22.1744
-22.6281
-21.7951
-21.024
-21.4405
-21.3671
-21.7582
-21.2502
-20.9322
-21.248
-20.5755
-19.9413
-20.1718
-19.9152
-19.5825
-19.6932
-19.565
-19.5623
-19.2972
-19.0848
-18.8831
-18.8715
-19.012
-18.5551
-18.6116
-19.0068
-18.1354
-17.9081
-16.6496
-17.9732
-19.3444
-17.9932
-25.3771
-36.6388
-35.7944
-33.7728
-32.2988
-31.3377
-30.7301
-30.3713
-30.2042
-35.0134
-31.9619
-32.7266
-29.23
-26.0723
-27.5184
-26.2287
-24.4861
-25.7605
-25.3485
-26.564
-25.1742
-24.396
-25.7049
-23.9177
-22.203
-23.4128
-22.7819
-21.7791
-22.7218
-22.534
-23.3888
-22.5083
-22.0238
-22.8818
-21.7541
-20.7232
-21.465
-21.2789
-21.9386
-21.2141
-20.8081
-21.4349
-20.5391
-19.7138
-20.2019
-19.8735
-19.4322
-19.6731
-19.4936
-19.5586
-19.2222
-18.9922
-18.7437
-18.7481
-19.0193
-18.3326
-18.4284
-19.1131
-17.8338
-17.7539
-15.7267
-17.5145
-19.2486
-15.7411
-24.7268
-39.8116
-37.0738
-34.2709
-32.5273
-31.4618
-30.8084
-30.4284
-30.2528
-36.0745
-31.7087
-33.7558
-29.2372
-25.1503
-27.9219
-26.2339
-23.8195
-25.9498
-25.1065
-27.091
-25.0932
-24.0507
-26.313
-23.8828
-21.5737
-23.6589
-22.781
-21.3357
-22.8408
-22.372
-23.7315
-22.4474
-21.7898
-23.2574
-21.7084
-20.3171
-21.5509
-21.1385
-22.2042
-21.1585
-20.6205
-21.7158
-20.4998
-19.4083
-20.2855
-19.8414
-19.243
-19.682
-19.409
-19.5821
-19.1434
-18.9051
-18.5934
-18.6123
-19.0906
-18.0674
-18.2139
-19.3465
-17.4654
-17.7365
-14.5883
-17.0795
-19.507
-12.7487
-23.6962
-44.0416
-38.3039
-34.6764
-32.7001
-31.5526
-30.8648
-30.4692
-30.2873
-37.3573
-31.0741
-35.1426
-29.2176
-23.848
-28.5809
-26.2835
-22.9034
-26.3128
-24.7023
-27.8393
-24.9573
-23.5181
-27.1823
-23.8422
-20.7024
-24.0761
-22.8154
-20.7311
-23.0756
-22.1056
-24.2217
-22.3509
-21.4357
-23.8015
-21.6553
-19.768
-21.7344
-20.9145
-22.5881
-21.0746
-20.3411
-22.1264
-20.4548
-18.9956
-20.4466
-19.8203
-18.9985
-19.7341
-19.301
-19.6421
-19.056
-18.8263
-18.4295
-18.4545
-19.2508
-17.742
-17.9484
-19.7545
-16.9816
-17.9291
-13.1537
-16.6676
-20.3161
-8.79983
-22.1345
-49.6873
-39.3534
-34.9627
-32.8141
-31.611
-30.9007
-30.4949
-30.309
-38.9366
-29.8874
-37.029
-29.1675
-22.0357
-29.605
-26.3917
-21.6463
-26.9406
-24.0499
-28.8922
-24.7462
-22.7226
-28.4066
-23.7921
-19.5036
-24.7343
-22.8941
-19.9041
-23.4852
-21.6777
-24.9133
-22.2048
-20.9134
-24.5756
-21.59
-19.0258
-22.0645
-20.5599
-23.133
-20.9502
-19.9325
-22.7127
-20.3996
-18.4374
-20.7167
-19.8109
-18.6772
-19.8493
-19.1542
-19.7515
-18.9523
-18.7601
-18.2487
-18.2602
-19.5332
-17.3347
-17.6049
-20.4013
-16.3108
-18.4335
-11.3166
-16.2664
-21.9388
-3.62764
-19.8438
-57.2126
-40.027
-35.1104
-32.8699
-31.6391
-30.9178
-30.5072
-30.3194
)
;

boundaryField
{
    left
    {
        type            calculated;
        value           nonuniform List<scalar> 
32
(
-26.4237
-26.446
-26.4887
-26.55
-26.6284
-26.723
-26.8331
-26.9584
-27.0986
-27.254
-27.4246
-27.6111
-27.814
-28.0343
-28.273
-28.5312
-28.8104
-29.1122
-29.4384
-29.7912
-30.1732
-30.5874
-31.0379
-31.5301
-32.0714
-32.6723
-33.3475
-34.118
-35.0134
-36.0745
-37.3573
-38.9366
)
;
    }
    right
    {
        type            calculated;
        value           nonuniform List<scalar> 
32
(
-25.7943
-25.829
-25.895
-25.9889
-26.1079
-26.2493
-26.4108
-26.5901
-26.7849
-26.9928
-27.2115
-27.4383
-27.6706
-27.9057
-28.1408
-28.373
-28.5998
-28.8185
-29.0267
-29.2223
-29.4037
-29.5693
-29.7182
-29.8498
-29.9639
-30.0606
-30.1405
-30.2042
-30.2528
-30.2873
-30.309
-30.3194
)
;
    }
    interface
    {
        type            calculated;
        value           nonuniform List<scalar> 
64
(
-39.8112
-29.1316
-38.1174
-29.1343
-20.9837
-30.2238
-26.4622
-20.9195
-27.334
-23.649
-29.5066
-24.6191
-22.2485
-29.1207
-23.7641
-18.8101
-25.1336
-22.9457
-19.4262
-23.7421
-21.4148
-25.3171
-22.1175
-20.6035
-25.0288
-21.5537
-18.5992
-22.2732
-20.3428
-23.4516
-20.8761
-19.6906
-23.0563
-20.3687
-18.1164
-20.8835
-19.8091
-18.4942
-19.9255
-19.0689
-19.8203
-18.8952
-18.7306
-18.1536
-18.1518
-19.7097
-17.1075
-17.4097
-20.7936
-15.918
-18.7784
-10.2823
-16.066
-22.991
-0.698938
-18.488
-61.5104
-40.2408
-35.1478
-32.8835
-31.646
-30.9219
-30.5101
-30.322
)
;
    }
    bottom
    {
        type            calculated;
        value           nonuniform List<scalar> 
64
(
-26.4179
-26.3905
-26.3364
-26.2572
-26.1549
-26.0321
-25.8914
-25.7357
-25.5677
-25.39
-25.205
-25.0148
-24.8213
-24.6263
-24.4312
-24.2374
-24.046
-23.8578
-23.6738
-23.4943
-23.32
-23.1512
-22.988
-22.8308
-22.6798
-22.5353
-22.3975
-22.2668
-22.1435
-22.0281
-21.9213
-21.8236
-21.7357
-21.6586
-21.5931
-21.5402
-21.5012
-21.477
-21.4691
-21.4785
-21.5065
-21.5545
-21.6236
-21.715
-21.8296
-21.968
-22.1308
-22.3178
-22.5283
-22.7609
-23.0131
-23.2819
-23.5628
-23.8506
-24.1394
-24.4227
-24.6936
-24.9458
-25.1732
-25.3704
-25.5332
-25.6581
-25.7426
-25.7853
)
;
    }
    defaultFaces
    {
        type            empty;
    }
}


// ************************************************************************* //
