/*--------------------------------*- C++ -*----------------------------------*\
| =========                 |                                                 |
| \\      /  F ield         | OpenFOAM: The Open Source CFD Toolbox           |
|  \\    /   O peration     | Version:  5.x                                   |
|   \\  /    A nd           | Web:      www.OpenFOAM.org                      |
|    \\/     M anipulation  |                                                 |
\*---------------------------------------------------------------------------*/
FoamFile
{
    version     2.0;
    format      ascii;
    class       volScalarField;
    location    "10.5";
    object      gradTy;
}
// * * * * * * * * * * * * * * * * * * * * * * * * * * * * * * * * * * * * * //

dimensions      [0 -1 0 1 0 0 0];

internalField   nonuniform List<scalar> 
6300
(
32284.1
32252.2
32220.2
32188.1
32155.7
32123
32089.9
32056.4
32022.4
31987.9
31952.8
31917.2
31880.9
31844
31806.6
0.0534031
0.159711
0.264489
0.366605
0.464767
0.557483
0.643038
0.719517
0.784869
0.837028
0.874107
0.894642
0.897883
0.884067
0.854612
0.0895589
0.267884
0.443773
0.6154
0.78066
0.937084
1.0818
1.21153
1.32273
1.41174
1.47515
1.51019
1.51531
1.49071
1.43872
0.126507
0.378494
0.627314
0.870557
1.10538
1.32838
1.53551
1.72205
1.88274
2.01202
2.1045
2.15559
2.16241
2.12465
2.0455
0.164479
0.492269
0.816427
1.13412
1.44191
1.73554
2.00978
2.25838
2.4741
2.64903
2.77514
2.84518
2.85396
2.79987
2.68652
0.203619
0.609669
1.012
1.40757
1.79257
2.16204
2.50966
2.82753
3.10618
3.33477
3.50174
3.5959
3.60822
3.53422
3.37677
0.243944
0.730788
1.2143
1.69159
2.15873
2.61036
3.03922
3.43582
3.78821
4.08203
4.30102
4.42832
4.44868
4.35186
4.13744
0.28531
0.85523
1.42282
1.98572
2.54037
3.08139
3.60096
4.08823
4.52871
4.90397
5.19185
5.36757
5.40618
5.28701
5.00074
0.327374
0.981997
1.636
2.28809
2.93561
3.57379
4.19492
4.78733
5.3343
5.81317
6.19475
6.44387
6.52146
6.38931
6.01865
0.369557
1.10938
1.85106
2.59499
3.34013
4.08319
4.81753
5.53175
6.2079
6.81957
7.33009
7.6917
7.84661
7.7303
7.27792
0.411034
1.23488
2.06386
2.90065
3.74668
4.60122
5.46017
6.31414
7.14592
7.9271
8.61436
9.14638
9.4431
9.4074
8.92233
0.450727
1.35524
2.26882
3.19704
4.14466
5.11479
6.1077
7.11866
8.13451
9.12861
10.054
10.8364
11.3716
11.5324
11.1682
0.487356
1.46653
2.45911
3.47402
4.52008
5.60553
6.73714
7.91824
9.14487
10.3989
11.6367
12.7733
13.6724
14.1753
14.2214
0.51952
1.56441
2.62704
3.71983
4.85606
6.05005
7.31706
8.67227
10.1279
11.6857
13.3206
14.9463
16.3626
17.2529
17.6807
0.545831
1.64455
2.7648
3.92218
5.13424
6.42153
7.80875
9.32592
11.0088
12.8958
15.0137
17.326
19.5651
20.7399
18.0043
31771.7
31739.7
31707.3
31674.5
31641.4
31608.1
31574.4
31540.6
31506.5
31472.1
31437.7
31403
31368.2
31333.3
31298.3
31263.3
31228.2
31193.1
31158
31123
31087.9
31052.9
31017.9
30983
30948.1
30913.3
30878.5
30843.8
30809.1
30774.5
30739.9
30705.5
30671.1
30636.9
30602.7
30568.7
30534.7
30500.9
30467.2
30433.5
30400
30366.5
30333.1
30299.9
30266.7
30233.6
30200.6
30167.7
30135
30102.3
30069.8
30037.4
30005.1
29972.9
29940.8
29908.8
29876.8
29845
29813.2
29781.6
29750
29718.5
29687.1
29655.8
29624.7
29593.6
29562.6
29531.7
29501
29470.2
29439.6
29409
29378.5
29348
29317.6
29287.3
29257
29226.8
29196.7
29166.6
29136.5
29106.5
29076.5
29046.4
29016.4
28986.3
28956.1
28925.8
28895.4
28865
0.815668
0.773472
0.726762
0.677749
0.62828
0.579593
0.532182
0.485819
0.439733
0.392898
0.344377
0.293649
0.240844
0.186845
0.133218
0.0819975
0.0353495
-0.00480594
-0.0371426
-0.0611763
-0.0773672
-0.0870622
-0.0922903
-0.0954481
-0.0989266
-0.10474
-0.114216
-0.127796
-0.144988
-0.16447
-0.184347
-0.202503
-0.216994
-0.2264
-0.230078
-0.228273
-0.222068
-0.213199
-0.203762
-0.195857
-0.19124
-0.191033
-0.195531
-0.204161
-0.215577
-0.227905
-0.239077
-0.247195
-0.250872
-0.249461
-0.243165
-0.232985
-0.220543
-0.207802
-0.196733
-0.188981
-0.185589
-0.186816
-0.192097
-0.200136
-0.209135
-0.21711
-0.222241
-0.223186
-0.219309
-0.210773
-0.198491
-0.183959
-0.16898
-0.15534
-0.144489
-0.137266
-0.13372
-0.133063
-0.133758
-0.133738
-0.130718
-0.122555
-0.107591
-0.0849248
-0.0545865
-0.0175911
0.0241205
0.0678442
0.11036
0.148249
0.178246
0.197614
0.204478
0.19807
1.37021
1.29627
1.2149
1.13028
1.04587
0.963941
0.88528
0.809233
0.734049
0.657472
0.577426
0.492665
0.403253
0.310763
0.218156
0.129349
0.0485541
-0.020476
-0.0751382
-0.114462
-0.139307
-0.152241
-0.157147
-0.158611
-0.161208
-0.168788
-0.183876
-0.207292
-0.238041
-0.273518
-0.310003
-0.343349
-0.369755
-0.386452
-0.392196
-0.387465
-0.374366
-0.356259
-0.337194
-0.321228
-0.311754
-0.310937
-0.319348
-0.335864
-0.357865
-0.381697
-0.403326
-0.419062
-0.426214
-0.423544
-0.411461
-0.391917
-0.368062
-0.343698
-0.322637
-0.308063
-0.301993
-0.304936
-0.315794
-0.332048
-0.350196
-0.366377
-0.377057
-0.379644
-0.372926
-0.357245
-0.334403
-0.307322
-0.279518
-0.254486
-0.235072
-0.222956
-0.2183
-0.219648
-0.224093
-0.227687
-0.226057
-0.215087
-0.191575
-0.153746
-0.101562
-0.0368088
0.0370192
0.11502
0.191327
0.259668
0.31402
0.349285
0.361946
0.350547
1.94145
1.82964
1.70763
1.58241
1.4598
1.34351
1.23456
1.13136
1.03034
0.92702
0.817249
0.698372
0.570093
0.434852
0.297624
0.165166
0.0448215
-0.0568319
-0.135216
-0.188595
-0.218394
-0.228978
-0.226956
-0.220139
-0.216311
-0.222018
-0.241542
-0.276226
-0.32428
-0.381112
-0.440175
-0.494187
-0.536492
-0.562275
-0.569394
-0.558706
-0.53387
-0.500697
-0.466161
-0.437248
-0.4198
-0.417552
-0.431488
-0.459664
-0.497515
-0.53866
-0.576058
-0.603287
-0.615696
-0.611182
-0.590496
-0.557054
-0.516312
-0.474835
-0.439198
-0.414895
-0.405418
-0.411657
-0.431719
-0.461229
-0.494087
-0.523565
-0.543523
-0.549499
-0.539447
-0.514028
-0.476419
-0.431723
-0.386065
-0.345539
-0.315146
-0.297902
-0.294231
-0.301775
-0.31565
-0.32916
-0.334845
-0.325677
-0.296174
-0.243238
-0.166635
-0.0690944
0.0439095
0.164636
0.283762
0.391235
0.477277
0.533509
0.554057
0.536455
2.53732
2.37755
2.20484
2.03063
1.86451
1.71239
1.57545
1.45025
1.32988
1.20581
1.07015
0.917599
0.746948
0.561793
0.370222
0.183536
0.0141744
-0.126695
-0.231302
-0.296682
-0.325148
-0.323865
-0.303671
-0.27736
-0.257682
-0.255354
-0.277376
-0.325907
-0.397879
-0.485495
-0.577622
-0.661883
-0.727021
-0.764974
-0.772234
-0.750319
-0.705383
-0.647097
-0.587032
-0.536757
-0.505961
-0.50086
-0.523127
-0.569533
-0.632421
-0.701021
-0.763432
-0.808856
-0.829549
-0.822106
-0.787901
-0.732703
-0.665621
-0.597563
-0.53944
-0.500378
-0.486213
-0.498474
-0.53404
-0.585589
-0.642846
-0.694461
-0.730125
-0.742434
-0.728099
-0.688363
-0.628641
-0.557508
-0.485222
-0.421999
-0.376287
-0.353301
-0.354014
-0.374784
-0.407733
-0.441901
-0.465021
-0.465551
-0.434515
-0.366811
-0.261858
-0.123646
0.0396794
0.216558
0.39298
0.553661
0.683463
0.769118
0.801106
0.775302
3.16776
2.94391
2.70402
2.467
2.24888
2.05924
1.8993
1.76209
1.63463
1.50124
1.34734
1.16285
0.944671
0.697963
0.435778
0.176958
-0.0575033
-0.248774
-0.383875
-0.457926
-0.474742
-0.445984
-0.389193
-0.325031
-0.274072
-0.253624
-0.275037
-0.341833
-0.448951
-0.583382
-0.726396
-0.857117
-0.9567
-1.01187
-1.01709
-0.975086
-0.89612
-0.796062
-0.693806
-0.608217
-0.555122
-0.544759
-0.580006
-0.655671
-0.759103
-0.872294
-0.975272
-1.05004
-1.08392
-1.07157
-1.01554
-0.925466
-0.816336
-0.705986
-0.612233
-0.550011
-0.528957
-0.551732
-0.613346
-0.70173
-0.799731
-0.888324
-0.950361
-0.973738
-0.953326
-0.891477
-0.797295
-0.684954
-0.57133
-0.473241
-0.404701
-0.374574
-0.384916
-0.430255
-0.498058
-0.570551
-0.627726
-0.650879
-0.625658
-0.544022
-0.404974
-0.214362
0.015934
0.269137
0.524867
0.760553
0.95322
1.08201
1.13137
1.09424
3.84676
3.5332
3.19888
2.87596
2.59205
2.36316
2.19021
2.05973
1.94778
1.82609
1.66852
1.45656
1.18345
0.856399
0.496479
0.1353
-0.191378
-0.451741
-0.624357
-0.701589
-0.689961
-0.608469
-0.48533
-0.35369
-0.246526
-0.191613
-0.207348
-0.299697
-0.460691
-0.668913
-0.892872
-1.09719
-1.25033
-1.33071
-1.32992
-1.25309
-1.11723
-0.948195
-0.776581
-0.632888
-0.542752
-0.522983
-0.578683
-0.701826
-0.871733
-1.05828
-1.22774
-1.3501
-1.40485
-1.38395
-1.2922
-1.14567
-0.968807
-0.790513
-0.639625
-0.540362
-0.508587
-0.549063
-0.654105
-0.804026
-0.970161
-1.12043
-1.22627
-1.2681
-1.23823
-1.14115
-0.992096
-0.814248
-0.635068
-0.481934
-0.377799
-0.337571
-0.36542
-0.453377
-0.581628
-0.721258
-0.839424
-0.905862
-0.898039
-0.803906
-0.622339
-0.36222
-0.0407978
0.318079
0.685617
1.02939
1.31496
1.50927
1.58621
1.53296
4.59672
4.15234
3.67725
3.22862
2.85583
2.58635
2.41983
2.33051
2.2748
2.2025
2.06793
1.83825
1.49985
1.06214
0.55898
0.0439497
-0.420749
-0.781065
-1.00219
-1.07321
-1.00579
-0.830923
-0.593711
-0.347102
-0.143739
-0.0278695
-0.0293347
-0.158713
-0.404423
-0.731784
-1.08763
-1.41096
-1.64874
-1.76643
-1.75227
-1.61609
-1.38611
-1.10405
-0.81915
-0.58044
-0.429054
-0.392535
-0.480246
-0.680643
-0.960409
-1.26886
-1.54801
-1.74755
-1.83471
-1.79835
-1.64773
-1.40958
-1.12334
-0.835578
-0.592677
-0.433533
-0.384179
-0.45342
-0.630241
-0.882972
-1.16344
-1.41652
-1.59435
-1.6657
-1.6199
-1.46567
-1.22836
-0.94546
-0.661299
-0.420067
-0.25887
-0.202539
-0.259366
-0.418476
-0.648813
-0.902874
-1.12561
-1.26778
-1.2947
-1.1897
-0.952819
-0.598354
-0.151464
0.354553
0.880582
1.38205
1.80813
2.10553
2.22852
2.15214
5.45794
4.81598
4.11774
3.47216
2.97082
2.66125
2.53819
2.55276
2.62559
2.66846
2.6042
2.37642
1.9592
1.36212
0.638547
-0.119889
-0.800437
-1.31082
-1.5962
-1.64418
-1.47633
-1.14316
-0.715624
-0.278241
0.0850375
0.304835
0.332873
0.149787
-0.230581
-0.753632
-1.32923
-1.84791
-2.22009
-2.39202
-2.35035
-2.11414
-1.72999
-1.26399
-0.795211
-0.40225
-0.149948
-0.0831985
-0.219546
-0.545169
-1.00778
-1.52164
-1.98294
-2.30683
-2.44245
-2.37726
-2.12932
-1.74274
-1.28005
-0.816051
-0.425122
-0.16861
-0.0889946
-0.202862
-0.497069
-0.921976
-1.39616
-1.82098
-2.11574
-2.23201
-2.1577
-1.90984
-1.53028
-1.07848
-0.625712
-0.242948
0.0110654
0.0954442
-0.00602596
-0.281008
-0.681832
-1.1296
-1.5278
-1.79565
-1.88135
-1.76537
-1.45262
-0.967578
-0.34727
0.362208
1.11091
1.84329
2.48658
2.95295
3.15792
3.04895
6.51017
5.56159
4.4833
3.50851
2.80973
2.46768
2.45842
2.69109
3.01943
3.28856
3.37584
3.18733
2.67747
1.84422
0.76829
-0.395901
-1.42517
-2.16458
-2.53208
-2.52593
-2.18493
-1.59128
-0.851717
-0.102669
0.520425
0.913674
0.999097
0.742372
0.148723
-0.699817
-1.65278
-2.49581
-3.07982
-3.32518
-3.22857
-2.82524
-2.19173
-1.42794
-0.662093
-0.0215144
0.39635
0.518595
0.313707
-0.212437
-0.98135
-1.85013
-2.61574
-3.13719
-3.33938
-3.21935
-2.81057
-2.18549
-1.43864
-0.691311
-0.06401
0.351042
0.484802
0.307384
-0.175691
-0.890022
-1.69997
-2.41271
-2.89417
-3.07277
-2.94541
-2.54366
-1.93621
-1.21292
-0.489314
0.119574
0.525275
0.66105
0.497172
0.0376754
-0.647246
-1.42772
-2.11768
-2.58581
-2.75843
-2.6244
-2.20053
-1.53158
-0.671481
0.313386
1.36474
2.43281
3.41982
4.17678
4.53939
4.38811
7.92345
6.49558
4.70236
3.14944
2.13515
1.79486
2.03035
2.69171
3.49852
4.17048
4.54454
4.46089
3.86138
2.67573
1.0251
-0.866218
-2.46731
-3.55391
-4.00599
-3.88987
-3.25734
-2.24953
-1.00147
0.254277
1.28679
1.96578
2.15801
1.82012
0.895068
-0.495629
-2.13465
-3.51672
-4.4272
-4.75077
-4.54847
-3.86782
-2.84107
-1.59487
-0.348589
0.679927
1.36834
1.59146
1.30956
0.469878
-0.811121
-2.32717
-3.60012
-4.42732
-4.70029
-4.47723
-3.80329
-2.8036
-1.59791
-0.393739
0.602737
1.27575
1.50669
1.25777
0.478694
-0.72038
-2.14377
-3.33747
-4.10875
-4.35408
-4.12826
-3.47367
-2.50895
-1.3478
-0.187724
0.774685
1.42818
1.65816
1.42606
0.680972
-0.475061
-1.85619
-3.02697
-3.80151
-4.07708
-3.90081
-3.30134
-2.37083
-1.17536
0.168827
1.59449
3.13905
4.68432
5.96849
6.66087
6.47126
10.0798
7.95358
4.57988
2.02265
0.491983
0.292745
0.988802
2.48282
4.17172
5.48133
6.37226
6.47723
5.88929
4.17675
1.6285
-1.75449
-4.25031
-5.85695
-6.29813
-5.99745
-4.87016
-3.25375
-1.16227
0.932676
2.56222
3.71883
4.0803
3.7434
2.31193
0.0661471
-2.98655
-5.2167
-6.61974
-6.93362
-6.55718
-5.40878
-3.80641
-1.76193
0.278496
1.87112
3.01033
3.39153
3.10864
1.78768
-0.302428
-3.15426
-5.22642
-6.51551
-6.77552
-6.38438
-5.2651
-3.71837
-1.75498
0.202903
1.73526
2.83704
3.21958
2.97158
1.73787
-0.227722
-2.91834
-4.87052
-6.08067
-6.31388
-5.92851
-4.85028
-3.36454
-1.48115
0.398512
1.87464
2.94094
3.32066
3.09366
1.91603
0.0212662
-2.58756
-4.50687
-5.73571
-6.04636
-5.78664
-4.87884
-3.59163
-1.89338
-0.0930604
1.65305
3.84427
6.32482
8.61237
10.0524
9.91424
13.8387
11.1698
3.26791
-0.561259
-3.05647
-2.49515
-1.20093
1.99352
5.39112
7.39501
9.33171
9.49127
9.53657
6.88116
3.43386
-3.92028
-7.31376
-9.83826
-9.65854
-9.29536
-7.1873
-4.94208
-1.32808
2.28126
4.51867
6.61687
7.00822
7.24285
4.90141
1.78987
-5.0229
-8.10774
-10.3807
-10.1105
-9.67753
-7.60347
-5.40841
-1.92315
1.55041
3.71521
5.74385
6.14791
6.40251
4.21305
1.30315
-5.1041
-7.98032
-10.0856
-9.78838
-9.34006
-7.34244
-5.23314
-1.90411
1.41229
3.48782
5.43403
5.84047
6.10477
4.05098
1.30896
-4.75624
-7.47213
-9.45935
-9.16445
-8.72647
-6.81372
-4.79275
-1.60913
1.56585
3.56473
5.44239
5.85683
6.13018
4.18375
1.54585
-4.31181
-6.98107
-8.99208
-8.83699
-8.60569
-7.00268
-5.40433
-2.7584
-0.276877
1.07064
4.13285
8.24323
12.4766
15.7167
16.187
20.7954
21.6799
-4.12776
-5.10245
-11.0031
-6.33658
-6.12639
1.21186
8.61747
9.40541
14.8502
12.6698
17.0728
10.7258
10.8651
-11.7894
-11.6286
-17.7137
-13.2831
-15.1059
-9.70196
-8.60145
-1.48718
5.60541
6.6756
11.9728
10.1618
14.4519
8.59985
8.84334
-12.4275
-12.1679
-17.8037
-13.5219
-15.161
-9.97241
-8.86827
-2.06754
4.70694
5.75538
10.8168
9.11951
13.2158
7.67585
7.94489
-12.1386
-11.8444
-17.1154
-13.0188
-14.5267
-9.58061
-8.5043
-2.03509
4.40853
5.42661
10.2483
8.66601
12.576
7.35512
7.63102
-11.4171
-11.123
-16.1243
-12.2211
-13.6481
-8.93299
-7.89516
-1.72467
4.42676
5.42937
10.0509
8.59617
12.3632
7.44718
7.70688
-10.6274
-10.4031
-15.3676
-11.7374
-13.4
-9.11984
-8.72552
-3.38666
1.17227
-1.98091
2.91208
9.98453
17.7712
25.3694
29.6208
30.2307
70.5919
-47.3099
-2.57581
-34.1767
-3.76344
-21.3169
0.333155
21.3734
4.71015
31.349
6.36816
40.0893
5.2303
51.1194
-52.5127
-6.94911
-40.7316
-7.90283
-31.323
-6.01966
-20.9206
-1.61502
17.6018
2.74569
27.5644
4.53002
36.2654
3.52079
46.8775
-50.8358
-7.73883
-39.5078
-8.40728
-30.4765
-6.45966
-20.5312
-2.17413
16.109
2.01692
25.6222
3.7484
33.9053
2.77373
43.8943
-48.5171
-7.69436
-37.6344
-8.17885
-29.0071
-6.24625
-19.5412
-2.12919
15.2175
1.88826
24.2842
3.5827
32.1958
2.74389
41.7797
-45.9309
-7.1485
-35.6117
-7.60211
-27.4144
-5.75699
-18.3886
-1.81274
14.702
2.0828
23.4091
3.81625
31.0997
3.25761
40.6432
-43.6671
-6.35337
-34.1197
-7.01596
-26.7518
-5.64143
-19.1668
-2.89182
13.7268
-16.6189
-1.44714
10.6974
23.337
39.8417
66.3967
28831.4
28794.6
28757.7
28720.8
28683.8
28646.9
28610
28573.2
28536.4
28499.8
28463.3
28426.9
28390.6
28354.3
28318.1
0.176919
0.137939
0.0877586
0.0321307
-0.023091
-0.072749
-0.112894
-0.140991
-0.155883
-0.157597
-0.147082
-0.125949
-0.0962452
-0.0602825
-0.0205187
0.312472
0.242307
0.152313
0.0531239
-0.0446246
-0.131768
-0.201492
-0.249612
-0.274412
-0.276223
-0.256917
-0.219427
-0.167357
-0.104691
-0.0356123
0.476652
0.366504
0.226062
0.0726763
-0.0767628
-0.208207
-0.311694
-0.381554
-0.415931
-0.415966
-0.384935
-0.327486
-0.249064
-0.155514
-0.0528514
0.685742
0.520995
0.312757
0.0882822
-0.126895
-0.312604
-0.455523
-0.54898
-0.59179
-0.586775
-0.539371
-0.456519
-0.345899
-0.215447
-0.0731313
0.961878
0.718978
0.415688
0.0945914
-0.206496
-0.459789
-0.648813
-0.767052
-0.815475
-0.799974
-0.729252
-0.613322
-0.462564
-0.287246
-0.0973576
1.33653
0.977352
0.536426
0.0808919
-0.333889
-0.671244
-0.912888
-1.05494
-1.10308
-1.06839
-0.964343
-0.804951
-0.603788
-0.373617
-0.12641
1.85606
1.31748
0.671774
0.0264401
-0.538708
-0.978409
-1.27655
-1.43674
-1.47352
-1.40617
-1.25478
-1.03835
-0.774019
-0.477022
-0.161076
2.59118
1.76472
0.806753
-0.108196
-0.868974
-1.42713
-1.77818
-1.94193
-1.9481
-1.82797
-1.61025
-1.31966
-0.976914
-0.599377
-0.201948
3.65337
2.34348
0.898713
-0.397001
-1.40186
-2.08294
-2.46712
-2.60469
-2.54899
-2.34737
-2.03859
-1.65311
-1.2146
-0.741623
-0.249287
5.22392
3.05711
0.841621
-0.976657
-2.25854
-3.03566
-3.40266
-3.46073
-3.29579
-2.97394
-2.54363
-2.03961
-1.48676
-0.903227
-0.302862
7.60055
3.81943
0.387318
-2.09271
-3.61997
-4.39849
-4.64714
-4.53977
-4.19949
-3.70896
-3.12237
-2.47492
-1.7896
-1.08167
-0.361796
11.2343
4.23275
-1.01907
-4.16153
-5.73013
-6.2912
-6.24764
-5.85173
-5.25343
-4.54005
-3.76196
-2.94812
-2.11504
-1.27204
-0.424455
16.4665
2.89636
-4.53481
-7.80421
-8.84782
-8.78852
-8.2005
-7.36607
-6.42246
-5.43583
-4.43732
-3.44057
-2.45038
-1.46701
-0.488436
20.9186
-4.57897
-12.2123
-13.6727
-13.0684
-11.8146
-10.3998
-8.98958
-7.63451
-6.3435
-5.11091
-3.92646
-2.7789
-1.65718
-0.550713
0.564058
1.70004
2.86011
4.06208
5.3266
6.67901
8.1518
9.78848
11.6492
13.8184
16.4135
19.5747
23.3401
26.8573
23.8944
0.574637
1.73213
2.91487
4.14164
5.43463
6.82159
8.33934
10.0395
11.9989
14.3395
17.271
21.1974
27.0288
37.2643
60.3584
0.579509
1.74671
2.93904
4.17524
5.47742
6.87337
8.40018
10.1105
12.084
14.4504
17.4395
21.5056
27.6781
38.6882
62.9831
0.578698
1.74385
2.93277
4.16303
5.4551
6.83428
8.33359
9.99868
11.8961
14.1284
16.8602
20.3591
25.0176
31.0658
36.0373
0.572502
1.72449
2.89781
4.10792
5.37234
6.7118
8.15192
9.72547
11.4755
13.4588
15.7462
18.4046
21.4112
24.3733
26.0731
0.561457
1.69034
2.83732
4.01513
5.23749
6.51946
7.87762
9.32972
10.8929
12.5778
14.3727
16.2011
17.8192
18.5823
16.9484
0.54627
1.64362
2.75544
3.89144
5.06131
6.27428
7.53813
8.85688
10.2257
11.6205
12.9757
14.1419
14.8117
14.452
12.6555
0.527746
1.58687
2.65678
3.74427
4.85524
5.99382
7.16061
8.34931
9.54058
10.6906
11.7101
12.4275
12.5164
11.3182
7.12044
0.506701
1.52263
2.54595
3.58082
4.63004
5.69386
6.76795
7.84004
8.88414
9.85117
10.6544
11.1495
11.1143
10.2669
8.5596
0.483903
1.45327
2.42709
3.40743
4.39476
5.38682
6.37677
7.35031
8.28132
9.12555
9.8127
10.2397
10.2761
9.81272
8.92253
0.460019
1.38083
2.30373
3.2292
4.15622
5.08132
5.99708
6.89023
7.73888
8.50911
9.15171
9.6013
9.78484
9.65493
9.28084
0.435597
1.30695
2.17858
3.0499
3.91907
4.78233
5.63315
6.46114
7.25099
7.98143
8.62485
9.14776
9.51136
9.6668
9.52664
0.411061
1.23289
2.05366
2.8721
3.68603
4.49203
5.28512
6.05862
6.80445
7.51429
8.18178
8.80495
9.38256
9.88404
10.1638
0.386729
1.15956
1.93036
2.69743
3.4585
4.21072
4.95074
5.67536
6.38298
7.07663
7.76959
8.4939
9.30674
10.2554
11.0646
0.362838
1.08762
1.80967
2.52693
3.23714
3.93788
4.62707
5.30395
5.97125
6.63951
7.3357
8.12144
9.13668
10.7237
13.848
0.339563
1.01759
1.69229
2.36133
3.02234
3.67308
4.31196
4.9392
5.55888
6.18304
6.83966
7.58966
8.56964
10.1244
13.317
0.317051
0.949874
1.57884
2.20132
2.81468
3.4165
4.00495
4.57972
5.14341
5.70405
6.2788
6.89821
7.60348
8.38783
8.78114
0.295426
0.884835
1.46989
2.04763
2.61504
3.16919
3.70746
4.22793
4.73005
5.21527
5.68695
6.14714
6.58243
6.92283
6.98914
0.274804
0.822818
1.36602
1.9011
2.4246
2.93292
3.42231
3.88888
4.32845
4.73589
5.10309
5.41336
5.62729
5.64819
5.22499
0.255286
0.764141
1.2678
1.76261
2.24471
2.70979
3.15301
3.56858
3.94915
4.28444
4.55876
4.74649
4.80621
4.68194
4.36598
0.236961
0.709075
1.1757
1.63296
2.07662
2.50184
2.9029
3.27259
3.60128
3.87534
4.07456
4.16851
4.11288
3.84882
3.29351
0.219891
0.657819
1.09011
1.51276
1.92132
2.31067
2.67458
3.00506
3.29134
3.5182
3.66346
3.69441
3.56429
3.21794
2.67507
0.204108
0.610475
1.01122
1.40233
1.77937
2.13717
2.46947
2.76822
3.02266
3.21773
3.33175
3.33216
3.16584
2.72352
1.66037
0.18961
0.567035
0.939012
1.30167
1.65076
1.98138
2.28765
2.56216
2.79519
2.97355
3.07891
3.08569
2.95907
2.66022
2.21345
0.176357
0.527378
0.873273
1.21044
1.53498
1.8425
2.12788
2.38489
2.60568
2.78004
2.89454
2.93184
2.8719
2.69963
2.42576
0.164278
0.491281
0.813595
1.12798
1.43101
1.71899
1.98781
2.23278
2.44842
2.62811
2.76376
2.84553
2.86272
2.8096
2.71227
0.153277
0.45844
0.759422
1.0534
1.33749
1.60878
1.86429
2.10104
2.31612
2.50676
2.67038
2.80406
2.90236
2.95027
2.90044
0.143241
0.428503
0.710113
0.985674
1.25287
1.50953
1.7538
1.98435
2.20077
2.40417
2.5978
2.78715
2.97699
3.15881
3.28463
0.134053
0.401102
0.665004
0.923761
1.17555
1.41888
1.65283
1.87746
2.09447
2.30837
2.5282
2.76989
3.05719
3.40622
3.70385
0.125599
0.375885
0.623468
0.866683
1.10411
1.33475
1.55834
1.77585
1.99033
2.20845
2.44339
2.72096
3.09452
3.68933
4.85968
0.11778
0.352544
0.584964
0.813626
1.03738
1.25551
1.46808
1.67635
1.88365
2.09684
2.32899
2.60536
2.97819
3.57276
4.76079
0.110512
0.33083
0.549069
0.763978
0.974543
1.18014
1.38079
1.57751
1.7729
1.97205
2.18389
2.42276
2.70788
3.04404
3.28214
0.103735
0.310561
0.515485
0.717345
0.915155
1.10821
1.29623
1.47959
1.65952
1.83845
2.02001
2.20806
2.40211
2.58343
2.69635
0.0974047
0.291611
0.484029
0.673526
0.859069
1.03977
1.21492
1.38404
1.54684
1.70302
1.85162
1.98918
2.10517
2.17032
2.10289
0.0914929
0.273905
0.4546
0.632451
0.806346
0.975177
1.13779
1.29289
1.43876
1.57287
1.69088
1.78529
1.84353
1.84928
1.80626
0.0859796
0.25739
0.427146
0.594123
0.75714
0.914903
1.06589
1.20813
1.33886
1.45387
1.54655
1.6065
1.61835
1.56211
1.41142
0.0808475
0.242023
0.401623
0.558545
0.711583
0.859335
1.00005
1.13137
1.24987
1.35039
1.42494
1.46111
1.44044
1.34052
1.17142
0.0760766
0.227749
0.377959
0.525665
0.669696
0.808653
0.940743
1.0635
1.17336
1.26495
1.32998
1.3552
1.31758
1.16697
0.740097
0.0716397
0.21449
0.356035
0.495336
0.631331
0.76274
0.887914
1.00459
1.10954
1.19796
1.26267
1.29291
1.27319
1.18527
1.04025
0.0675005
0.202138
0.335669
0.467304
0.596152
0.721158
0.840984
0.953836
1.0572
1.14744
1.21929
1.26533
1.27616
1.24321
1.16623
0.063614
0.190554
0.316622
0.441205
0.563641
0.683174
0.798897
0.909668
1.01396
1.10968
1.19383
1.26222
1.30951
1.33174
1.34025
0.0599275
0.179576
0.298604
0.416599
0.533147
0.647834
0.760251
0.869998
0.976693
1.07996
1.17932
1.27375
1.36029
1.42979
1.45378
0.0563844
0.169028
0.281305
0.392999
0.503945
0.614072
0.723459
0.832448
0.941803
1.05295
1.16822
1.29077
1.42289
1.55945
1.67525
0.0529283
0.158736
0.264411
0.369917
0.475314
0.580824
0.686946
0.794645
0.90567
1.02308
1.15208
1.30115
1.48242
1.70352
1.90389
0.0495065
0.148536
0.247633
0.346912
0.446606
0.547152
0.649337
0.754533
0.865106
0.985161
1.12199
1.28917
1.51429
1.86199
2.51597
0.0460734
0.138289
0.230731
0.323621
0.417305
0.512342
0.60964
0.71069
0.817958
0.935598
1.07083
1.23696
1.46104
1.80776
2.46926
0.0425926
0.127885
0.213517
0.299778
0.387067
0.475963
0.567338
0.662529
0.763609
0.87382
0.998224
1.1445
1.32262
1.53496
1.70413
0.0390376
0.117246
0.195867
0.275223
0.355713
0.437864
0.522389
0.610281
0.702922
0.802188
0.910433
1.02992
1.16043
1.29214
1.39672
0.0353902
0.10632
0.177707
0.24988
0.323208
0.398117
0.475102
0.554737
0.637637
0.724323
0.814834
0.907705
0.997427
1.06816
1.07524
0.0316389
0.0950781
0.159002
0.223737
0.289607
0.356929
0.425977
0.496929
0.569724
0.643804
0.7176
0.787675
0.84761
0.888388
0.911104
0.0277758
0.0834995
0.139735
0.196805
0.255
0.314543
0.375533
0.437842
0.500923
0.563484
0.622954
0.674689
0.711102
0.721162
0.687184
0.0237933
0.071566
0.119888
0.169094
0.219458
0.271154
0.324176
0.378221
0.432484
0.485315
0.533683
0.572346
0.592898
0.584521
0.551534
0.0196816
0.0592514
0.0994292
0.140579
0.182993
0.226845
0.272109
0.318453
0.365042
0.41025
0.451153
0.482585
0.494789
0.464974
0.316437
0.0154266
0.046515
0.078296
0.111187
0.145533
0.181556
0.219296
0.258516
0.298563
0.338177
0.375204
0.406182
0.425862
0.427877
0.417688
0.0110086
0.0332981
0.0563927
0.080787
0.106908
0.135076
0.165459
0.198007
0.232387
0.267904
0.303459
0.337628
0.369208
0.39926
0.437163
0.00640157
0.0195228
0.0335876
0.0491891
0.0668633
0.0870613
0.110119
0.136229
0.165425
0.197609
0.23268
0.270878
0.313618
0.365195
0.435308
0.00157388
0.00509273
0.00971637
0.0161531
0.0250676
0.0370626
0.0526629
0.0723112
0.0963912
0.125315
0.159733
0.200979
0.251896
0.318265
0.411558
-0.00351129
-0.010104
-0.015413
-0.0186022
-0.0188654
-0.0154377
-0.00760177
0.00531877
0.0239975
0.0492081
0.0820487
0.124368
0.179451
0.252644
0.34902
-0.00889477
-0.0261915
-0.0420134
-0.055388
-0.0653598
-0.070997
-0.0713946
-0.0656691
-0.0529284
-0.0321925
-0.00221268
0.0389001
0.0944347
0.170931
0.285452
-0.0146202
-0.0433028
-0.0703123
-0.0945353
-0.114862
-0.130192
-0.139437
-0.141525
-0.135403
-0.120008
-0.0942
-0.0565767
-0.00513062
0.0628207
0.145166
-0.0207329
-0.0615753
-0.100545
-0.136387
-0.167833
-0.193611
-0.212446
-0.22308
-0.224312
-0.21505
-0.194387
-0.161646
-0.11615
-0.0552758
0.0384835
-0.0272782
-0.0811474
-0.13295
-0.181288
-0.224739
-0.26185
-0.291146
-0.311161
-0.320505
-0.318004
-0.302955
-0.275567
-0.237841
-0.196198
-0.174838
-0.0343003
-0.102154
-0.167759
-0.229582
-0.286046
-0.335513
-0.37629
-0.406649
-0.424918
-0.429668
-0.420087
-0.39666
-0.362243
-0.323026
-0.28394
-0.0418408
-0.124723
-0.205193
-0.281596
-0.352209
-0.41521
-0.468664
-0.510529
-0.538717
-0.55128
-0.546829
-0.52538
-0.48997
-0.449755
-0.428041
-0.0499362
-0.148966
-0.24545
-0.33763
-0.423656
-0.501534
-0.569084
-0.623903
-0.663362
-0.684704
-0.685371
-0.663788
-0.621029
-0.563627
-0.50421
-0.0586166
-0.174976
-0.288694
-0.397938
-0.500759
-0.595027
-0.678343
-0.747942
-0.800583
-0.83248
-0.839359
-0.816897
-0.762251
-0.678894
-0.592054
-0.0679036
-0.20282
-0.335044
-0.462703
-0.583801
-0.696123
-0.797125
-0.883753
-0.952207
-0.997627
-1.01372
-0.992352
-0.923406
-0.796575
-0.619536
-0.0778089
-0.232534
-0.384562
-0.532025
-0.672934
-0.805079
-0.925887
-1.03218
-1.11982
-1.18314
-1.21408
-1.20085
-1.12475
-0.949119
-0.562188
-0.0883339
-0.26412
-0.437249
-0.605898
-0.768151
-0.921905
-1.06472
-1.19356
-1.30433
-1.39112
-1.44513
-1.45298
-1.39523
-1.24839
-1.01695
-0.0994708
-0.297551
-0.493045
-0.684212
-0.869267
-1.04632
-1.21327
-1.3675
-1.50548
-1.62188
-1.70821
-1.75068
-1.72756
-1.60641
-1.33143
-0.111205
-0.332778
-0.551846
-0.766768
-0.975936
-1.17777
-1.37063
-1.55271
-1.7216
-1.87352
-2.00176
-2.09392
-2.12795
-2.07127
-1.91213
-0.123522
-0.369744
-0.613525
-0.853318
-1.0877
-1.31543
-1.53549
-1.74709
-1.94951
-2.14159
-2.32036
-2.47752
-2.59134
-2.60726
-2.38399
-0.136408
-0.408404
-0.677974
-0.943626
-1.20408
-1.45841
-1.70622
-1.94783
-2.18459
-2.41892
-2.65396
-2.89123
-3.12271
-3.30936
-3.35781
-0.149865
-0.448749
-0.745142
-1.03754
-1.32472
-1.60593
-1.88124
-2.15195
-2.42135
-2.69575
-2.986
-3.30895
-3.6852
-4.10742
-4.32271
-0.163908
-0.490824
-0.815084
-1.13508
-1.44949
-1.75756
-2.05945
-2.35697
-2.65463
-2.96158
-3.29532
-3.68967
-4.21575
-5.04918
-6.73469
-0.178575
-0.534742
-0.887988
-1.23649
-1.57867
-1.91346
-2.2407
-2.5619
-2.88145
-3.2088
-3.56253
-3.9789
-4.53286
-5.39922
-7.06025
-0.193926
-0.580688
-0.964186
-1.34229
-1.71298
-2.0746
-2.42614
-2.76797
-3.10285
-3.43771
-3.78625
-4.17258
-4.63302
-5.1974
-5.73457
-0.210034
-0.628901
-1.04413
-1.45322
-1.8536
-2.24273
-2.61833
-2.97886
-3.32427
-3.6571
-3.98373
-4.31479
-4.661
-5.01446
-5.30094
-0.226977
-0.679638
-1.12834
-1.57021
-2.00204
-2.42026
-2.82099
-3.20026
-3.55442
-3.88079
-4.17814
-4.44645
-4.68395
-4.87802
-4.98303
-0.244819
-0.733122
-1.2173
-1.69416
-2.15992
-2.60993
-3.03855
-3.43908
-3.80387
-4.12463
-4.39272
-4.59952
-4.73706
-4.80344
-4.8312
-0.263587
-0.789475
-1.31132
-1.82583
-2.32874
-2.81446
-3.27561
-3.70271
-4.08391
-4.40503
-4.64986
-4.80068
-4.83957
-4.75567
-4.58094
-0.283247
-0.848631
-1.41045
-1.96555
-2.5095
-3.03604
-3.53631
-3.99821
-4.40567
-4.73842
-4.97227
-5.07957
-5.02736
-4.77096
-4.31481
-0.303678
-0.91026
-1.51425
-2.113
-2.70236
-3.27585
-3.82368
-4.33151
-4.77931
-5.14049
-5.38255
-5.46923
-5.35694
-4.92497
-3.46771
-0.324646
-0.973687
-1.62169
-2.26698
-2.90623
-3.53348
-4.1388
-4.70651
-5.21309
-5.6253
-5.90073
-5.99706
-5.90852
-5.791
-6.4249
-0.345787
-1.03783
-1.73102
-2.42515
-3.11844
-3.80635
-4.48004
-5.12397
-5.7124
-6.20507
-6.54329
-6.65327
-6.48022
-6.13519
-6.45671
-0.366603
-1.10118
-1.83968
-2.58392
-3.33437
-4.08908
-4.84196
-5.57996
-6.27822
-6.89211
-7.34435
-7.50604
-7.17134
-6.01649
-3.39037
-0.386463
-1.16182
-1.94435
-2.73837
-3.54735
-4.37308
-5.21421
-6.06354
-6.90263
-7.69139
-8.34717
-8.70351
-8.43202
-6.91952
-3.20916
-0.404635
-1.21748
-2.04104
-2.88244
-3.7487
-4.64637
-5.58077
-6.55423
-7.56201
-8.58301
-9.55794
-10.337
-10.5545
-9.34883
-4.90849
-0.420326
-1.26569
-2.12533
-3.00925
-3.92824
-4.89415
-5.92021
-7.02109
-8.21219
-9.50661
-10.9048
-12.3604
-13.6653
-14.0245
-10.3416
-0.432747
-1.30399
-2.19275
-3.11172
-4.0752
-5.10016
-6.20769
-7.42529
-8.79062
-10.3582
-12.2116
-14.4885
-17.4329
-21.507
-27.5804
-11.3015
-25.7992
-24.381
-20.8214
-17.5157
-14.7447
-12.4245
-10.4391
-8.69639
-7.12938
-5.68979
-4.34207
-3.05909
-1.81909
-0.603695
-111.18
-57.9683
-37.4101
-27.256
-21.2028
-17.0876
-14.0207
-11.5776
-9.53104
-7.74859
-6.14718
-4.67129
-3.28147
-1.94778
-0.645832
-123.612
-67.4611
-43.2141
-30.8428
-23.5441
-18.7024
-15.1839
-12.4406
-10.1823
-8.24209
-6.51739
-4.94074
-3.46487
-2.05441
-0.68083
-67.9032
-54.7984
-40.7711
-30.9069
-24.179
-19.3985
-15.8086
-12.967
-10.6126
-8.58594
-6.78481
-5.14019
-3.60285
-2.13544
-0.707549
-47.9314
-42.7763
-35.4371
-28.7931
-23.4617
-19.2676
-15.9138
-13.1549
-10.8153
-8.77319
-6.94352
-5.26513
-3.69228
-2.18902
-0.725383
-30.4369
-32.2709
-29.6202
-25.7678
-21.9545
-18.5532
-15.6058
-13.0517
-10.8114
-8.81292
-6.99719
-5.31678
-3.73337
-2.21508
-0.734281
-22.4519
-24.88
-24.6378
-22.7152
-20.1614
-17.5235
-15.0247
-12.7305
-10.6395
-8.72576
-6.95688
-5.30107
-3.72924
-2.21511
-0.734679
-12.4736
-19.3435
-20.8224
-20.101
-18.4267
-16.3971
-14.3014
-12.2683
-10.3446
-8.53799
-6.83803
-5.22705
-3.68503
-2.19174
-0.727387
-15.049
-17.5506
-18.535
-18.1487
-16.9385
-15.3167
-13.5348
-11.7299
-9.96839
-8.27616
-6.6574
-5.10512
-3.60698
-2.14828
-0.713439
-15.7061
-16.8114
-17.1996
-16.7683
-15.7363
-14.3475
-12.7842
-11.1615
-9.54403
-7.9633
-6.43061
-4.9456
-3.50154
-2.08826
-0.693957