/*--------------------------------*- C++ -*----------------------------------*\
| =========                 |                                                 |
| \\      /  F ield         | OpenFOAM: The Open Source CFD Toolbox           |
|  \\    /   O peration     | Version:  5.x                                   |
|   \\  /    A nd           | Web:      www.OpenFOAM.org                      |
|    \\/     M anipulation  |                                                 |
\*---------------------------------------------------------------------------*/
FoamFile
{
    version     2.0;
    format      ascii;
    class       volScalarField;
    location    "3";
    object      gradTy;
}
// * * * * * * * * * * * * * * * * * * * * * * * * * * * * * * * * * * * * * //

dimensions      [0 -1 0 1 0 0 0];

internalField   nonuniform List<scalar> 
2048
(
-26.4241
-26.3965
-26.3422
-26.2625
-26.1598
-26.0364
-25.8951
-25.7389
-25.5704
-25.3922
-25.2067
-25.0161
-24.8223
-24.627
-24.4318
-24.2378
-24.0462
-23.858
-23.6739
-23.4944
-23.3201
-23.1512
-22.9881
-22.831
-22.68
-22.5355
-22.3977
-22.267
-22.1438
-22.0284
-21.9215
-21.8237
-21.7358
-21.6586
-21.5929
-21.54
-21.5008
-21.4765
-21.4683
-21.4775
-21.5054
-21.5532
-21.6221
-21.7133
-21.8278
-21.9662
-22.129
-22.3161
-22.5269
-22.7599
-23.0128
-23.2824
-23.5643
-23.8533
-24.1434
-24.428
-24.7003
-24.9537
-25.1821
-25.3802
-25.5436
-25.669
-25.7539
-25.7967
-26.4464
-26.4182
-26.3626
-26.2813
-26.1764
-26.0508
-25.9073
-25.7488
-25.5782
-25.3981
-25.2109
-25.0187
-24.8236
-24.627
-24.4307
-24.2358
-24.0435
-23.8547
-23.6701
-23.4903
-23.3157
-23.1466
-22.9833
-22.826
-22.6748
-22.5301
-22.392
-22.261
-22.1373
-22.0215
-21.9141
-21.8157
-21.7271
-21.6491
-21.5827
-21.5288
-21.4887
-21.4634
-21.4542
-21.4624
-21.4893
-21.5361
-21.6041
-21.6945
-21.8083
-21.9464
-22.1093
-22.2969
-22.5089
-22.7437
-22.9993
-23.2724
-23.5585
-23.8525
-24.1479
-24.4379
-24.7156
-24.9739
-25.2066
-25.4082
-25.5744
-25.7017
-25.7879
-25.8313
-26.4891
-26.4596
-26.4016
-26.3169
-26.2081
-26.0782
-25.9302
-25.7675
-25.5928
-25.4091
-25.2186
-25.0235
-24.8257
-24.6269
-24.4286
-24.232
-24.0383
-23.8483
-23.6628
-23.4823
-23.3072
-23.1378
-22.9741
-22.8165
-22.6649
-22.5198
-22.3812
-22.2496
-22.1252
-22.0086
-21.9002
-21.8007
-21.7108
-21.6314
-21.5633
-21.5078
-21.4659
-21.4387
-21.4276
-21.4339
-21.4588
-21.5037
-21.5699
-21.6587
-21.7714
-21.9088
-22.0717
-22.2603
-22.4743
-22.7126
-22.9732
-23.2529
-23.5472
-23.8505
-24.1562
-24.4568
-24.7448
-25.0126
-25.2535
-25.4619
-25.6332
-25.7642
-25.8527
-25.8972
-26.5504
-26.519
-26.4574
-26.3677
-26.253
-26.1168
-25.9624
-25.7935
-25.6132
-25.4243
-25.2291
-25.0299
-24.8285
-24.6265
-24.4253
-24.2263
-24.0306
-23.8391
-23.6524
-23.471
-23.2953
-23.1253
-22.9612
-22.8031
-22.6511
-22.5054
-22.3661
-22.2337
-22.1083
-21.9905
-21.8808
-21.7797
-21.6879
-21.6064
-21.5362
-21.4782
-21.4338
-21.404
-21.3901
-21.3936
-21.4157
-21.4579
-21.5215
-21.6081
-21.7189
-21.8552
-22.0179
-22.2076
-22.4244
-22.6675
-22.935
-23.2241
-23.53
-23.847
-24.1676
-24.4837
-24.7866
-25.0681
-25.3209
-25.5388
-25.7173
-25.8534
-25.945
-25.9911
-26.6288
-26.5948
-26.5284
-26.4321
-26.3097
-26.1651
-26.0025
-25.8257
-25.6381
-25.4427
-25.2418
-25.0375
-24.8316
-24.6255
-24.4209
-24.2189
-24.0207
-23.8272
-23.6391
-23.4567
-23.2802
-23.1096
-22.9451
-22.7865
-22.6339
-22.4875
-22.3474
-22.2139
-22.0874
-21.9681
-21.8567
-21.7536
-21.6595
-21.5755
-21.5024
-21.4414
-21.3937
-21.3606
-21.3433
-21.3432
-21.3618
-21.4004
-21.4607
-21.5443
-21.6526
-21.7871
-21.9493
-22.1401
-22.36
-22.6088
-22.885
-23.1858
-23.5067
-23.8413
-24.1814
-24.5176
-24.8401
-25.1394
-25.4072
-25.6372
-25.8246
-25.9668
-26.0622
-26.11
-26.7234
-26.6861
-26.6135
-26.5089
-26.3767
-26.2217
-26.049
-25.8627
-25.6665
-25.4635
-25.2559
-25.0457
-24.8345
-24.6238
-24.4151
-24.2096
-24.0085
-23.8128
-23.623
-23.4395
-23.2623
-23.0912
-22.9262
-22.7671
-22.6139
-22.4667
-22.3256
-22.191
-22.0631
-21.9422
-21.8288
-21.7233
-21.6266
-21.5395
-21.4631
-21.3985
-21.3471
-21.3099
-21.2886
-21.2843
-21.2986
-21.333
-21.3892
-21.4689
-21.5739
-21.7061
-21.8672
-22.0587
-22.2818
-22.5368
-22.8229
-23.1377
-23.4766
-23.8327
-24.1968
-24.558
-24.9047
-25.2257
-25.5118
-25.7558
-25.9534
-26.1023
-26.2017
-26.2513
-26.8335
-26.7921
-26.7119
-26.5969
-26.4527
-26.2854
-26.1006
-25.9032
-25.6973
-25.4858
-25.2708
-25.0541
-24.8371
-24.6212
-24.4078
-24.1983
-23.994
-23.7958
-23.6044
-23.4197
-23.2419
-23.0704
-22.905
-22.7454
-22.5916
-22.4435
-22.3014
-22.1655
-22.0361
-21.9134
-21.7978
-21.6898
-21.59
-21.4995
-21.4192
-21.3506
-21.2948
-21.2532
-21.2271
-21.2181
-21.2275
-21.2569
-21.3083
-21.3834
-21.4843
-21.6133
-21.7726
-21.9642
-22.1902
-22.4515
-22.7484
-23.0789
-23.4387
-23.8202
-24.2131
-24.6044
-24.98
-25.3268
-25.6338
-25.8937
-26.1023
-26.2581
-26.3614
-26.4127
-26.9587
-26.9123
-26.8227
-26.6951
-26.5367
-26.3547
-26.156
-25.9462
-25.7295
-25.5088
-25.2859
-25.0623
-24.839
-24.6174
-24.3989
-24.185
-23.9772
-23.7764
-23.5832
-23.3976
-23.2193
-23.0476
-22.8819
-22.7219
-22.5674
-22.4184
-22.2752
-22.138
-22.0071
-21.8825
-21.7646
-21.6537
-21.5506
-21.4562
-21.3717
-21.2985
-21.2379
-21.1913
-21.1602
-21.1458
-21.1497
-21.1736
-21.2194
-21.2891
-21.3851
-21.51
-21.6664
-21.8573
-22.0854
-22.3529
-22.6609
-23.0086
-23.3919
-23.8028
-24.2295
-24.6562
-25.066
-25.4426
-25.7734
-26.0504
-26.2701
-26.4325
-26.5392
-26.5919
-27.0989
-27.0464
-26.9453
-26.8027
-26.6274
-26.4284
-26.214
-25.9904
-25.7621
-25.5318
-25.3007
-25.0699
-24.8401
-24.6124
-24.3884
-24.1697
-23.958
-23.7544
-23.5596
-23.3732
-23.1947
-23.023
-22.8574
-22.697
-22.5418
-22.3919
-22.2475
-22.109
-21.9765
-21.85
-21.7296
-21.6157
-21.5089
-21.4103
-21.3212
-21.243
-21.1773
-21.1254
-21.0887
-21.0686
-21.0665
-21.0843
-21.1238
-21.1873
-21.2774
-21.3971
-21.5496
-21.7386
-21.9677
-22.2406
-22.5598
-22.9256
-23.3349
-23.7793
-24.245
-24.7133
-25.1627
-25.5735
-25.9305
-26.2254
-26.456
-26.624
-26.733
-26.7865
-27.2542
-27.1943
-27.0794
-26.9188
-26.7236
-26.5052
-26.2731
-26.0345
-25.7941
-25.554
-25.3148
-25.0768
-24.8403
-24.6062
-24.3762
-24.1522
-23.9364
-23.73
-23.5335
-23.3467
-23.1684
-22.9972
-22.8317
-22.6711
-22.5152
-22.3642
-22.2186
-22.0787
-21.9447
-21.8164
-21.6936
-21.5765
-21.4658
-21.3626
-21.2685
-21.1849
-21.1137
-21.0561
-21.0136
-20.9874
-20.979
-20.99
-21.0226
-21.0791
-21.1625
-21.2759
-21.4232
-21.6088
-21.8375
-22.1145
-22.4442
-22.8288
-23.2663
-23.7483
-24.2589
-24.7754
-25.2709
-25.7204
-26.1058
-26.4188
-26.6589
-26.8309
-26.9409
-26.9943
-27.4249
-27.3559
-27.2246
-27.0426
-26.8243
-26.5836
-26.332
-26.0775
-25.8246
-25.5749
-25.3279
-25.0829
-24.8395
-24.5987
-24.3622
-24.1325
-23.9122
-23.7028
-23.5051
-23.3182
-23.1407
-22.9703
-22.8053
-22.6446
-22.4879
-22.3358
-22.1888
-22.0477
-21.9123
-21.7822
-21.657
-21.5366
-21.4218
-21.3137
-21.2141
-21.1249
-21.0478
-20.9843
-20.9357
-20.9032
-20.888
-20.8919
-20.9169
-20.9658
-21.0414
-21.1475
-21.2882
-21.4687
-21.6952
-21.9745
-22.3134
-22.7167
-23.1843
-23.7081
-24.2701
-24.8425
-25.3913
-25.8844
-26.3002
-26.6306
-26.8782
-27.0516
-27.1605
-27.2128
-27.6113
-27.5315
-27.3805
-27.1733
-26.9282
-26.6624
-26.3894
-26.1181
-25.8528
-25.594
-25.3398
-25.0881
-24.838
-24.5901
-24.3466
-24.1105
-23.8853
-23.673
-23.4742
-23.2879
-23.1117
-22.9428
-22.7786
-22.6179
-22.4603
-22.3068
-22.1584
-22.016
-21.8794
-21.7478
-21.6203
-21.4966
-21.3774
-21.264
-21.1586
-21.0633
-20.9802
-20.9106
-20.8558
-20.8167
-20.7946
-20.7909
-20.8078
-20.8482
-20.9153
-21.0129
-21.1456
-21.3192
-21.5412
-21.8204
-22.1666
-22.5879
-23.0869
-23.6567
-24.2773
-24.9147
-25.5252
-26.0673
-26.5149
-26.8611
-27.113
-27.2845
-27.3897
-27.4395
-27.8143
-27.7214
-27.5469
-27.3101
-27.034
-26.7399
-26.4437
-26.155
-25.8778
-25.6108
-25.3503
-25.0926
-24.8358
-24.5806
-24.3293
-24.0862
-23.8557
-23.6403
-23.4408
-23.2557
-23.0818
-22.915
-22.752
-22.5913
-22.4327
-22.2775
-22.1274
-21.9839
-21.8465
-21.7137
-21.5841
-21.457
-21.3331
-21.214
-21.1023
-21.0007
-20.9113
-20.8355
-20.7745
-20.7288
-20.6995
-20.6879
-20.6962
-20.7276
-20.7853
-20.8733
-20.9965
-21.1613
-21.3762
-21.6524
-22.0031
-22.4407
-22.9719
-23.5919
-24.279
-24.9921
-25.6743
-26.2713
-26.7515
-27.1106
-27.3624
-27.5277
-27.6261
-27.6716
-28.0345
-27.926
-27.7236
-27.4519
-27.1402
-26.8148
-26.4937
-26.1872
-25.8987
-25.625
-25.3596
-25.0966
-24.8333
-24.5703
-24.3104
-24.0594
-23.8231
-23.6046
-23.4047
-23.2217
-23.0511
-22.8873
-22.726
-22.5652
-22.4054
-22.248
-22.096
-21.9514
-21.8137
-21.6802
-21.5486
-21.4182
-21.2894
-21.1641
-21.0457
-20.9374
-20.8415
-20.7595
-20.6923
-20.6402
-20.6035
-20.5837
-20.583
-20.6048
-20.6524
-20.7299
-20.8421
-20.9961
-21.2012
-21.4708
-21.8222
-22.2735
-22.837
-23.5111
-24.2734
-25.0747
-25.8408
-26.4992
-27.0119
-27.3794
-27.6253
-27.7793
-27.8671
-27.9066
-28.2731
-28.1459
-27.9105
-27.5979
-27.2453
-26.8853
-26.5376
-26.2133
-25.915
-25.6365
-25.3679
-25.1004
-24.8309
-24.5597
-24.29
-24.0299
-23.7872
-23.5656
-23.3659
-23.1861
-23.02
-22.8602
-22.7009
-22.5401
-22.3785
-22.2184
-22.064
-21.9187
-21.7811
-21.6476
-21.5145
-21.3806
-21.2466
-21.1146
-20.9889
-20.8736
-20.7712
-20.6831
-20.6099
-20.5513
-20.5074
-20.4791
-20.4689
-20.4806
-20.5176
-20.5838
-20.6837
-20.8248
-21.0171
-21.2759
-21.6234
-22.0847
-22.6795
-23.4111
-24.2579
-25.1628
-26.0278
-26.7547
-27.2983
-27.6679
-27.9005
-28.0369
-28.1101
-28.1415
-28.5313
-28.3817
-28.1075
-27.747
-27.3477
-26.9498
-26.5742
-26.2322
-25.9258
-25.6452
-25.3755
-25.1046
-24.8289
-24.5491
-24.2683
-23.9976
-23.748
-23.5232
-23.3241
-23.1488
-22.9888
-22.8342
-22.6772
-22.5162
-22.3525
-22.1887
-22.0313
-21.8855
-21.7491
-21.6164
-21.4819
-21.3446
-21.2053
-21.0659
-20.932
-20.8095
-20.7006
-20.6064
-20.5275
-20.4629
-20.4118
-20.3747
-20.3547
-20.3558
-20.3818
-20.436
-20.5225
-20.6489
-20.8253
-21.0685
-21.4064
-21.8726
-22.4967
-23.2883
-24.2296
-25.2565
-26.2392
-27.0423
-27.6132
-27.976
-28.1863
-28.2983
-28.3524
-28.3736
-28.8105
-28.634
-28.3145
-27.898
-27.4453
-27.0066
-26.602
-26.2425
-25.9307
-25.6511
-25.3831
-25.1096
-24.8279
-24.5392
-24.2454
-23.9621
-23.7052
-23.4771
-23.2791
-23.1097
-22.9578
-22.8098
-22.6554
-22.494
-22.3277
-22.1589
-21.9975
-21.8517
-21.7177
-21.5869
-21.4514
-21.3107
-21.1657
-21.018
-20.8752
-20.7453
-20.6298
-20.5298
-20.4457
-20.3755
-20.3173
-20.2712
-20.2408
-20.231
-20.2458
-20.2876
-20.3597
-20.4698
-20.6275
-20.8497
-21.1712
-21.6358
-22.2858
-23.1387
-24.184
-25.3556
-26.4799
-27.3672
-27.9592
-28.3037
-28.481
-28.5609
-28.5913
-28.6002
-29.1123
-28.9035
-28.5316
-28.0496
-27.536
-27.0544
-26.6197
-26.2431
-25.929
-25.6544
-25.3914
-25.116
-24.8284
-24.5307
-24.2214
-23.9231
-23.6585
-23.4271
-23.2303
-23.0689
-22.9273
-22.7877
-22.6359
-22.4736
-22.3044
-22.1289
-21.9622
-21.817
-21.687
-21.5595
-21.4233
-21.279
-21.1284
-20.9712
-20.8184
-20.681
-20.5591
-20.4533
-20.3647
-20.2894
-20.2245
-20.1691
-20.1278
-20.1068
-20.1105
-20.1397
-20.1964
-20.2892
-20.4254
-20.6209
-20.9179
-21.3727
-22.0441
-22.9577
-24.1157
-25.4598
-26.7566
-27.736
-28.3388
-28.6501
-28.782
-28.8217
-28.824
-28.8187
-29.4385
-29.1907
-28.7592
-28.2002
-27.617
-27.0915
-26.6262
-26.2323
-25.9203
-25.6556
-25.4014
-25.1243
-24.8306
-24.5246
-24.1964
-23.8796
-23.608
-23.373
-23.1773
-23.0264
-22.8978
-22.7688
-22.6191
-22.4554
-22.2833
-22.0987
-21.9245
-21.7812
-21.6571
-21.535
-21.3979
-21.2498
-21.0939
-20.9257
-20.7613
-20.6168
-20.4886
-20.3771
-20.2848
-20.2053
-20.134
-20.0689
-20.0161
-19.9836
-19.9764
-19.9933
-20.0338
-20.1085
-20.2215
-20.3837
-20.6473
-21.0821
-21.7693
-22.7406
-24.017
-25.568
-27.0784
-28.1565
-28.7545
-29.0137
-29.0866
-29.078
-29.048
-29.0268
-29.7913
-29.4957
-28.9977
-28.3483
-27.6851
-27.1171
-26.6207
-26.2085
-25.9042
-25.6549
-25.4149
-25.135
-24.8347
-24.5225
-24.1707
-23.8306
-23.5535
-23.3148
-23.1193
-22.982
-22.8696
-22.754
-22.6054
-22.4394
-22.2652
-22.0681
-21.8833
-21.7438
-21.6282
-21.5139
-21.3754
-21.2232
-21.063
-20.8815
-20.7033
-20.5526
-20.4184
-20.3011
-20.2063
-20.1234
-20.0464
-19.971
-19.906
-19.8615
-19.8441
-19.8494
-19.8726
-19.9293
-20.0183
-20.1401
-20.3601
-20.7626
-21.4596
-22.4827
-23.8775
-25.6782
-27.4571
-28.6377
-29.2078
-29.3922
-29.3914
-29.3267
-29.2608
-29.2223
-30.1732
-29.8178
-29.2487
-28.492
-27.7359
-27.1308
-26.6026
-26.1696
-25.8805
-25.6528
-25.4336
-25.1484
-24.8405
-24.5263
-24.1444
-23.7743
-23.4956
-23.2526
-23.055
-22.9358
-22.8432
-22.7449
-22.5949
-22.4254
-22.2512
-22.037
-21.8372
-21.7044
-21.6004
-21.4975
-21.3559
-21.199
-21.0365
-20.8388
-20.6438
-20.4888
-20.3486
-20.225
-20.1294
-20.0443
-19.9623
-19.8759
-19.7975
-19.7407
-19.7142
-19.7091
-19.7134
-19.7531
-19.8189
-19.8923
-20.058
-20.4126
-21.1143
-22.1801
-23.6832
-25.787
-27.9091
-29.1898
-29.6996
-29.7823
-29.6925
-29.5648
-29.4602
-29.4035
-30.5874
-30.1555
-29.5146
-28.6294
-27.7638
-27.1333
-26.5722
-26.1126
-25.8493
-25.6496
-25.4606
-25.1643
-24.8469
-24.5392
-24.1175
-23.708
-23.4354
-23.1869
-22.9827
-22.8879
-22.8187
-22.7433
-22.5876
-22.4126
-22.2434
-22.0052
-21.7838
-21.6627
-21.5737
-21.487
-21.3394
-21.1766
-21.0161
-20.7975
-20.5814
-20.4257
-20.2796
-20.1484
-20.0544
-19.9681
-19.8825
-19.7838
-19.6908
-19.621
-19.587
-19.5736
-19.5562
-19.581
-19.627
-19.6426
-19.7429
-20.0301
-20.7337
-21.8304
-23.415
-25.8886
-28.4569
-29.8238
-30.2288
-30.1792
-29.9859
-29.7894
-29.6443
-29.5691
-31.0379
-30.5049
-29.7995
-28.7584
-27.761
-27.1268
-26.5303
-26.0334
-25.8115
-25.6453
-25.4999
-25.1821
-24.8519
-24.5659
-24.0903
-23.6273
-23.3746
-23.1184
-22.8999
-22.8388
-22.796
-22.7518
-22.583
-22.3997
-22.2445
-21.9727
-21.7203
-21.6188
-21.5478
-21.4846
-21.3256
-21.1549
-21.0038
-20.7577
-20.5142
-20.3642
-20.2118
-20.0704
-19.9817
-19.8952
-19.8079
-19.695
-19.5858
-19.502
-19.4627
-19.4445
-19.4006
-19.4137
-19.4473
-19.393
-19.4178
-19.6118
-20.3201
-21.4343
-23.0469
-25.9741
-29.1316
-30.5514
-30.7924
-30.5771
-30.2669
-29.9978
-29.8115
-29.7179
-31.5301
-30.8591
-30.1105
-28.8767
-27.7167
-27.1161
-26.4787
-25.9261
-25.7688
-25.6387
-25.5572
-25.2006
-24.8516
-24.6131
-24.0628
-23.5261
-23.3168
-23.0485
-22.8026
-22.7898
-22.7745
-22.7742
-22.5803
-22.3842
-22.2589
-21.9394
-21.6422
-21.5733
-21.5223
-21.4933
-21.3137
-21.132
-21.003
-20.7194
-20.4391
-20.3056
-20.1456
-19.9899
-19.9119
-19.8256
-19.7394
-19.6096
-19.4825
-19.3832
-19.3415
-19.3239
-19.2453
-19.2513
-19.2854
-19.1451
-19.0874
-19.1526
-19.8777
-20.9979
-22.5442
-26.0297
-29.9763
-31.3829
-31.3842
-30.9687
-30.5311
-30.1875
-29.9608
-29.8494
-32.0714
-31.2064
-30.4588
-28.9821
-27.6156
-27.1095
-26.4202
-25.782
-25.725
-25.6274
-25.6408
-25.2176
-24.8399
-24.6908
-24.0352
-23.395
-23.2676
-22.9793
-22.6851
-22.7431
-22.7524
-22.8159
-22.5781
-22.362
-22.293
-21.9053
-21.5436
-21.5278
-21.4955
-21.5173
-21.3026
-21.1046
-21.0183
-20.6824
-20.352
-20.2523
-20.0818
-19.9047
-19.846
-19.7591
-19.6785
-19.5277
-19.3807
-19.2635
-19.223
-19.2149
-19.0879
-19.0931
-19.1488
-18.8994
-18.7583
-18.6441
-19.4127
-20.5351
-21.8599
-26.0347
-31.0506
-32.3262
-31.9944
-31.3457
-30.7739
-30.3567
-30.0914
-29.9634
-32.6722
-31.5276
-30.8617
-29.0723
-27.4365
-27.1205
-26.3593
-25.5885
-25.6868
-25.606
-25.7625
-25.2295
-24.8068
-24.8137
-24.0072
-23.2205
-23.2359
-22.9135
-22.539
-22.703
-22.7262
-22.8846
-22.5739
-22.3268
-22.3561
-21.8701
-21.4162
-21.4858
-21.4648
-21.563
-21.2905
-21.0678
-21.0569
-20.6466
-20.2466
-20.208
-20.0215
-19.8118
-19.7857
-19.6948
-19.627
-19.449
-19.2806
-19.1416
-19.1066
-19.1221
-18.9247
-18.9371
-19.0475
-18.6541
-18.4406
-18.073
-18.9337
-20.0724
-20.932
-25.9591
-32.4368
-33.3835
-32.6088
-31.699
-30.9912
-30.5038
-30.2031
-30.06
-33.3474
-31.7933
-31.3455
-29.145
-27.1494
-27.1697
-26.3018
-25.3272
-25.6658
-25.5649
-25.9394
-25.2313
-24.7377
-25.0024
-23.9788
-22.9833
-23.235
-22.8552
-22.3521
-22.6769
-22.6894
-22.9915
-22.5643
-22.269
-22.4616
-21.8337
-21.2484
-21.4534
-21.4251
-21.6392
-21.2746
-21.0141
-21.1288
-20.6114
-20.1141
-20.1786
-19.9658
-19.707
-19.7337
-19.6314
-19.5874
-19.373
-19.1823
-19.016
-18.9908
-19.052
-18.7503
-18.7793
-18.9946
-18.4038
-18.1501
-17.419
-18.4508
-19.6533
-19.6791
-25.76
-34.2476
-34.5468
-33.2088
-32.0193
-31.1797
-30.6281
-30.2959
-30.1399
-34.118
-31.9593
-31.9485
-29.198
-26.7132
-27.2876
-26.2552
-24.972
-25.6807
-25.4877
-26.1952
-25.2159
-24.611
-25.2861
-23.9493
-22.6566
-23.2847
-22.8092
-22.1069
-22.6768
-22.6311
-23.1521
-22.5447
-22.1747
-22.6282
-21.7954
-21.0246
-21.4411
-21.3678
-21.7585
-21.251
-20.9328
-21.2483
-20.5761
-19.9425
-20.1727
-19.9163
-19.5839
-19.6943
-19.5662
-19.5633
-19.2985
-19.0863
-18.8845
-18.8733
-19.014
-18.5571
-18.6137
-19.0087
-18.1375
-17.9103
-16.6521
-17.9751
-19.3457
-17.9949
-25.3769
-36.6363
-35.7922
-33.7712
-32.2976
-31.3367
-30.7293
-30.3705
-30.2036
-35.0134
-31.9612
-32.7259
-29.229
-26.0718
-27.5178
-26.2289
-24.4863
-25.7606
-25.3481
-26.5635
-25.1738
-24.3962
-25.7049
-23.918
-22.2033
-23.4128
-22.7818
-21.7792
-22.7217
-22.534
-23.3885
-22.5085
-22.0242
-22.8818
-21.7543
-20.7236
-21.465
-21.2792
-21.9384
-21.2147
-20.8087
-21.4349
-20.5397
-19.715
-20.2026
-19.8746
-19.4338
-19.6742
-19.4948
-19.5594
-19.2234
-18.9937
-18.7449
-18.7499
-19.0215
-18.3347
-18.4306
-19.1151
-17.836
-17.7561
-15.7294
-17.5165
-19.2498
-15.7433
-24.7266
-39.8085
-37.0714
-34.2692
-32.526
-31.4608
-30.8076
-30.4277
-30.2522
-36.0745
-31.7078
-33.7548
-29.2358
-25.1496
-27.9209
-26.234
-23.8196
-25.9498
-25.1059
-27.0902
-25.0925
-24.051
-26.3129
-23.8832
-21.5739
-23.6586
-22.7805
-21.3355
-22.8401
-22.3715
-23.7308
-22.4475
-21.7905
-23.2575
-21.7085
-20.3169
-21.5498
-21.1381
-22.2032
-21.1588
-20.6209
-21.7155
-20.5002
-19.4096
-20.2859
-19.8423
-19.2447
-19.683
-19.4103
-19.5827
-19.1446
-18.9066
-18.5944
-18.6141
-19.093
-18.0697
-18.2162
-19.3485
-17.4677
-17.7387
-14.5914
-17.0816
-19.5081
-12.7516
-23.6961
-44.0377
-38.3013
-34.6747
-32.6989
-31.5518
-30.8642
-30.4687
-30.2869
-37.3574
-31.073
-35.1413
-29.2156
-23.847
-28.5795
-26.2836
-22.9034
-26.3125
-24.7012
-27.8381
-24.9562
-23.5185
-27.1821
-23.8425
-20.7025
-24.0751
-22.8141
-20.7303
-23.074
-22.1045
-24.2202
-22.3508
-21.437
-23.8017
-21.6551
-19.767
-21.7315
-20.9128
-22.5859
-21.0743
-20.3414
-22.1255
-20.4548
-18.9969
-20.4465
-19.821
-19.0004
-19.7351
-19.3024
-19.6425
-19.0571
-18.8278
-18.4301
-18.4564
-19.2535
-17.7446
-17.951
-19.7566
-16.9842
-17.9314
-13.1573
-16.6699
-20.3169
-8.80378
-22.1347
-49.6824
-39.3509
-34.9612
-32.8132
-31.6104
-30.9002
-30.4946
-30.3088
-38.9367
-29.8862
-37.0277
-29.1653
-22.0349
-29.6033
-26.3917
-21.6462
-26.9402
-24.0486
-28.8908
-24.7449
-22.7233
-28.4061
-23.7923
-19.5036
-24.733
-22.8925
-19.9032
-23.4831
-21.6763
-24.9115
-22.2047
-20.9149
-24.575
-21.5894
-19.0247
-22.0608
-20.5578
-23.1301
-20.9496
-19.9328
-22.7111
-20.3993
-18.4389
-20.716
-19.8112
-18.6791
-19.8498
-19.1556
-19.7512
-18.9532
-18.7614
-18.2488
-18.2619
-19.5359
-17.337
-17.6074
-20.403
-16.3132
-18.4353
-11.3205
-16.2685
-21.9388
-3.63276
-19.844
-57.206
-40.0243
-35.1089
-32.8689
-31.6385
-30.9173
-30.5069
-30.3191
)
;

boundaryField
{
    left
    {
        type            calculated;
        value           nonuniform List<scalar> 
32
(
-26.4241
-26.4464
-26.4891
-26.5504
-26.6288
-26.7234
-26.8335
-26.9587
-27.0989
-27.2542
-27.4249
-27.6113
-27.8143
-28.0345
-28.2731
-28.5313
-28.8105
-29.1123
-29.4385
-29.7913
-30.1732
-30.5874
-31.0379
-31.5301
-32.0714
-32.6722
-33.3474
-34.118
-35.0134
-36.0745
-37.3574
-38.9367
)
;
    }
    right
    {
        type            calculated;
        value           nonuniform List<scalar> 
32
(
-25.7967
-25.8313
-25.8972
-25.9911
-26.11
-26.2513
-26.4127
-26.5919
-26.7865
-26.9943
-27.2128
-27.4395
-27.6716
-27.9066
-28.1415
-28.3736
-28.6002
-28.8187
-29.0268
-29.2223
-29.4035
-29.5691
-29.7179
-29.8494
-29.9634
-30.06
-30.1399
-30.2036
-30.2522
-30.2869
-30.3088
-30.3191
)
;
    }
    interface
    {
        type            calculated;
        value           nonuniform List<scalar> 
64
(
-39.8112
-29.1304
-38.1162
-29.1323
-20.9832
-30.2222
-26.4623
-20.9194
-27.3336
-23.6478
-29.5054
-24.6179
-22.2492
-29.1199
-23.7642
-18.8103
-25.1324
-22.9441
-19.4256
-23.7401
-21.4137
-25.3155
-22.1173
-20.6049
-25.0275
-21.5528
-18.5986
-22.2697
-20.3411
-23.4489
-20.8756
-19.6909
-23.0542
-20.3683
-18.1181
-20.8825
-19.8093
-18.4962
-19.9256
-19.0701
-19.8195
-18.8959
-18.7319
-18.1533
-18.1533
-19.7121
-17.1094
-17.4119
-20.7949
-15.9202
-18.7798
-10.2863
-16.0679
-22.9904
-0.704601
-18.4881
-61.5028
-40.2379
-35.1461
-32.8823
-31.6451
-30.9213
-30.5097
-30.3214
)
;
    }
    bottom
    {
        type            calculated;
        value           nonuniform List<scalar> 
64
(
-26.4183
-26.3909
-26.3368
-26.2577
-26.1554
-26.0326
-25.8919
-25.7363
-25.5683
-25.3906
-25.2056
-25.0154
-24.822
-24.627
-24.432
-24.2383
-24.0469
-23.8588
-23.6748
-23.4955
-23.3212
-23.1524
-22.9894
-22.8323
-22.6814
-22.537
-22.3992
-22.2686
-22.1454
-22.0302
-21.9234
-21.8258
-21.7381
-21.661
-21.5956
-21.5429
-21.5039
-21.4799
-21.472
-21.4815
-21.5096
-21.5577
-21.6268
-21.7182
-21.8328
-21.9713
-22.1341
-22.3211
-22.5315
-22.764
-23.0163
-23.2849
-23.5658
-23.8535
-24.1423
-24.4254
-24.6963
-24.9484
-25.1757
-25.3729
-25.5356
-25.6605
-25.745
-25.7876
)
;
    }
    defaultFaces
    {
        type            empty;
    }
}


// ************************************************************************* //
