/*--------------------------------*- C++ -*----------------------------------*\
| =========                 |                                                 |
| \\      /  F ield         | OpenFOAM: The Open Source CFD Toolbox           |
|  \\    /   O peration     | Version:  5.x                                   |
|   \\  /    A nd           | Web:      www.OpenFOAM.org                      |
|    \\/     M anipulation  |                                                 |
\*---------------------------------------------------------------------------*/
FoamFile
{
    version     2.0;
    format      ascii;
    class       volScalarField;
    location    "3";
    object      gradTx;
}
// * * * * * * * * * * * * * * * * * * * * * * * * * * * * * * * * * * * * * //

dimensions      [0 -1 0 1 0 0 0];

internalField   nonuniform List<scalar> 
2048
(
0.00630373
0.0187311
0.0306337
0.0417133
0.0517412
0.0605679
0.0681231
0.0744046
0.079462
0.0833783
0.0862532
0.088191
0.0892937
0.0896581
0.0893767
0.0885386
0.0872306
0.0855363
0.0835335
0.0812906
0.0788635
0.0762928
0.0736034
0.0708055
0.0678969
0.0648655
0.0616917
0.0583501
0.0548098
0.0510349
0.0469853
0.0426173
0.0378858
0.0327463
0.0271569
0.02108
0.0144835
0.00734108
-0.000366726
-0.00865164
-0.0175152
-0.0269452
-0.0369102
-0.0473528
-0.0581817
-0.0692622
-0.0804071
-0.0913696
-0.101839
-0.111441
-0.119755
-0.126328
-0.130719
-0.132533
-0.131474
-0.127378
-0.120241
-0.110213
-0.0975846
-0.0827382
-0.0661076
-0.0481337
-0.0292364
-0.00980371
0.0187849
0.0558085
0.091242
0.124186
0.153954
0.180107
0.202444
0.220972
0.235855
0.24735
0.255763
0.261407
0.264587
0.265588
0.264682
0.262132
0.258197
0.253123
0.247146
0.240469
0.23326
0.22564
0.217681
0.209412
0.200823
0.191878
0.182516
0.172663
0.162226
0.1511
0.139165
0.126289
0.112338
0.0971791
0.0806864
0.0627482
0.0432688
0.0221701
-0.000606549
-0.0250977
-0.0513109
-0.0792144
-0.108721
-0.139668
-0.171793
-0.204704
-0.237856
-0.270521
-0.301779
-0.330517
-0.355466
-0.375266
-0.38857
-0.39418
-0.391184
-0.379081
-0.357854
-0.327972
-0.29032
-0.246072
-0.196543
-0.14306
-0.0868733
-0.029127
0.0311344
0.0924678
0.151083
0.205453
0.254432
0.297304
0.33377
0.363888
0.38797
0.406482
0.419953
0.428912
0.433861
0.435266
0.433564
0.429183
0.422546
0.414066
0.404132
0.393089
0.381217
0.368713
0.355693
0.342199
0.328206
0.31365
0.298429
0.282418
0.265468
0.247403
0.228024
0.207115
0.18445
0.159804
0.132969
0.103761
0.0720207
0.0376205
0.000461498
-0.0395214
-0.0823497
-0.127985
-0.176301
-0.227055
-0.279839
-0.334041
-0.388787
-0.442903
-0.49488
-0.542877
-0.584763
-0.618229
-0.640966
-0.650894
-0.646424
-0.626677
-0.591622
-0.542085
-0.479617
-0.406258
-0.324265
-0.23588
-0.14317
-0.0479898
0.0435921
0.129405
0.211242
0.286896
0.35474
0.413805
0.463745
0.504729
0.537286
0.562142
0.580082
0.591866
0.598186
0.599672
0.596913
0.59049
0.580983
0.568976
0.55502
0.53961
0.523139
0.505885
0.487999
0.469523
0.45041
0.430557
0.40982
0.388025
0.364966
0.340403
0.314058
0.285623
0.254778
0.221204
0.184608
0.144731
0.101356
0.0543045
0.00343695
-0.0513453
-0.110089
-0.172766
-0.23924
-0.309215
-0.382181
-0.457344
-0.533552
-0.609224
-0.682291
-0.750178
-0.809857
-0.857989
-0.891182
-0.906342
-0.90107
-0.874033
-0.825183
-0.755779
-0.66817
-0.56541
-0.450823
-0.327631
-0.198718
-0.0665832
0.0563736
0.167243
0.272681
0.369716
0.456215
0.530983
0.593699
0.64474
0.684944
0.715369
0.737103
0.751149
0.758382
0.759572
0.755438
0.746692
0.734075
0.718343
0.700231
0.680393
0.659352
0.63746
0.614894
0.591682
0.567739
0.542913
0.517011
0.489813
0.461066
0.430464
0.397651
0.362224
0.323757
0.281832
0.236065
0.186125
0.131735
0.0726737
0.00875951
-0.0601453
-0.134126
-0.213188
-0.297211
-0.385889
-0.478656
-0.574593
-0.672326
-0.76992
-0.864782
-0.953605
-1.03241
-1.09671
-1.14186
-1.16354
-1.15835
-1.12437
-1.06153
-0.971644
-0.85806
-0.725082
-0.577291
-0.418989
-0.253878
-0.0850205
0.0696837
0.206568
0.336293
0.455007
0.560038
0.650008
0.724723
0.784897
0.8318
0.866921
0.891705
0.907408
0.915067
0.915561
0.909697
0.898303
0.882274
0.862556
0.84009
0.815717
0.790101
0.76367
0.736615
0.708923
0.68045
0.650978
0.620264
0.588049
0.554036
0.517867
0.479103
0.437235
0.391722
0.342033
0.287688
0.228283
0.16349
0.0930477
0.0167372
-0.0656232
-0.154172
-0.248971
-0.349953
-0.456845
-0.569079
-0.685675
-0.805111
-0.92517
-1.04278
-1.15393
-1.25362
-1.33608
-1.39516
-1.42503
-1.42102
-1.38045
-1.30319
-1.19178
-1.05086
-0.88634
-0.704308
-0.510289
-0.3088
-0.103342
0.0837267
0.247961
0.402947
0.543805
0.667286
0.771896
0.857708
0.925943
0.978466
1.01731
1.04435
1.06109
1.06869
1.06809
1.06014
1.04574
1.02594
1.00192
0.974841
0.945782
0.915565
0.884694
0.85335
0.821452
0.78876
0.754975
0.719798
0.68294
0.644084
0.602823
0.558636
0.510896
0.458926
0.402065
0.339731
0.271448
0.196847
0.115636
0.0275676
-0.0675873
-0.170034
-0.279918
-0.397261
-0.521872
-0.653239
-0.790397
-0.93176
-1.07492
-1.21642
-1.35155
-1.47427
-1.57734
-1.65283
-1.69301
-1.69155
-1.64473
-1.55235
-1.41788
-1.24772
-1.04981
-0.832112
-0.601548
-0.363426
-0.121516
0.0987141
0.292018
0.473519
0.637125
0.77897
0.897545
0.993379
1.06842
1.12533
1.16684
1.1953
1.21246
1.21957
1.21751
1.20711
1.18933
1.16538
1.13666
1.10466
1.07072
1.03586
1.00065
0.965249
0.929445
0.892865
0.855099
0.815793
0.774651
0.731358
0.685481
0.636411
0.583383
0.525558
0.462122
0.392378
0.315783
0.231943
0.140555
0.0413535
-0.0659371
-0.181603
-0.305902
-0.438985
-0.580788
-0.730918
-0.888504
-1.052
-1.21893
-1.38555
-1.54654
-1.69477
-1.82138
-1.9163
-1.96942
-1.97219
-1.91949
-1.81097
-1.65136
-1.4494
-1.21569
-0.960552
-0.692473
-0.417502
-0.139446
0.114872
0.33937
0.548918
0.735988
0.896061
1.02776
1.13231
1.21269
1.27259
1.31561
1.34464
1.36167
1.3679
1.36408
1.35093
1.32938
1.30082
1.26696
1.22966
1.1906
1.15104
1.11163
1.07243
1.03306
0.992944
0.951528
0.908405
0.863304
0.815961
0.765939
0.712537
0.654824
0.591759
0.522345
0.445754
0.361386
0.268844
0.167843
0.0581158
-0.0606532
-0.188847
-0.326865
-0.475025
-0.633443
-0.801901
-0.979705
-1.16547
-1.35677
-1.54977
-1.73865
-1.9152
-2.06877
-2.18674
-2.256
-2.2651
-2.20693
-2.08087
-1.89337
-1.6563
-1.3838
-1.0891
-0.782471
-0.470588
-0.15697
0.132446
0.390697
0.630112
0.841445
1.01951
1.16325
1.27495
1.35892
1.42023
1.46352
1.49231
1.50872
1.5138
1.50803
1.49184
1.46614
1.43248
1.39296
1.34991
1.30545
1.26113
1.21768
1.175
1.13245
1.08917
1.04443
0.997768
0.948989
0.897949
0.844247
0.78708
0.725308
0.657636
0.58284
0.499943
0.408303
0.307555
0.197468
0.0778041
-0.0517869
-0.191799
-0.342807
-0.505341
-0.679733
-0.865999
-1.0637
-1.27172
-1.48791
-1.70848
-1.92733
-2.13529
-2.31973
-2.46506
-2.55438
-2.5724
-2.50926
-2.36382
-2.14484
-1.86848
-1.55354
-1.21685
-0.870659
-0.522061
-0.173867
0.151708
0.446749
0.718139
0.954595
1.15025
1.30467
1.4216
1.50715
1.56808
1.61034
1.63809
1.65353
1.65734
1.64952
1.63012
1.59987
1.56055
1.51476
1.46542
1.41522
1.36609
1.3188
1.27303
1.22776
1.18174
1.13399
1.08401
1.03177
0.977339
0.920414
0.86007
0.794893
0.72327
0.643687
0.554998
0.45654
0.34803
0.229342
0.100305
-0.0394525
-0.190552
-0.353788
-0.529943
-0.719607
-0.923064
-1.1402
-1.37032
-1.61169
-1.86088
-2.11179
-2.35445
-2.57419
-2.75193
-2.86607
-2.89629
-2.82879
-2.66159
-2.40654
-2.08566
-1.72389
-1.34252
-0.955883
-0.571145
-0.189864
0.172962
0.508348
0.814132
1.0766
1.28922
1.45259
1.57245
1.65722
1.71578
1.75564
1.78167
1.79593
1.79854
1.78875
1.76602
1.73082
1.68521
1.63243
1.57616
1.51983
1.46583
1.41499
1.36662
1.31915
1.27084
1.22039
1.16724
1.11166
1.0541
0.994408
0.931504
0.863618
0.788727
0.704956
0.610952
0.506069
0.390178
0.263324
0.125449
-0.0238195
-0.185255
-0.359919
-0.548899
-0.753071
-0.973006
-1.20897
-1.4608
-1.72741
-2.00604
-2.29098
-2.57177
-2.83173
-3.04776
-3.19252
-3.23906
-3.16808
-2.97606
-2.67905
-2.30717
-1.89343
-1.46448
-1.03674
-0.616921
-0.204647
0.196545
0.576409
0.919323
1.20867
1.43734
1.60749
1.72756
1.80883
1.8628
1.89886
1.9226
1.93572
1.93739
1.9259
1.89983
1.85927
1.80664
1.74603
1.68209
1.61915
1.56024
1.50621
1.45584
1.4068
1.35672
1.30384
1.24758
1.18869
1.12818
1.06616
1.00136
0.931506
0.85407
0.766713
0.667825
0.556838
0.433877
0.299231
0.153019
-0.00510532
-0.176096
-0.361352
-0.562327
-0.780195
-1.01581
-1.26983
-1.54274
-1.83434
-2.14291
-2.46362
-2.78604
-3.09159
-3.3527
-3.53507
-3.60319
-3.52996
-3.30924
-2.9628
-2.53194
-2.06027
-1.58074
-1.11161
-0.658372
-0.21787
0.22284
0.651944
1.03506
1.35214
1.59554
1.76978
1.88686
1.96153
2.00846
2.03931
2.06038
2.07263
2.07389
2.06118
2.03188
1.98551
1.92502
1.85561
1.78309
1.71299
1.64915
1.5924
1.54077
1.49092
1.43964
1.3846
1.32517
1.2628
1.19944
1.13557
1.06958
0.998573
0.919365
0.829032
0.725636
0.608776
0.478971
0.336841
0.182754
0.0164311
-0.163302
-0.358276
-0.570389
-0.801114
-1.05153
-1.32269
-1.61582
-1.93181
-2.27035
-2.62822
-2.99571
-3.35265
-3.66658
-3.89494
-3.99138
-3.91773
-3.66342
-3.25801
-2.75842
-2.22203
-1.68897
-1.17871
-0.694419
-0.229177
0.252271
0.736068
1.16282
1.50838
1.7647
1.93975
2.05017
2.11472
2.1519
2.17614
2.19441
2.20639
2.20804
2.19483
2.16257
2.10988
2.04053
1.96121
1.87906
1.80111
1.73233
1.67351
1.62154
1.57173
1.51991
1.46296
1.40012
1.33392
1.26771
1.20249
1.13613
1.06483
0.984683
0.892007
0.784404
0.661792
0.525282
0.375902
0.214355
0.0404956
-0.147124
-0.350901
-0.573284
-0.816026
-1.08032
-1.36755
-1.67979
-2.01918
-2.38722
-2.78314
-3.19894
-3.61341
-3.98886
-4.27319
-4.40658
-4.33525
-4.04117
-3.56467
-2.98451
-2.37585
-1.78658
-1.23615
-0.723975
-0.238218
0.285321
0.830006
1.30418
1.67889
1.94569
2.11758
2.21718
2.26769
2.29213
2.30841
2.32406
2.33675
2.33984
2.32714
2.29238
2.23276
2.15335
2.06286
1.96983
1.88322
1.80951
1.74944
1.69827
1.64948
1.59788
1.53929
1.47258
1.40195
1.33277
1.26676
1.20094
1.13028
1.05011
0.95576
0.844153
0.715779
0.572615
0.416133
0.247488
0.0667637
-0.12783
-0.339447
-0.571236
-0.825189
-1.10242
-1.40454
-1.73454
-2.09596
-2.4924
-2.92658
-3.39359
-3.87201
-4.31859
-4.6706
-4.85203
-4.7872
-4.44555
-3.88244
-3.20747
-2.51836
-1.87074
-1.28204
-0.745998
-0.244667
0.32254
0.935082
1.46087
1.86528
2.13929
2.30326
2.3875
2.4196
2.42799
2.43503
2.44869
2.46348
2.46929
2.45844
2.42189
2.35454
2.26363
2.16061
2.05526
1.95894
1.88037
1.82014
1.77113
1.72443
1.67395
1.61404
1.54274
1.46668
1.39431
1.32817
1.26396
1.19494
1.11574
1.02046
0.904917
0.770606
0.62076
0.457237
0.281787
0.0948843
-0.105698
-0.324131
-0.564483
-0.828917
-1.11818
-1.43388
-1.7801
-2.1618
-2.58481
-3.05665
-3.57727
-4.12618
-4.65436
-5.08752
-5.33125
-5.27925
-4.88014
-4.2105
-3.42372
-2.64567
-1.93848
-1.31454
-0.759561
-0.248249
0.364565
1.05272
1.63472
2.0693
2.34617
2.49659
2.56068
2.56957
2.55819
2.5548
2.56765
2.58644
2.59637
2.58908
2.55182
2.47566
2.37148
2.25454
2.13516
2.02784
1.94452
1.88552
1.84035
1.79686
1.74857
1.68777
1.61076
1.52785
1.45193
1.38653
1.32517
1.25877
1.18169
1.08634
0.966738
0.826111
0.669505
0.498905
0.316852
0.124482
-0.0810014
-0.305148
-0.553262
-0.827571
-1.12802
-1.45589
-1.81666
-2.21659
-2.66352
-3.17139
-3.74733
-4.37334
-4.99423
-5.52367
-5.848
-5.81841
-5.34922
-4.54739
-3.6288
-2.75341
-1.9868
-1.33198
-0.763904
-0.248753
0.412162
1.18441
1.82762
2.29292
2.56688
2.69707
2.73627
2.71664
2.68124
2.6664
2.68034
2.70562
2.72101
2.71942
2.68311
2.59655
2.47693
2.34481
2.20938
2.08939
2.00145
1.94555
1.90624
1.86699
1.82218
1.76122
1.67688
1.58509
1.50512
1.4416
1.38463
1.32176
1.24806
1.15372
1.02966
0.882079
0.718653
0.540823
0.352252
0.155159
-0.0540084
-0.282661
-0.537793
-0.821556
-1.13246
-1.471
-1.84454
-2.2605
-2.72778
-3.2688
-3.9009
-4.61061
-5.33579
-5.97783
-6.40615
-6.41349
-5.85794
-4.89065
-3.81709
-2.83676
-2.01279
-1.33298
-0.758494
-0.246051
0.46629
1.33167
2.0415
2.53841
2.80171
2.90384
2.9139
2.85989
2.79552
2.76835
2.78622
2.82123
2.84301
2.8498
2.81697
2.71762
2.57983
2.43168
2.27781
2.14295
2.0506
2.00022
1.96924
1.93498
1.89526
1.83532
1.74135
1.63787
1.55327
1.49318
1.44246
1.38378
1.31495
1.22307
1.09372
0.938222
0.768034
0.582687
0.387515
0.186493
-0.0249723
-0.256776
-0.518266
-0.811316
-1.13215
-1.47966
-1.86418
-2.29399
-2.77703
-3.34689
-4.03492
-4.83495
-5.67615
-6.44748
-7.0095
-7.07563
-6.4125
-5.23647
-3.98175
-2.89061
-2.01381
-1.31651
-0.743069
-0.240112
0.528211
1.49601
2.27823
2.80848
3.05063
3.11548
3.09346
2.99843
2.89917
2.85905
2.88488
2.93379
2.96193
2.98048
2.95503
2.83921
2.6798
2.51562
2.34038
2.18773
2.09126
2.04955
2.02999
2.00081
1.96819
1.91132
1.80444
1.6855
1.59561
1.54109
1.49896
1.44462
1.3824
1.29506
1.15894
0.994133
0.817551
0.624207
0.422122
0.218037
0.00587107
-0.227533
-0.494819
-0.79732
-1.12781
-1.48234
-1.87612
-2.31797
-2.811
-3.40369
-4.14615
-5.04326
-6.01219
-6.92824
-7.66145
-7.81909
-7.02037
-5.57907
-4.11446
-2.90969
-1.98765
-1.28204
-0.717668
-0.231002
0.599679
1.67883
2.53944
3.10657
3.31319
3.32988
3.27525
3.13151
2.99011
2.93665
2.97604
3.0443
3.07699
3.11152
3.09955
2.96151
2.77607
2.59742
2.39708
2.2228
2.12257
2.09367
2.08941
2.06425
2.04129
1.99092
1.86643
1.72702
1.63121
1.58519
1.55469
1.50389
1.45037
1.37065
1.22527
1.04923
0.867222
0.665122
0.455495
0.249321
0.0383039
-0.194884
-0.467527
-0.780066
-1.12034
-1.47948
-1.88088
-2.33383
-2.82971
-3.43731
-4.23114
-5.23253
-6.34086
-7.41326
-8.36447
-8.66227
-7.6905
-5.90992
-4.20545
-2.88886
-1.9327
-1.22955
-0.682641
-0.218887
0.68322
1.88129
2.82634
3.43722
3.58827
3.54392
3.46036
3.25848
3.06596
2.99913
3.05957
3.15446
3.18677
3.24271
3.25369
3.08446
2.86726
2.67838
2.44801
2.24696
2.14348
2.13275
2.14887
2.12463
2.11466
2.0764
1.9276
1.76122
1.65896
1.6254
1.61055
1.56092
1.51869
1.45124
1.29258
1.10267
0.917262
0.705201
0.486973
0.279851
0.072123
-0.158671
-0.436383
-0.76006
-1.11081
-1.47139
-1.87892
-2.34356
-2.83347
-3.4459
-4.28616
-5.4
-6.65969
-7.89239
-9.11938
-9.6291
-8.4336
-6.21667
-4.24342
-2.82336
-1.84817
-1.1596
-0.638637
-0.204022
0.782576
2.10416
3.13933
3.80657
3.87391
3.75313
3.65105
3.3788
3.12396
3.04417
3.13546
3.26705
3.28902
3.37337
3.42193
3.20758
2.9512
2.76061
2.49332
2.25879
2.15276
2.16701
2.2104
2.18073
2.18809
2.17094
1.98814
1.78651
1.67756
1.66169
1.66799
1.61459
1.58694
1.53885
1.36056
1.15326
0.968198
0.744242
0.515792
0.309117
0.107132
-0.118617
-0.401285
-0.737797
-1.10055
-1.45823
-1.87045
-2.34995
-2.82291
-3.42778
-4.30714
-5.54329
-6.96771
-8.35123
-9.9242
-10.7508
-9.2623
-6.48184
-4.21576
-2.70929
-1.73419
-1.07333
-0.586579
-0.18674
0.90334
2.34757
3.47755
4.2232
4.16696
3.9512
3.85138
3.49203
3.16092
3.06914
3.20377
3.3863
3.3802
3.50208
3.61061
3.32976
3.02452
2.84735
2.53319
2.25651
2.14892
2.19669
2.27697
2.23046
2.2609
2.27885
2.04801
1.8009
1.6855
1.69405
1.72924
1.6632
1.65436
1.6364
1.42864
1.19928
1.02102
0.782052
0.54105
0.336609
0.143123
-0.0742948
-0.362029
-0.713732
-1.09128
-1.43989
-1.85523
-2.35675
-2.79886
-3.38143
-4.28949
-5.66041
-7.26658
-8.76997
-10.7727
-12.0682
-10.1914
-6.68102
-4.109
-2.54402
-1.59197
-0.972431
-0.527613
-0.167431
1.05387
2.61072
3.83814
4.69913
4.4626
4.12939
4.06804
3.59757
3.17313
3.07115
3.26447
3.51856
3.45501
3.62646
3.82868
3.44896
3.08225
2.94354
2.56769
2.23799
2.13022
2.22193
2.35288
2.27058
2.33173
2.4061
2.10685
1.80193
1.68111
1.72242
1.79759
1.70415
1.71972
1.74803
1.49583
1.23835
1.0774
0.818405
0.56167
0.361842
0.179855
-0.0251118
-0.318304
-0.688221
-1.08521
-1.41589
-1.83234
-2.369
-2.76228
-3.30564
-4.22785
-5.74966
-7.56232
-9.12212
-11.6526
-13.6348
-11.2377
-6.78078
-3.90955
-2.32672
-1.42383
-0.85905
-0.463048
-0.146523
1.24653
2.8915
4.21537
5.25129
4.75386
4.27575
4.31138
3.69442
3.1563
3.04696
3.31714
3.67313
3.50577
3.74267
4.08867
3.5618
3.11731
3.0565
2.59661
2.20065
2.0947
2.2426
2.44433
2.29626
2.39829
2.56082
2.16361
1.78663
1.66258
1.74656
1.87786
1.73368
1.7811
1.87958
1.56055
1.26718
1.13999
0.852969
0.576359
0.384394
0.217014
0.0297212
-0.269708
-0.66143
-1.08528
-1.38535
-1.79982
-2.39339
-2.71403
-3.19967
-4.1159
-5.8093
-7.86749
-9.37305
-12.5424
-15.52
-12.4205
-6.73597
-3.60491
-2.05882
-1.23314
-0.735706
-0.394283
-0.124456
1.49933
3.18597
4.59939
5.90328
5.03081
4.37415
4.59682
3.78066
3.10554
2.99315
3.36058
3.86324
3.52161
3.84497
4.40785
3.66304
3.11982
3.19678
2.61909
2.1415
2.04021
2.25801
2.56006
2.30059
2.45705
2.75402
2.21625
1.75156
1.62805
1.76582
1.97689
1.74642
1.83567
2.03914
1.62037
1.28132
1.21275
0.885181
0.583563
0.403974
0.254157
0.0912226
-0.215776
-0.633214
-1.09534
-1.34691
-1.75425
-2.43878
-2.65456
-3.06352
-3.94602
-5.83683
-8.20399
-9.47849
-13.4088
-17.8141
-13.7604
-6.48668
-3.18545
-1.74438
-1.02426
-0.605143
-0.32274
-0.101666
1.83807
3.48778
4.97474
6.68765
5.27969
4.40323
4.94656
3.85269
3.0154
2.90623
3.39213
4.10746
3.48758
3.92508
4.80975
3.74497
3.07638
3.37934
2.63319
2.05711
1.96451
2.26651
2.71225
2.27398
2.50285
3.00049
2.26119
1.69281
1.57571
1.77882
2.10423
1.73497
1.8794
2.23772
1.67167
1.27484
1.30149
0.914063
0.58143
0.420497
0.290647
0.160685
-0.156039
-0.602928
-1.12053
-1.29862
-1.69017
-2.51685
-2.5834
-2.89831
-3.70902
-5.82794
-8.60655
-9.38297
-14.2022
-20.6333
-15.2799
-5.9546
-2.64681
-1.39039
-0.802264
-0.470184
-0.249794
-0.0785626
2.29901
3.78741
5.31841
7.64872
5.48174
4.33503
5.39167
3.90422
2.87998
2.7829
3.4068
4.43125
3.38354
3.97144
5.32587
3.79653
2.96916
3.62485
2.63517
1.94372
1.86543
2.26493
2.91754
2.20343
2.52848
3.31981
2.29261
1.60611
1.50401
1.78297
2.27297
1.68929
1.90676
2.49012
1.70929
1.24
1.41434
0.937977
0.567783
0.434198
0.325548
0.239735
-0.0901152
-0.569187
-1.16758
-1.23802
-1.59948
-2.64288
-2.49856
-2.70681
-3.39393
-5.77484
-9.12687
-9.01831
-14.8519
-24.1259
-17.0014
-5.03896
-1.99304
-1.00671
-0.572664
-0.333577
-0.176716
-0.0555158
2.93204
4.07132
5.59767
8.84579
5.61186
4.13357
5.97458
3.92485
2.69317
2.62039
3.39606
4.86899
3.18291
3.96837
5.99769
3.80245
2.77496
3.96134
2.61864
1.79738
1.74115
2.24776
3.19834
2.07172
2.52416
3.73758
2.30159
1.48707
1.41188
1.7739
2.50071
1.59608
1.9103
2.81581
1.72601
1.1669
1.56247
0.954278
0.540104
0.445757
0.35751
0.330414
-0.0178523
-0.529545
-1.24521
-1.16208
-1.47059
-2.83684
-2.39564
-2.49408
-2.98792
-5.66402
-9.83838
-8.30224
-15.2604
-28.4796
-18.9467
-3.61212
-1.24053
-0.605658
-0.341052
-0.197862
-0.10463
-0.0328469
3.80449
4.32095
5.76739
10.357
5.63702
3.75325
6.75192
3.89832
2.44903
2.41705
3.34638
5.46616
2.85132
3.89511
6.87896
3.74209
2.4641
4.42611
2.57334
1.61419
1.59047
2.20624
3.5843
1.8565
2.477
4.28685
2.27504
1.33145
1.29907
1.74461
2.81071
1.43803
1.88026
3.24005
1.71198
1.04302
1.76087
0.958894
0.495553
0.456465
0.384614
0.435281
0.0604855
-0.480109
-1.3646
-1.06733
-1.28755
-3.12449
-2.2667
-2.2683
-2.47628
-5.47335
-10.8416
-7.13726
-15.2972
-33.9291
-21.1349
-1.51483
-0.422753
-0.201216
-0.112706
-0.0652593
-0.0344808
-0.0108222
)
;

boundaryField
{
    left
    {
        type            calculated;
        value           uniform 0;
    }
    right
    {
        type            calculated;
        value           uniform 0;
    }
    interface
    {
        type            calculated;
        value           nonuniform List<scalar> 
64
(
3.80449
4.32095
5.76739
10.357
5.63702
3.75325
6.75192
3.89832
2.44903
2.41705
3.34638
5.46616
2.85132
3.89511
6.87896
3.74209
2.4641
4.42611
2.57334
1.61419
1.59047
2.20624
3.5843
1.8565
2.477
4.28685
2.27504
1.33145
1.29907
1.74461
2.81071
1.43803
1.88026
3.24005
1.71198
1.04302
1.76087
0.958894
0.495553
0.456465
0.384614
0.435281
0.0604855
-0.480109
-1.3646
-1.06733
-1.28755
-3.12449
-2.2667
-2.2683
-2.47628
-5.47335
-10.8416
-7.13726
-15.2972
-33.9291
-21.1349
-1.51483
-0.422753
-0.201216
-0.112706
-0.0652593
-0.0344808
-0.0108222
)
;
    }
    bottom
    {
        type            calculated;
        value           nonuniform List<scalar> 
64
(
0.00630373
0.0187311
0.0306337
0.0417133
0.0517412
0.0605679
0.0681231
0.0744046
0.079462
0.0833783
0.0862532
0.088191
0.0892937
0.0896581
0.0893767
0.0885386
0.0872306
0.0855363
0.0835335
0.0812906
0.0788635
0.0762928
0.0736034
0.0708055
0.0678969
0.0648655
0.0616917
0.0583501
0.0548098
0.0510349
0.0469853
0.0426173
0.0378858
0.0327463
0.0271569
0.02108
0.0144835
0.00734108
-0.000366726
-0.00865164
-0.0175152
-0.0269452
-0.0369102
-0.0473528
-0.0581817
-0.0692622
-0.0804071
-0.0913696
-0.101839
-0.111441
-0.119755
-0.126328
-0.130719
-0.132533
-0.131474
-0.127378
-0.120241
-0.110213
-0.0975846
-0.0827382
-0.0661076
-0.0481337
-0.0292364
-0.00980371
)
;
    }
    defaultFaces
    {
        type            empty;
    }
}


// ************************************************************************* //
