/*--------------------------------*- C++ -*----------------------------------*\
| =========                 |                                                 |
| \\      /  F ield         | OpenFOAM: The Open Source CFD Toolbox           |
|  \\    /   O peration     | Version:  5.x                                   |
|   \\  /    A nd           | Web:      www.OpenFOAM.org                      |
|    \\/     M anipulation  |                                                 |
\*---------------------------------------------------------------------------*/
FoamFile
{
    version     2.0;
    format      ascii;
    class       volScalarField;
    location    "3";
    object      T;
}
// * * * * * * * * * * * * * * * * * * * * * * * * * * * * * * * * * * * * * //

dimensions      [0 0 0 1 0 0 0];

internalField   nonuniform List<scalar> 
2048
(
9.8102
9.8104
9.81079
9.81136
9.81209
9.81297
9.81399
9.8151
9.81631
9.81759
9.81892
9.82028
9.82167
9.82307
9.82447
9.82587
9.82724
9.82859
9.82991
9.8312
9.83245
9.83367
9.83484
9.83597
9.83705
9.83809
9.83908
9.84002
9.8409
9.84173
9.8425
9.8432
9.84383
9.84438
9.84485
9.84523
9.84551
9.84568
9.84574
9.84567
9.84547
9.84512
9.84463
9.84397
9.84315
9.84215
9.84098
9.83964
9.83813
9.83646
9.83464
9.83271
9.8307
9.82863
9.82656
9.82452
9.82257
9.82076
9.81913
9.81771
9.81655
9.81565
9.81504
9.81473
9.43875
9.43934
9.44049
9.44219
9.44437
9.447
9.45
9.45332
9.45691
9.46069
9.46464
9.46869
9.47281
9.47696
9.48111
9.48523
9.4893
9.4933
9.49721
9.50102
9.50472
9.50831
9.51177
9.51511
9.51832
9.52139
9.52431
9.52709
9.52971
9.53216
9.53443
9.53651
9.53838
9.54002
9.54141
9.54254
9.54338
9.54389
9.54407
9.54387
9.54328
9.54227
9.54081
9.53887
9.53644
9.5335
9.53005
9.52607
9.52159
9.51664
9.51126
9.50553
9.49954
9.49339
9.48722
9.48117
9.47537
9.46998
9.46512
9.46091
9.45743
9.45477
9.45296
9.45205
9.08309
9.08407
9.08598
9.08879
9.0924
9.09674
9.1017
9.10717
9.11307
9.11929
9.12577
9.13242
9.13917
9.14598
9.15277
9.15952
9.16619
9.17273
9.17913
9.18536
9.19141
9.19727
9.20293
9.20839
9.21363
9.21864
9.22343
9.22797
9.23225
9.23627
9.23999
9.24339
9.24646
9.24915
9.25145
9.25331
9.25469
9.25556
9.25587
9.25558
9.25463
9.253
9.25063
9.24749
9.24354
9.23875
9.2331
9.2266
9.21926
9.21113
9.20229
9.19286
9.18298
9.17283
9.16263
9.15263
9.14305
9.13414
9.12611
9.11915
9.11342
9.10902
9.10604
9.10454
8.74232
8.74368
8.74637
8.75029
8.75533
8.76137
8.76826
8.77586
8.78404
8.79265
8.8016
8.81078
8.8201
8.82947
8.83884
8.84813
8.85729
8.86628
8.87507
8.88363
8.89193
8.89998
8.90774
8.91523
8.92242
8.9293
8.93587
8.94211
8.948
8.95351
8.95863
8.96333
8.96756
8.97129
8.97447
8.97706
8.979
8.98023
8.98069
8.98033
8.97909
8.97689
8.97369
8.96942
8.96403
8.95747
8.94973
8.9408
8.9307
8.91948
8.90725
8.89417
8.88044
8.86632
8.85212
8.83816
8.8248
8.81238
8.80119
8.7915
8.78352
8.77741
8.77328
8.7712
8.41559
8.41735
8.42082
8.42587
8.43237
8.44013
8.44896
8.45868
8.46911
8.48009
8.49147
8.50312
8.51494
8.52682
8.53868
8.55043
8.56201
8.57337
8.58446
8.59525
8.60572
8.61586
8.62564
8.63507
8.64413
8.65281
8.6611
8.66897
8.67641
8.68338
8.68986
8.69581
8.70118
8.70592
8.70998
8.7133
8.7158
8.71742
8.71807
8.71769
8.71619
8.7135
8.70953
8.70421
8.69747
8.68925
8.67952
8.66824
8.65546
8.64122
8.62566
8.60896
8.59138
8.57327
8.55502
8.53707
8.51989
8.5039
8.48952
8.47709
8.46686
8.45905
8.45377
8.45111
8.10213
8.10431
8.10859
8.11482
8.1228
8.13232
8.14312
8.15497
8.16765
8.18096
8.19474
8.20883
8.22309
8.23742
8.2517
8.26585
8.27978
8.29342
8.30673
8.31967
8.33222
8.34436
8.35609
8.36738
8.37824
8.38865
8.39858
8.40803
8.41696
8.42534
8.43314
8.44032
8.44681
8.45256
8.4575
8.46155
8.46463
8.46666
8.46754
8.46718
8.46549
8.46236
8.45771
8.45143
8.44343
8.43364
8.422
8.40848
8.39309
8.3759
8.35703
8.33672
8.31528
8.29312
8.27075
8.24871
8.22761
8.20799
8.19036
8.17515
8.16267
8.15314
8.14672
8.14349
7.80123
7.80384
7.80898
7.81644
7.82597
7.83729
7.85009
7.86409
7.87903
7.89467
7.91082
7.9273
7.94398
7.9607
7.97736
7.99383
8.01003
8.02589
8.04134
8.05636
8.0709
8.08497
8.09855
8.11163
8.12422
8.13628
8.14781
8.15878
8.16915
8.1789
8.18799
8.19636
8.20396
8.2107
8.21652
8.22132
8.225
8.22747
8.22862
8.22833
8.2265
8.22302
8.21776
8.2106
8.20145
8.19019
8.17675
8.16107
8.14316
8.12306
8.10092
8.07699
8.05163
8.02534
7.99872
7.97248
7.94733
7.92397
7.90302
7.88497
7.87021
7.85897
7.85141
7.84761
7.51222
7.5153
7.52134
7.5301
7.54125
7.55444
7.5693
7.58549
7.60269
7.62065
7.63915
7.65801
7.67704
7.69612
7.71509
7.73384
7.75226
7.77026
7.78778
7.80478
7.82124
7.83715
7.85251
7.86731
7.88155
7.89522
7.90828
7.92071
7.93248
7.94356
7.9539
7.96345
7.97214
7.97988
7.98658
7.99214
7.99645
7.99939
8.00084
8.00068
7.99878
7.995
7.98922
7.98128
7.97107
7.95844
7.9433
7.92557
7.90521
7.88227
7.85688
7.82931
7.79996
7.76942
7.73842
7.70779
7.67843
7.6512
7.62683
7.60591
7.58884
7.57589
7.5672
7.56284
7.23448
7.23807
7.24509
7.25523
7.26809
7.28323
7.30021
7.31861
7.3381
7.35838
7.37922
7.4004
7.42177
7.44315
7.4644
7.48537
7.50594
7.52602
7.54553
7.56444
7.58274
7.60041
7.61748
7.63393
7.64976
7.66496
7.6795
7.69334
7.70647
7.71884
7.73041
7.74111
7.75087
7.7596
7.7672
7.77353
7.77849
7.78193
7.78373
7.78375
7.78184
7.77785
7.77162
7.763
7.75183
7.73794
7.72121
7.70152
7.67881
7.65309
7.62448
7.59324
7.55983
7.52491
7.48933
7.45412
7.42037
7.3891
7.3612
7.33734
7.31795
7.3033
7.2935
7.2886
6.96745
6.97158
6.97966
6.99128
7.00595
7.02314
7.0423
7.06298
7.08477
7.10736
7.1305
7.15399
7.17765
7.2013
7.22478
7.24792
7.27059
7.29269
7.31412
7.33487
7.35492
7.37428
7.39297
7.411
7.42836
7.44504
7.461
7.47622
7.49065
7.50428
7.51704
7.52887
7.5397
7.54942
7.55792
7.56505
7.57068
7.57466
7.57685
7.57709
7.57523
7.5711
7.56452
7.5553
7.54327
7.52824
7.51003
7.4885
7.46354
7.43511
7.40331
7.36838
7.33082
7.29135
7.25099
7.21096
7.17258
7.13709
7.10555
7.0787
7.057
7.04068
7.0298
7.02436
6.71056
6.7153
6.72452
6.73774
6.75435
6.77368
6.79512
6.81811
6.84222
6.86711
6.89254
6.9183
6.94421
6.97009
6.99576
7.02103
7.04576
7.0698
7.09309
7.1156
7.13732
7.15829
7.17853
7.19807
7.2169
7.235
7.25233
7.26887
7.28458
7.29941
7.31334
7.32629
7.33818
7.34889
7.3583
7.36624
7.37256
7.37711
7.37973
7.38025
7.3785
7.37429
7.36744
7.35773
7.34495
7.32889
7.30932
7.28606
7.25896
7.22791
7.19296
7.15434
7.11252
7.06834
7.02295
6.97783
6.93456
6.89465
6.85935
6.82948
6.80548
6.78752
6.77561
6.76967
6.4633
6.4687
6.47918
6.49414
6.51283
6.53443
6.55822
6.58357
6.61001
6.63719
6.66487
6.69286
6.72099
6.74907
6.77689
6.80426
6.83098
6.85692
6.88199
6.90618
6.92949
6.95198
6.97371
6.99469
7.01493
7.0344
7.05307
7.07088
7.08781
7.10382
7.11888
7.13293
7.14587
7.15758
7.1679
7.17667
7.18371
7.18886
7.19194
7.19278
7.1912
7.18699
7.17995
7.16984
7.15642
7.13943
7.11864
7.09378
7.06466
7.0311
6.99306
6.95073
6.90457
6.85549
6.80481
6.75426
6.7058
6.66126
6.62208
6.58916
6.56291
6.5434
6.53051
6.52412
6.22518
6.23132
6.24319
6.26005
6.28096
6.30497
6.3312
6.35895
6.38772
6.41717
6.44706
6.47725
6.50755
6.53779
6.56774
6.59716
6.62584
6.65362
6.6804
6.70618
6.731
6.75494
6.77807
6.80043
6.82203
6.84283
6.86278
6.88182
6.89992
6.91707
6.93324
6.94837
6.96235
6.97506
6.98631
6.99593
7.00371
7.00949
7.01306
7.01427
7.0129
7.00876
7.00161
6.99119
6.97723
6.95945
6.93755
6.91124
6.88023
6.84427
6.80324
6.75721
6.70663
6.65244
6.59615
6.53984
6.48584
6.43642
6.39326
6.3573
6.32887
6.3079
6.29413
6.28733
5.99574
6.0027
6.01611
6.03505
6.05837
6.08491
6.11367
6.14387
6.17497
6.20664
6.2387
6.27102
6.30347
6.33583
6.36788
6.39933
6.42993
6.45949
6.48791
6.51521
6.54145
6.56674
6.59121
6.61489
6.6378
6.65988
6.68107
6.70129
6.72053
6.73878
6.75602
6.7722
6.78722
6.80093
6.81313
6.82361
6.83215
6.83857
6.84268
6.84429
6.84319
6.83918
6.832
6.82136
6.80696
6.7885
6.76563
6.738
6.70526
6.66705
6.62313
6.57344
6.51836
6.45886
6.39664
6.33413
6.27421
6.21965
6.1724
6.13345
6.10296
6.08066
6.06613
6.05896
5.77453
5.78242
5.79753
5.81875
5.84467
5.8739
5.90529
5.93797
5.97137
6.00522
6.03938
6.07379
6.10833
6.14279
6.17692
6.21037
6.24285
6.27414
6.30414
6.33286
6.36042
6.38699
6.41272
6.43767
6.46184
6.48516
6.50755
6.52892
6.54924
6.56853
6.58682
6.60404
6.62009
6.63481
6.64797
6.65932
6.66865
6.67574
6.6804
6.68244
6.68166
6.67784
6.6707
6.65992
6.64519
6.62616
6.60246
6.57367
6.53936
6.49907
6.45239
6.3991
6.33947
6.27445
6.20593
6.13675
6.07045
6.01046
5.95906
5.91719
5.88481
5.86136
5.84618
5.83874
5.56114
5.57005
5.58707
5.61081
5.63954
5.67161
5.70571
5.7409
5.77658
5.81253
5.84872
5.88515
5.92174
5.95827
5.99446
6.02991
6.06424
6.0972
6.1287
6.15876
6.18755
6.21531
6.24222
6.26838
6.29377
6.31831
6.34187
6.36433
6.38568
6.40598
6.42527
6.44351
6.46059
6.47632
6.49046
6.5027
6.51282
6.5206
6.52583
6.52833
6.52791
6.52434
6.51731
6.50649
6.49152
6.47204
6.44763
6.41783
6.38213
6.33994
6.29067
6.23389
6.16967
6.09894
6.02372
5.94731
5.87412
5.80839
5.75279
5.70816
5.67409
5.64969
5.63403
5.62638
5.35514
5.36522
5.38437
5.41088
5.44266
5.47773
5.51463
5.55234
5.59024
5.62821
5.66634
5.70473
5.74332
5.7819
5.82015
5.85758
5.89373
5.92832
5.96125
5.99255
6.02246
6.05131
6.07934
6.10666
6.13323
6.15897
6.18367
6.20718
6.2295
6.25075
6.27101
6.29025
6.30835
6.32512
6.34024
6.3534
6.36432
6.37279
6.37861
6.3816
6.38158
6.3783
6.37145
6.36066
6.34554
6.32571
6.30073
6.27009
6.23318
6.18931
6.13766
6.07752
6.00872
5.93207
5.84973
5.76547
5.68475
5.61297
5.55318
5.50597
5.4705
5.4454
5.42942
5.42166
5.15617
5.16756
5.18907
5.21865
5.25373
5.29196
5.33175
5.37198
5.41205
5.45193
5.49189
5.53217
5.57271
5.6133
5.65362
5.69305
5.73098
5.76716
5.80144
5.83388
5.86481
5.89465
5.92373
5.95216
5.97988
6.0068
6.03263
6.05714
6.08037
6.10251
6.1237
6.14392
6.16304
6.18085
6.19699
6.21106
6.2228
6.23198
6.23839
6.24188
6.24228
6.23935
6.23275
6.22206
6.20689
6.18681
6.16139
6.13004
6.09212
6.04681
5.99301
5.9297
5.85635
5.77363
5.68373
5.59088
5.50191
5.42372
5.3598
5.31032
5.27376
5.24823
5.23213
5.22436
4.96383
4.97671
5.00085
5.03383
5.0725
5.11404
5.15678
5.19955
5.24168
5.28334
5.325
5.3671
5.40955
5.45213
5.49454
5.53598
5.57568
5.61338
5.64895
5.68243
5.71425
5.74497
5.77505
5.80454
5.83339
5.86148
5.88843
5.91389
5.93796
5.96092
5.98301
6.00419
6.02432
6.04319
6.06037
6.07537
6.08793
6.09783
6.10484
6.10884
6.10968
6.10715
6.10085
6.09034
6.07518
6.05495
6.02921
5.99731
5.95857
5.91207
5.85642
5.79016
5.71234
5.62342
5.52553
5.42323
5.32511
5.24017
5.17227
5.12088
5.08363
5.05798
5.04197
5.03428
4.77778
4.79235
4.8194
4.85615
4.89872
4.9437
4.98947
5.03476
5.07884
5.12212
5.16535
5.20919
5.25351
5.29804
5.34257
5.38607
5.42749
5.46669
5.50348
5.53787
5.57045
5.60195
5.63296
5.66349
5.69343
5.72271
5.75078
5.77713
5.80196
5.82567
5.84862
5.87075
5.89187
5.91184
5.93009
5.94602
5.95941
5.97002
5.97762
5.98213
5.98345
5.98135
5.97542
5.96515
5.95007
5.92977
5.90383
5.87152
5.83214
5.78474
5.72755
5.65864
5.57646
5.48126
5.37497
5.26222
5.15386
5.06183
4.99022
4.9374
4.89989
4.87447
4.85875
4.85125
4.59766
4.61417
4.64441
4.68536
4.73218
4.7807
4.82954
4.87737
4.92324
4.96796
5.01258
5.05812
5.10426
5.15068
5.1974
5.24302
5.28613
5.32677
5.36474
5.3999
5.43311
5.46526
5.49716
5.52869
5.55968
5.5902
5.61941
5.64659
5.67208
5.69645
5.72024
5.74329
5.76539
5.78649
5.80586
5.82271
5.83692
5.84826
5.85643
5.86145
5.86324
5.86163
5.85613
5.84617
5.83122
5.81093
5.78489
5.7523
5.71246
5.66445
5.60609
5.53489
5.44849
5.347
5.23198
5.10758
4.98764
4.8882
4.81329
4.75962
4.72236
4.69751
4.6823
4.67508
4.42314
4.44188
4.4756
4.52124
4.57268
4.62477
4.67674
4.72712
4.7746
4.82057
4.86637
4.91357
4.96151
5.00972
5.05874
5.10658
5.15129
5.19334
5.23246
5.26824
5.30192
5.33457
5.36735
5.39987
5.43185
5.46366
5.49407
5.52198
5.54804
5.57296
5.59758
5.62154
5.64457
5.66687
5.68741
5.70516
5.72019
5.73226
5.74098
5.74649
5.74877
5.74769
5.74268
5.73308
5.7183
5.69807
5.67207
5.63929
5.59914
5.55086
5.49172
5.41864
5.32821
5.22049
5.09654
4.9591
4.82585
4.71877
4.64116
4.58735
4.55088
4.52695
4.51246
4.50562
4.25388
4.27523
4.31267
4.36355
4.42008
4.47568
4.53083
4.58382
4.63266
4.67963
4.72638
4.77524
4.82496
4.87483
4.92629
4.97651
5.02268
5.06611
5.10638
5.14261
5.1766
5.20959
5.24324
5.27675
5.30964
5.34283
5.37453
5.40307
5.42957
5.45491
5.48036
5.50524
5.52914
5.5527
5.57449
5.59309
5.60895
5.62176
5.63099
5.63697
5.63973
5.63923
5.63477
5.62559
5.61102
5.59088
5.56504
5.53216
5.4918
5.44362
5.38412
5.30967
5.21537
5.10156
4.96873
4.81658
4.66782
4.55303
4.47355
4.42042
4.38532
4.36267
4.34908
4.34271
4.08955
4.11401
4.15531
4.21211
4.27426
4.33317
4.39155
4.44726
4.49713
4.54489
4.59226
4.64287
4.69436
4.74565
4.79978
4.85259
4.90001
4.94481
4.98628
5.02273
5.05687
5.09
5.12459
5.15908
5.19274
5.22746
5.26058
5.28959
5.31641
5.34201
5.36833
5.39413
5.41879
5.44373
5.46688
5.48624
5.50292
5.5165
5.52618
5.53262
5.53584
5.53597
5.53213
5.52343
5.50907
5.48903
5.4635
5.43058
5.39007
5.34237
5.28295
5.20777
5.10972
4.99003
4.84875
4.6799
4.51278
4.39045
4.31023
4.25871
4.22556
4.20451
4.19202
4.18618
3.92982
3.95805
4.00319
4.06673
4.13516
4.19694
4.25864
4.3173
4.36776
4.41608
4.46367
4.5162
4.56949
4.62183
4.67893
4.73466
4.78299
4.82918
4.87197
4.90834
4.94248
4.97549
5.01113
5.04665
5.08083
5.1173
5.15205
5.1813
5.20833
5.23397
5.26126
5.28801
5.31324
5.33971
5.36438
5.38435
5.40185
5.41626
5.42629
5.43317
5.43681
5.43764
5.43449
5.42633
5.41219
5.39223
5.36719
5.33425
5.29354
5.24679
5.18787
5.11274
5.01098
4.88566
4.73692
4.54901
4.35979
4.23053
4.15101
4.10212
4.07151
4.05237
4.04112
4.03589
3.77435
3.80729
3.85594
3.92723
4.00279
4.06669
4.13183
4.19381
4.24425
4.29297
4.34023
4.39499
4.45018
4.50296
4.56351
4.6226
4.67129
4.71892
4.76328
4.79916
4.83321
4.86573
4.90265
4.93926
4.9736
5.01213
5.04879
5.07797
5.1051
5.1305
5.15893
5.18667
5.21219
5.24042
5.26681
5.28716
5.30551
5.32083
5.33108
5.33838
5.34239
5.344
5.34161
5.33406
5.3201
5.30014
5.27585
5.24288
5.20182
5.15656
5.09852
5.02444
4.91884
4.78812
4.63378
4.42398
4.20769
4.0728
3.99579
3.95062
3.92308
3.90613
3.89624
3.89166
3.62277
3.66173
3.71313
3.79346
3.87723
3.94201
4.01085
4.07675
4.1263
4.17538
4.22152
4.27904
4.33631
4.3886
4.45326
4.51637
4.56457
4.61378
4.66009
4.69493
4.72886
4.76039
4.79894
4.83677
4.87069
4.91172
4.95072
4.97933
5.00655
5.03129
5.06113
5.08997
5.11531
5.14563
5.17405
5.1944
5.21365
5.23002
5.2403
5.24803
5.25231
5.25481
5.25324
5.24638
5.23257
5.21247
5.18928
5.15623
5.11449
5.07141
5.0145
4.94279
4.83296
4.69693
4.54005
4.30498
4.05505
3.91684
3.84455
3.80419
3.78021
3.76565
3.75722
3.75333
3.47467
3.52152
3.57423
3.66526
3.75871
3.82247
3.8954
3.96612
4.01355
4.06317
4.10708
4.16818
4.22781
4.27824
4.34796
4.41598
4.46243
4.51347
4.56233
4.59532
4.62926
4.65908
4.69982
4.73908
4.77171
4.81586
4.85778
4.88512
4.91251
4.936
4.96769
4.99777
5.02227
5.05514
5.08599
5.10578
5.12603
5.14367
5.1537
5.16191
5.16632
5.16985
5.16917
5.16311
5.14938
5.12888
5.10729
5.07406
5.03108
4.99111
4.93534
4.86779
4.75294
4.61142
4.45674
4.19239
3.90005
3.76238
3.69734
3.66283
3.64283
3.63083
3.62392
3.62074
3.32958
3.38702
3.43857
3.54248
3.64756
3.70747
3.78516
3.86205
3.90556
3.95628
3.99638
4.06229
4.12474
4.17127
4.2474
4.32158
4.36443
4.41772
4.47003
4.5
4.53432
4.56139
4.60515
4.64615
4.67621
4.72437
4.76997
4.79503
4.82287
4.84427
4.87846
4.91003
4.93268
4.96876
5.00261
5.021
5.04245
5.06167
5.07101
5.07984
5.08415
5.08892
5.08917
5.08404
5.07033
5.04903
5.02975
4.99621
4.9511
4.91548
4.86053
4.79957
4.6784
4.53062
4.38518
4.0868
3.74039
3.6093
3.55431
3.52659
3.51086
3.50152
3.49617
3.49371
3.18695
3.2588
3.30531
3.425
3.54433
3.5963
3.6798
3.76479
3.80181
3.85479
3.88878
3.96125
4.02725
4.06699
4.15136
4.23342
4.27
4.32621
4.38328
4.40856
4.44402
4.46685
4.5148
4.55803
4.58366
4.63704
4.6874
4.70869
4.73759
4.75569
4.79331
4.82672
4.8461
4.8863
4.92391
4.93972
4.96266
4.98392
4.99198
5.00166
5.00555
5.01183
5.01304
5.00902
4.99525
4.97253
4.95656
4.92255
4.87397
4.84447
4.78938
4.73841
4.60892
4.45319
4.3271
3.98907
3.57316
3.45778
3.4157
3.39549
3.38424
3.3776
3.37381
3.37208
3.04612
3.13775
3.17335
3.31268
3.44978
3.48805
3.57896
3.67475
3.70161
3.75892
3.7835
3.86504
3.93565
3.96451
4.05966
4.15194
4.17849
4.23865
4.30228
4.32049
4.35845
4.3749
4.42869
4.47484
4.49343
4.55372
4.61023
4.62565
4.6567
4.66977
4.71214
4.74792
4.76202
4.80761
4.85001
4.86155
4.88648
4.91038
4.9163
4.92726
4.93023
4.93843
4.94055
4.93787
4.924
4.89896
4.88769
4.853
4.79904
4.77814
4.7211
4.68477
4.5441
4.37732
4.28465
3.90043
3.39467
3.30835
3.28179
3.26958
3.26286
3.25892
3.25668
3.25565
2.90627
3.02516
3.0413
3.20539
3.36496
3.38155
3.48225
3.59255
3.60407
3.66908
3.6796
3.77366
3.85042
3.86276
3.97214
4.07773
4.08908
4.15473
4.2274
4.23515
4.27784
4.28485
4.34679
4.39686
4.4048
4.47426
4.53877
4.54536
4.58037
4.58596
4.63489
4.67379
4.67983
4.73255
4.78108
4.78605
4.81368
4.84108
4.84364
4.85656
4.85791
4.86858
4.87151
4.87047
4.85651
4.82783
4.82315
4.78759
4.72551
4.71676
4.65463
4.63937
4.48359
4.30057
4.26055
3.82254
3.20026
3.16207
3.15292
3.14886
3.14664
3.14534
3.1446
3.14426
)
;

boundaryField
{
    left
    {
        type            zeroGradient;
    }
    right
    {
        type            zeroGradient;
    }
    interface
    {
        type            fixedValue;
        value           nonuniform List<scalar> 
64
(
2.83478
2.97283
2.97283
3.15304
3.32725
3.32725
3.43473
3.55499
3.55499
3.6266
3.6266
3.72942
3.81047
3.81047
3.92948
4.04395
4.04395
4.11352
4.19251
4.19251
4.23939
4.23939
4.30707
4.35986
4.35986
4.43557
4.50537
4.50537
4.54385
4.54385
4.59741
4.63844
4.63844
4.69598
4.74856
4.74856
4.77812
4.80788
4.80788
4.82233
4.82233
4.83467
4.83789
4.83789
4.82393
4.79245
4.79245
4.75635
4.68819
4.68819
4.62093
4.62093
4.45475
4.2593
4.2593
3.78935
3.08981
3.08981
3.08981
3.08981
3.08981
3.08981
3.08981
3.08981
)
;
    }
    bottom
    {
        type            fixedValue;
        value           uniform 10;
    }
    defaultFaces
    {
        type            empty;
    }
}


// ************************************************************************* //
