/*--------------------------------*- C++ -*----------------------------------*\
| =========                 |                                                 |
| \\      /  F ield         | OpenFOAM: The Open Source CFD Toolbox           |
|  \\    /   O peration     | Version:  5.x                                   |
|   \\  /    A nd           | Web:      www.OpenFOAM.org                      |
|    \\/     M anipulation  |                                                 |
\*---------------------------------------------------------------------------*/
FoamFile
{
    version     2.0;
    format      ascii;
    class       volScalarField;
    location    "7.5";
    object      gradTx;
}
// * * * * * * * * * * * * * * * * * * * * * * * * * * * * * * * * * * * * * //

dimensions      [0 -1 0 1 0 0 0];

internalField   nonuniform List<scalar> 
6300
(
-31.7516
-31.8225
-31.9637
-32.1736
-32.45
-32.7898
-33.1888
-33.6413
-34.1408
-34.679
-35.2467
-35.8334
-36.428
-37.0193
-37.5966
-31.6807
-31.7523
-31.8949
-32.1071
-32.3867
-32.7308
-33.1351
-33.5945
-34.102
-34.6496
-35.2277
-35.8255
-36.4313
-37.0332
-37.6199
-31.5383
-31.6112
-31.7566
-31.9731
-32.259
-32.6114
-33.0266
-33.4994
-34.0232
-34.5897
-35.189
-35.8096
-36.4386
-37.0626
-37.6686
-31.3229
-31.3977
-31.547
-31.7699
-32.0648
-32.4294
-32.8605
-33.3534
-33.9017
-34.4971
-35.1292
-35.7853
-36.4508
-37.1099
-37.7467
-31.0327
-31.1099
-31.264
-31.4946
-31.8008
-32.181
-32.6327
-33.152
-33.7331
-34.3679
-35.0454
-35.7517
-36.4695
-37.1795
-37.8614
-30.6654
-30.7451
-30.9045
-31.1438
-31.4628
-31.8611
-32.3373
-32.8888
-33.5108
-34.1959
-34.933
-35.7064
-36.4961
-37.2774
-38.023
-30.2185
-30.3006
-30.4652
-30.7132
-31.0456
-31.4633
-31.9667
-32.5551
-33.2255
-33.9721
-34.7841
-35.6451
-36.5312
-37.411
-38.2469
-29.6895
-29.7735
-29.9426
-30.1983
-30.5432
-30.9799
-31.5113
-32.1393
-32.8642
-33.6828
-34.5864
-35.5586
-36.5725
-37.5886
-38.5546
-29.0764
-29.1616
-29.3333
-29.5944
-29.9489
-30.4018
-30.9591
-31.6267
-32.4093
-33.3085
-34.3202
-35.4306
-36.6116
-37.8164
-38.9738
-28.3782
-28.4631
-28.6348
-28.8972
-29.2561
-29.7194
-30.2968
-30.9992
-31.8378
-32.822
-33.9556
-35.232
-36.6273
-38.0916
-39.5367
-27.5951
-27.6778
-27.8456
-28.1034
-28.459
-28.923
-29.5094
-30.2355
-31.121
-32.1862
-33.4485
-34.915
-36.5746
-38.3867
-40.2643
-26.7294
-26.8074
-26.9664
-27.212
-27.5535
-28.0042
-28.5826
-29.3126
-30.2245
-31.354
-32.7378
-34.4064
-36.3712
-38.6183
-41.1159
-25.7856
-25.8563
-26.0006
-26.2247
-26.5388
-26.958
-27.5041
-28.2079
-29.1111
-30.2681
-31.7442
-33.6043
-35.8899
-38.6053
-41.8321
-24.7711
-24.8315
-24.955
-25.1475
-25.419
-25.7848
-26.2682
-26.9041
-27.7444
-28.8648
-30.3698
-32.3831
-34.9899
-38.0972
-41.5204
-23.6964
-23.7437
-23.8404
-23.9914
-24.2049
-24.4941
-24.88
-25.3964
-26.0986
-27.0791
-28.4927
-30.5807
-33.6129
-37.3139
-37.9973
-38.1066
-38.5473
-38.9639
-39.3545
-39.7181
-40.0547
-40.3647
-40.6487
-40.9068
-41.139
-41.3448
-41.5231
-41.6729
-41.7936
-41.8851
-41.9482
-41.9849
-41.9982
-41.9918
-41.9699
-41.9369
-41.8966
-41.8517
-41.8041
-41.7544
-41.7018
-41.645
-41.582
-41.5109
-41.4302
-41.3392
-41.2383
-41.1289
-41.0133
-40.8942
-40.7746
-40.6568
-40.5429
-40.4335
-40.3284
-40.2264
-40.1255
-40.0233
-39.9175
-39.8064
-39.689
-39.5654
-39.4366
-39.3045
-39.1717
-39.0406
-38.9135
-38.7919
-38.6767
-38.5673
-38.4626
-38.3605
-38.2587
-38.155
-38.0477
-37.9358
-37.8194
-37.6993
-37.5775
-37.4564
-37.3382
-37.2254
-37.1193
-37.0208
-36.9297
-36.8449
-36.7649
-36.6879
-36.6122
-36.5367
-36.4616
-36.3877
-36.3174
-36.2537
-36.2006
-36.1621
-36.1419
-36.1431
-36.1673
-36.2146
-36.2834
-36.3705
-36.4706
-36.5778
-36.685
-38.1368
-38.5821
-39.0015
-39.3933
-39.757
-40.093
-40.4023
-40.6858
-40.9442
-41.1772
-41.3843
-41.564
-41.7149
-41.8357
-41.926
-41.9863
-42.0188
-42.0265
-42.014
-41.986
-41.9476
-41.903
-41.8556
-41.8073
-41.7584
-41.708
-41.654
-41.5938
-41.5247
-41.4449
-41.3534
-41.2505
-41.1379
-41.0183
-40.8951
-40.7718
-40.6514
-40.5363
-40.4273
-40.324
-40.2249
-40.1273
-40.0284
-39.9252
-39.8155
-39.698
-39.5729
-39.4413
-39.3057
-39.1691
-39.0348
-38.9054
-38.7829
-38.6682
-38.5607
-38.4588
-38.36
-38.2614
-38.1603
-38.0543
-37.9424
-37.8245
-37.7018
-37.5767
-37.4519
-37.3307
-37.2155
-37.1084
-37.0102
-36.9205
-36.8381
-36.7607
-36.686
-36.6117
-36.5364
-36.4597
-36.3826
-36.3077
-36.2385
-36.1796
-36.1357
-36.1112
-36.1099
-36.1339
-36.1835
-36.2573
-36.3515
-36.4606
-36.5776
-36.6949
-38.1997
-38.654
-39.0788
-39.4726
-39.8358
-40.1699
-40.4771
-40.7593
-41.0179
-41.253
-41.4632
-41.6466
-41.8002
-41.9219
-42.01
-42.0647
-42.0881
-42.0842
-42.0584
-42.0173
-41.9671
-41.9136
-41.8609
-41.8113
-41.7647
-41.7194
-41.6719
-41.6182
-41.5541
-41.4766
-41.3841
-41.2768
-41.157
-41.0285
-40.8961
-40.7647
-40.6386
-40.5209
-40.4128
-40.3136
-40.221
-40.1311
-40.0397
-39.9423
-39.8357
-39.7181
-39.5895
-39.4517
-39.3083
-39.1634
-39.0218
-38.8874
-38.7628
-38.6492
-38.5459
-38.4504
-38.3591
-38.2678
-38.1724
-38.0695
-37.9575
-37.8364
-37.7078
-37.5752
-37.4425
-37.3142
-37.194
-37.0847
-36.9872
-36.901
-36.8238
-36.7526
-36.6833
-36.6126
-36.5379
-36.4582
-36.3745
-36.2897
-36.2086
-36.1369
-36.0811
-36.0472
-36.0402
-36.0634
-36.1178
-36.2017
-36.311
-36.439
-36.5771
-36.7158
-38.3004
-38.7685
-39.2007
-39.5962
-39.9566
-40.2856
-40.5877
-40.8669
-41.1257
-41.3644
-41.581
-41.7718
-41.9318
-42.0563
-42.142
-42.1881
-42.1968
-42.1733
-42.1251
-42.0615
-41.9914
-41.923
-41.8619
-41.8108
-41.7693
-41.7339
-41.6989
-41.6574
-41.6029
-41.53
-41.436
-41.3211
-41.1887
-41.0444
-40.8957
-40.7499
-40.6138
-40.4917
-40.3854
-40.2939
-40.2132
-40.1373
-40.0594
-39.9727
-39.8719
-39.7541
-39.6193
-39.4704
-39.3127
-39.1531
-38.9985
-38.855
-38.7268
-38.6155
-38.5198
-38.436
-38.3583
-38.2802
-38.1951
-38.0979
-37.9858
-37.8589
-37.7198
-37.5736
-37.4268
-37.286
-37.157
-37.0438
-36.9479
-36.8682
-36.8012
-36.7414
-36.6828
-36.6193
-36.5466
-36.4625
-36.3678
-36.2665
-36.1649
-36.0714
-35.995
-35.9444
-35.9271
-35.9481
-36.0094
-36.1095
-36.2435
-36.4028
-36.576
-36.7501
-38.4476
-38.9348
-39.3756
-39.7702
-40.1225
-40.4401
-40.7314
-41.0039
-41.2623
-41.5076
-41.7362
-41.9414
-42.1144
-42.2466
-42.3312
-42.3656
-42.352
-42.2978
-42.2142
-42.1149
-42.0135
-41.9219
-41.8484
-41.7967
-41.7652
-41.7478
-41.7351
-41.7156
-41.6781
-41.6139
-41.518
-41.3908
-41.2373
-41.0668
-40.8909
-40.7214
-40.5686
-40.4396
-40.3369
-40.2586
-40.1983
-40.1464
-40.0917
-40.0233
-39.9325
-39.8145
-39.6693
-39.5016
-39.3201
-39.1355
-38.9592
-38.8007
-38.6666
-38.5592
-38.4766
-38.4127
-38.3582
-38.3025
-38.2351
-38.1477
-38.0356
-37.8988
-37.7419
-37.573
-37.4024
-37.2407
-37.0972
-36.9779
-36.8853
-36.8173
-36.768
-36.7287
-36.6891
-36.6394
-36.5717
-36.4819
-36.3708
-36.2435
-36.1095
-35.9811
-35.8715
-35.7938
-35.7588
-35.7746
-35.8449
-35.9687
-36.1396
-36.3464
-36.5734
-36.8021
-38.6551
-39.1678
-39.6173
-40.0049
-40.3387
-40.6325
-40.9021
-41.1611
-41.4181
-41.6747
-41.9251
-42.1574
-42.356
-42.5053
-42.5927
-42.6121
-42.5658
-42.4646
-42.3261
-42.1713
-42.0215
-41.8948
-41.8038
-41.7534
-41.7406
-41.7552
-41.7811
-41.7995
-41.7919
-41.7432
-41.6453
-41.4982
-41.3104
-41.097
-40.8768
-40.6688
-40.4894
-40.3496
-40.2534
-40.1974
-40.1713
-40.1595
-40.1438
-40.1062
-40.0324
-39.9142
-39.7517
-39.5528
-39.3317
-39.1062
-38.8942
-38.7113
-38.5677
-38.4673
-38.4066
-38.3758
-38.3599
-38.3417
-38.3039
-38.2329
-38.1208
-37.9678
-37.7812
-37.5747
-37.365
-37.1694
-37.0023
-36.8738
-36.7872
-36.7392
-36.7204
-36.7163
-36.7101
-36.6852
-36.6284
-36.5322
-36.3969
-36.2301
-36.0462
-35.8636
-35.7022
-35.5814
-35.5175
-35.5227
-35.6035
-35.7598
-35.9841
-36.261
-36.5683
-36.8789
-38.9445
-39.4917
-39.9484
-40.3169
-40.6124
-40.86
-41.0881
-41.3212
-41.5745
-41.8508
-42.1401
-42.4218
-42.6688
-42.8533
-42.9521
-42.9531
-42.8586
-42.6854
-42.4615
-42.2205
-41.9961
-41.8164
-41.7006
-41.6559
-41.6768
-41.7461
-41.8379
-41.9211
-41.9647
-41.9436
-41.8434
-41.6643
-41.4205
-41.1372
-40.8451
-40.5751
-40.3532
-40.1967
-40.1119
-40.0932
-40.1237
-40.1784
-40.2275
-40.2414
-40.196
-40.0777
-39.8865
-39.6359
-39.3497
-39.0572
-38.7874
-38.5652
-38.4067
-38.318
-38.2935
-38.3172
-38.3651
-38.409
-38.4206
-38.377
-38.2651
-38.085
-37.8494
-37.5809
-37.3075
-37.0567
-36.8521
-36.7091
-36.6333
-36.6193
-36.6516
-36.7069
-36.7579
-36.7771
-36.7418
-36.6389
-36.4681
-36.2414
-35.9811
-35.7154
-35.4746
-35.2869
-35.1767
-35.1619
-35.2533
-35.4529
-35.7526
-36.1319
-36.5585
-36.9914
-39.3487
-39.9457
-40.4068
-40.734
-40.9551
-41.1157
-41.2669
-41.4522
-41.6979
-42.0084
-42.3661
-42.736
-43.0718
-43.3246
-43.4524
-43.4318
-43.2647
-42.9791
-42.6214
-42.246
-41.9063
-41.6462
-41.4952
-41.4639
-41.5431
-41.7049
-41.9072
-42.0997
-42.2309
-42.2577
-42.1553
-41.9235
-41.5875
-41.1899
-40.7816
-40.4121
-40.1227
-39.9406
-39.8755
-39.9179
-40.0413
-40.2053
-40.3618
-40.4619
-40.4646
-40.3462
-40.1068
-39.7702
-39.3769
-38.9753
-38.6123
-38.3271
-38.1454
-38.0763
-38.1109
-38.2236
-38.3762
-38.5228
-38.6169
-38.6194
-38.5078
-38.282
-37.9647
-37.5944
-37.2172
-36.8776
-36.613
-36.4477
-36.3905
-36.4326
-36.5494
-36.7038
-36.8516
-36.9473
-36.9523
-36.8436
-36.6197
-36.301
-35.9236
-35.5316
-35.1703
-34.881
-34.6983
-34.648
-34.7471
-35.0021
-35.4064
-35.9345
-36.5397
-37.1577
-39.9185
-40.5954
-41.0578
-41.304
-41.3848
-41.3849
-41.3966
-41.4962
-41.7281
-42.0978
-42.5745
-43.0993
-43.5946
-43.9757
-44.1667
-44.1214
-43.8416
-43.3768
-42.8066
-42.2204
-41.7017
-41.3189
-41.1172
-41.1131
-41.2905
-41.6052
-41.9907
-42.3664
-42.6473
-42.7582
-42.6533
-42.333
-41.8431
-41.2581
-40.6622
-40.134
-39.7377
-39.5161
-39.4841
-39.6263
-39.9003
-40.2429
-40.5773
-40.8226
-40.9076
-40.789
-40.4672
-39.9859
-39.4162
-38.8377
-38.3253
-37.9399
-37.7218
-37.6854
-37.8158
-38.0726
-38.3958
-38.7122
-38.9449
-39.0262
-38.9147
-38.6108
-38.1561
-37.618
-37.0725
-36.5907
-36.2306
-36.0308
-36.0047
-36.1383
-36.3929
-36.7104
-37.0203
-37.2479
-37.3264
-37.214
-36.908
-36.4451
-35.8869
-35.3035
-34.7622
-34.3217
-34.0291
-33.9192
-34.0162
-34.3364
-34.8819
-35.626
-36.5025
-37.4073
-40.7302
-41.5536
-42.0199
-42.1121
-41.9308
-41.6377
-41.3998
-41.3495
-41.5601
-42.0333
-42.7138
-43.505
-44.2819
-44.9006
-45.2211
-45.1488
-44.6847
-43.9263
-43.0152
-42.0975
-41.3016
-40.7307
-40.455
-40.5007
-40.8404
-41.4035
-42.0883
-42.7699
-43.3084
-43.5693
-43.4618
-42.9866
-42.2354
-41.3423
-40.4452
-39.6657
-39.1013
-38.8184
-38.8417
-39.1449
-39.6607
-40.2923
-40.9211
-41.4141
-41.6438
-41.5245
-41.0571
-40.3291
-39.468
-38.605
-37.8553
-37.3116
-37.0367
-37.0541
-37.3385
-37.8262
-38.425
-39.022
-39.4909
-39.7105
-39.5988
-39.1568
-38.4676
-37.6524
-36.836
-36.1283
-35.6175
-35.3635
-35.389
-35.67
-36.1456
-36.7277
-37.3076
-37.7632
-37.9756
-37.8631
-37.422
-36.7265
-35.8866
-35.0146
-34.2089
-33.5495
-33.0968
-32.8922
-32.9641
-33.3463
-34.0711
-35.1269
-36.4246
-37.79
-41.893
-43.025
-43.5196
-43.3135
-42.6375
-41.8109
-41.1331
-40.827
-41.0138
-41.6705
-42.6934
-43.9315
-45.1972
-46.2549
-46.8414
-46.7401
-45.952
-44.6955
-43.2332
-41.7992
-40.5774
-39.7176
-39.3299
-39.4651
-40.0684
-41.0267
-42.1905
-43.3795
-44.3693
-44.9108
-44.7998
-44.0378
-42.8322
-41.4321
-40.0591
-38.8876
-38.0597
-37.6799
-37.7964
-38.3571
-39.2544
-40.3459
-41.4603
-42.3847
-42.8827
-42.7612
-42.0224
-40.8639
-39.5227
-38.2091
-37.0888
-36.2962
-35.9309
-36.0382
-36.5686
-37.4198
-38.4567
-39.5163
-40.3962
-40.8716
-40.7585
-40.0588
-38.9604
-37.6884
-36.4431
-35.3823
-34.6343
-34.294
-34.4052
-34.9212
-35.745
-36.7479
-37.7741
-38.6284
-39.0926
-38.9854
-38.3024
-37.216
-35.9322
-34.6303
-33.445
-32.4796
-31.807
-31.4673
-31.4648
-31.8631
-32.7835
-34.2795
-36.2492
-38.3941
-43.5328
-45.4113
-46.0246
-45.1886
-43.5601
-41.7701
-40.3311
-39.5949
-39.791
-40.7804
-42.3634
-44.318
-46.4121
-48.2876
-49.4521
-49.3206
-47.894
-45.7609
-43.4108
-41.1952
-39.3321
-38.0245
-37.4519
-37.7555
-38.7853
-40.3542
-42.2564
-44.2759
-46.0756
-47.1922
-47.0751
-45.7279
-43.7091
-41.483
-39.3827
-37.615
-36.3726
-35.8267
-36.1116
-37.0848
-38.5683
-40.3663
-42.2734
-43.969
-45.0139
-44.8866
-43.592
-41.6619
-39.5375
-37.5349
-35.8501
-34.6658
-34.1442
-34.413
-35.3367
-36.7462
-38.4554
-40.2695
-41.8837
-42.8802
-42.7626
-41.5351
-39.703
-37.6859
-35.7846
-34.1859
-33.0641
-32.5742
-32.8385
-33.7292
-35.0865
-36.7346
-38.4881
-40.0553
-41.0325
-40.9365
-39.7638
-37.9894
-36.0039
-34.0782
-32.3645
-30.988
-30.0378
-29.5567
-29.3883
-29.6279
-30.6671
-32.75
-35.8216
-39.3846
-45.641
-49.6132
-50.6048
-48.1946
-44.7111
-41.2231
-38.517
-37.0205
-37.426
-39.0357
-41.4982
-44.5037
-47.942
-51.344
-53.9292
-53.7659
-50.8534
-47.139
-43.3947
-40.0835
-37.2869
-35.273
-34.3124
-35.0001
-36.726
-39.2017
-42.1532
-45.4891
-48.7656
-51.2502
-51.1217
-48.385
-44.8846
-41.3528
-38.2272
-35.5858
-33.6828
-32.7771
-33.4355
-35.0776
-37.4294
-40.2297
-43.3911
-46.4905
-48.833
-48.6929
-46.0769
-42.7397
-39.3769
-36.403
-33.8907
-32.081
-31.2195
-31.8448
-33.4053
-35.6408
-38.3033
-41.3104
-44.2607
-46.4932
-46.3651
-43.8819
-40.7119
-37.5166
-34.6903
-32.3027
-30.5839
-29.7684
-30.3698
-31.8652
-34.0093
-36.5694
-39.4704
-42.3319
-44.5177
-44.4382
-42.0916
-39.0667
-35.9896
-33.2205
-30.7985
-28.8823
-27.5929
-27.196
-26.7244
-26.2412
-27.0477
-29.7969
-34.6861
-41.0947
-47.1861
-58.0986
-60.0482
-52.7124
-45.8543
-39.5458
-34.9598
-31.7069
-33.3267
-36.0631
-39.8511
-44.0661
-49.5241
-55.5768
-62.3642
-62.17
-54.9676
-48.5602
-42.7548
-38.231
-34.1149
-31.0045
-28.7995
-30.7496
-33.5869
-37.3642
-41.4964
-46.7879
-52.5959
-59.071
-58.9241
-52.1419
-46.1053
-40.6377
-36.3747
-32.4933
-29.5567
-27.4753
-29.3428
-32.0484
-35.6448
-39.5731
-44.5979
-50.1018
-56.227
-56.0644
-49.6002
-43.8541
-38.6566
-34.6061
-30.9198
-28.1306
-26.1537
-27.9299
-30.5019
-33.9204
-37.6549
-42.433
-47.6713
-53.5055
-53.3586
-47.2179
-41.7572
-36.8161
-32.964
-29.4566
-26.8029
-24.9223
-26.6135
-29.067
-32.333
-35.9134
-40.5096
-45.5812
-51.265
-51.2042
-45.3964
-40.219
-35.532
-31.8627
-28.5043
-25.8741
-23.863
-24.9426
-24.077
-20.9974
-20.6306
-23.7624
-31.3626
-44.2422
-41.1441
-79.49
-82.7473
-56.4332
-46.1748
-35.3793
-29.4806
-19.376
-27.6194
-31.5761
-37.5893
-41.8386
-50.25
-58.7518
-80.8527
-80.6659
-57.9369
-49.1147
-40.2692
-35.7915
-29.4945
-25.4325
-17.303
-25.2219
-29.094
-35.0159
-39.1703
-47.3428
-55.4655
-76.4276
-76.2816
-54.8251
-46.5066
-38.1879
-33.9728
-28.0402
-24.1993
-16.4872
-24.0433
-27.7365
-33.3823
-37.3376
-45.1148
-52.8185
-72.6756
-72.51
-52.0897
-44.1785
-36.2847
-32.2846
-26.6573
-23.0105
-15.6837
-22.8688
-26.3798
-31.7449
-35.5036
-42.893
-50.2238
-69.1308
-68.983
-49.5745
-42.0544
-34.5475
-30.7412
-25.381
-21.9087
-14.9328
-21.7596
-25.0989
-30.2038
-33.7943
-40.8644
-47.9488
-66.2846
-66.2457
-47.7931
-40.6654
-33.6085
-30.0573
-25.1614
-21.9742
-15.6823
-25.4903
-24.6176
-11.8469
-9.17557
-11.2932
-20.4368
-50.3775
-36.7942
-36.8947
-36.9664
-37.0041
-37.0059
-36.9738
-36.9125
-36.8289
-36.7312
-36.628
-36.5277
-36.4378
-36.3645
-36.3129
-36.2862
-36.8141
-36.9233
-37.0005
-37.0399
-37.0399
-37.003
-36.9347
-36.843
-36.7367
-36.6252
-36.5173
-36.421
-36.3429
-36.2879
-36.2595
-36.8563
-36.9839
-37.0723
-37.115
-37.1108
-37.0635
-36.9805
-36.8715
-36.7473
-36.6186
-36.4953
-36.3861
-36.298
-36.2362
-36.2045
-36.9259
-37.0836
-37.1898
-37.2369
-37.2248
-37.1597
-37.0522
-36.9152
-36.7624
-36.6066
-36.4593
-36.3301
-36.2266
-36.1546
-36.1177
-37.0319
-37.2348
-37.3665
-37.418
-37.3917
-37.2982
-37.1533
-36.9748
-36.7805
-36.5861
-36.4051
-36.2483
-36.1239
-36.0378
-35.9939
-37.1888
-37.4572
-37.6231
-37.677
-37.6258
-37.488
-37.2878
-37.0503
-36.7986
-36.5522
-36.3267
-36.134
-35.9828
-35.8789
-35.8261
-37.42
-37.782
-37.9919
-38.041
-37.9464
-37.7402
-37.4596
-37.14
-36.8114
-36.4973
-36.2155
-35.9783
-35.7942
-35.6689
-35.6054
-37.7636
-38.2591
-38.5213
-38.5486
-38.3786
-38.0668
-37.6705
-37.2387
-36.8095
-36.4103
-36.0596
-35.7693
-35.547
-35.3969
-35.3214
-38.2839
-38.9692
-39.2857
-39.2536
-38.9524
-38.478
-37.9168
-37.3347
-36.7776
-36.2746
-35.8431
-35.4925
-35.2276
-35.0504
-34.9617
-39.0933
-40.0482
-40.3987
-40.2277
-39.6993
-38.9761
-38.1838
-37.4058
-36.6916
-36.0676
-35.5457
-35.13
-34.8203
-34.6153
-34.5133
-40.4018
-41.7316
-42.0332
-41.5591
-40.6408
-39.5434
-38.4366
-37.4129
-36.5153
-35.7583
-35.1421
-34.6613
-34.3085
-34.0772
-33.9628
-42.6321
-44.4433
-44.4432
-43.3349
-41.7614
-40.1201
-38.606
-37.2941
-36.1985
-35.3081
-34.6033
-34.0645
-33.675
-33.4223
-33.2979
-46.7271
-48.9662
-47.9614
-45.5757
-42.9499
-40.5693
-38.5734
-36.9587
-35.6765
-34.6722
-33.8985
-33.3184
-32.9048
-32.6389
-32.5087
-55.0755
-56.733
-52.8605
-48.0565
-43.893
-40.634
-38.1596
-36.2909
-34.8766
-33.8056
-32.9999
-32.4058
-31.987
-31.7196
-31.5893
-74.7321
-70.03
-58.691
-49.8969
-43.9315
-39.9139
-37.1402
-35.1686
-33.7334
-32.6738
-31.8898
-31.3179
-30.9177
-30.6633
-30.5396
-22.6679
-22.7011
-22.769
-22.8744
-23.0226
-23.2224
-23.4881
-23.8443
-24.3358
-25.0484
-26.1617
-28.082
-31.7796
-39.4439
-53.4711
-21.7099
-21.7294
-21.7689
-21.8292
-21.9121
-22.0206
-22.1598
-22.3399
-22.5807
-22.9271
-23.491
-24.6003
-27.4173
-37.0059
-79.4202
-20.7383
-20.7439
-20.7543
-20.7683
-20.7839
-20.7974
-20.8034
-20.7933
-20.753
-20.6572
-20.4501
-19.9596
-18.4296
-11.7293
25.5449
-19.763
-19.7549
-19.7372
-19.7065
-19.6571
-19.5794
-19.4582
-19.2679
-18.9643
-18.4661
-17.6121
-16.0613
-13.0947
-7.68223
-3.8116
-18.7933
-18.7727
-18.7292
-18.6578
-18.5499
-18.3918
-18.161
-17.8212
-17.3108
-16.5225
-15.2605
-13.1548
-9.47549
-2.56091
13.5035
-17.838
-17.8064
-17.7405
-17.6343
-17.4777
-17.2546
-16.9396
-16.4929
-15.8504
-14.9079
-13.4951
-11.344
-8.10795
-3.79222
-1.97677
-16.9046
-16.864
-16.7798
-16.6459
-16.4517
-16.1812
-15.8097
-15.3006
-14.5984
-13.62
-12.2423
-10.2875
-7.49164
-3.28684
4.9787
-15.9994
-15.9518
-15.8538
-15.6993
-15.4789
-15.1778
-14.7754
-14.2423
-13.5381
-12.6093
-11.3903
-9.81516
-7.85419
-5.60128
-3.4982
-15.1274
-15.0747
-14.9669
-14.7987
-14.5619
-14.2449
-13.832
-13.3029
-12.6339
-11.8001
-10.7855
-9.61086
-8.41957
-7.81157
-10.5143
-14.2919
-14.236
-14.1219
-13.9457
-13.7008
-13.3787
-12.9691
-12.4608
-11.8442
-11.1165
-10.2919
-9.4181
-8.57988
-7.72265
-5.00677
-13.4954
-13.4376
-13.3203
-13.1403
-12.8932
-12.5733
-12.1748
-11.694
-11.1317
-10.5001
-9.83261
-9.20063
-8.75337
-8.92438
-12.0134
-12.739
-12.6805
-12.5621
-12.3817
-12.1362
-11.8223
-11.4379
-10.9836
-10.4672
-9.90867
-9.34864
-8.85489
-8.49747
-8.09964
-5.41411
-12.0234
-11.9649
-11.8471
-11.6684
-11.4267
-11.1205
-10.7494
-10.3166
-9.83212
-9.31829
-8.81865
-8.41449
-8.2696
-8.8635
-12.7005
-11.3483
-11.2906
-11.1744
-10.9987
-10.7621
-10.4637
-10.1037
-9.68539
-9.21743
-8.71807
-8.22239
-7.79404
-7.52866
-7.37508
-5.18716
-10.7134
-10.6568
-10.5431
-10.3714
-10.1406
-9.84965
-9.49855
-9.08874
-8.62458
-8.11531
-7.5794
-7.06043
-6.71005
-7.2993
-13.6184
-10.1179
-10.0628
-9.95218
-9.7852
-9.5607
-9.27745
-8.93421
-8.52985
-8.06309
-7.53109
-6.92468
-6.20974
-5.2389
-3.24437
4.43978
-9.56061
-9.50735
-9.40041
-9.23894
-9.02169
-8.74694
-8.41234
-8.01434
-7.54693
-6.99857
-6.34535
-5.53676
-4.47864
-3.14045
-3.04307
-9.04035
-8.98921
-8.88653
-8.73145
-8.52263
-8.25803
-7.93452
-7.54706
-7.08701
-6.53889
-5.87395
-5.03708
-3.91284
-2.17474
1.77248
-8.55564
-8.5069
-8.40906
-8.26132
-8.06235
-7.81007
-7.50116
-7.13022
-6.68829
-6.16037
-5.52198
-4.73699
-3.7733
-2.74305
-2.90113
-8.10481
-8.05874
-7.96628
-7.82679
-7.63913
-7.40147
-7.1109
-6.76271
-6.34932
-5.85861
-5.27185
-4.56101
-3.67995
-2.48602
-0.0487024
-7.686
-7.64281
-7.55621
-7.42576
-7.25066
-7.02965
-6.76069
-6.44052
-6.06407
-5.62359
-5.10791
-4.50325
-3.80386
-3.09233
-3.13898
-7.29723
-7.25706
-7.17663
-7.05576
-6.89412
-6.69117
-6.44607
-6.15746
-5.82334
-5.44081
-5.00579
-4.5113
-3.93616
-3.17201
-1.55652
-6.93639
-6.8993
-6.82517
-6.71411
-6.5663
-6.38201
-6.16169
-5.90604
-5.61625
-5.29453
-4.94501
-4.57539
-4.19968
-3.84277
-3.55678
-6.60135
-6.5673
-6.49939
-6.39802
-6.26384
-6.09792
-5.9019
-5.67836
-5.43138
-5.1676
-4.89821
-4.64372
-4.45012
-4.46417
-5.35815
-6.28998
-6.25886
-6.1969
-6.10474
-5.98347
-5.83476
-5.66126
-5.46699
-5.25821
-5.0446
-4.8411
-4.6698
-4.55632
-4.47438
-3.88684
-6.00027
-5.97186
-5.91541
-5.83173
-5.72218
-5.58887
-5.43507
-5.26574
-5.08843
-4.91463
-4.76166
-4.65572
-4.64061
-4.83556
-5.90044
-5.73033
-5.70437
-5.65288
-5.57673
-5.47742
-5.35725
-5.21971
-5.07007
-4.91627
-4.77022
-4.6496
-4.5786
-4.57898
-4.59249
-3.91976
-5.47845
-5.45466
-5.40751
-5.33786
-5.24719
-5.13773
-5.0128
-4.87735
-4.73875
-4.6082
-4.50313
-4.45192
-4.50821
-4.82584
-6.20509
-5.24313
-5.22122
-5.17779
-5.11364
-5.03006
-4.92899
-4.81324
-4.68684
-4.55567
-4.42853
-4.31928
-4.25061
-4.25593
-4.32183
-3.74066
-5.02306
-5.00277
-4.96251
-4.90294
-4.82511
-4.73049
-4.62112
-4.4997
-4.36984
-4.23649
-4.10728
-3.99793
-3.96155
-4.26702
-6.57962
-4.81712
-4.79822
-4.76068
-4.70497
-4.63185
-4.54228
-4.43741
-4.31846
-4.18647
-4.04163
-3.88151
-3.69461
-3.42973
-2.81825
-0.218782
-4.62435
-4.60667
-4.5715
-4.51915
-4.45007
-4.36474
-4.26352
-4.14632
-4.01206
-3.85741
-3.67439
-3.44546
-3.13857
-2.74989
-2.85788
-4.44389
-4.42732
-4.39428
-4.34498
-4.27961
-4.19828
-4.10076
-3.98609
-3.85186
-3.69295
-3.49917
-3.25046
-2.90419
-2.33648
-0.928484
-4.27498
-4.25944
-4.22841
-4.18201
-4.12028
-4.04312
-3.94997
-3.83947
-3.70883
-3.55275
-3.36215
-3.12324
-2.82355
-2.50646
-2.66415
-4.11692
-4.10235
-4.07326
-4.02972
-3.97173
-3.89909
-3.81125
-3.7069
-3.58351
-3.43658
-3.25871
-3.03824
-2.75497
-2.34657
-1.42309
-3.96901
-3.95539
-3.9282
-3.88752
-3.83337
-3.76568
-3.68405
-3.5876
-3.47457
-3.34194
-3.1849
-2.99687
-2.77325
-2.54424
-2.6263
-3.8306
-3.81789
-3.79255
-3.7547
-3.70448
-3.64198
-3.56719
-3.47985
-3.3793
-3.26429
-3.13266
-2.98023
-2.79525
-2.52575
-1.87666
-3.70106
-3.68922
-3.66564
-3.63052
-3.58415
-3.52687
-3.4591
-3.38132
-3.29411
-3.19823
-3.0949
-2.98622
-2.87591
-2.77071
-2.68543
-3.57978
-3.56873
-3.54678
-3.51421
-3.47144
-3.41908
-3.358
-3.28939
-3.21498
-3.13739
-3.06091
-2.99335
-2.95299
-3.0017
-3.43465
-3.46621
-3.45587
-3.43535
-3.40502
-3.36542
-3.3174
-3.26218
-3.20154
-3.1381
-3.07583
-3.02075
-2.98163
-2.96817
-2.96572
-2.72683
-3.35987
-3.35011
-3.33079
-3.3023
-3.2653
-3.22077
-3.17018
-3.11567
-3.06045
-3.00933
-2.96955
-2.95209
-2.97569
-3.09377
-3.61016
-3.26035
-3.25104
-3.23263
-3.20554
-3.17044
-3.1284
-3.08093
-3.03033
-2.97999
-2.935
-2.9029
-2.89407
-2.91757
-2.94507
-2.64886
-3.16733
-3.15834
-3.14055
-3.11437
-3.08046
-3.03983
-2.99391
-2.94487
-2.89587
-2.85175
-2.82013
-2.81361
-2.85663
-3.02103
-3.68444
-3.08059
-3.07178
-3.05433
-3.02861
-2.9952
-2.95496
-2.90912
-2.85941
-2.80839
-2.75988
-2.71996
-2.69878
-2.71138
-2.7503
-2.47894
-3.00002
-2.99127
-2.97391
-2.94824
-2.91473
-2.87403
-2.82704
-2.77492
-2.71922
-2.66208
-2.60681
-2.56051
-2.54781
-2.69492
-3.78614
-2.92557
-2.91677
-2.89929
-2.87335
-2.83929
-2.79752
-2.74857
-2.69296
-2.6311
-2.56301
-2.48746
-2.39894
-2.27324
-1.98375
-0.757128
-2.85727
-2.84835
-2.83059
-2.80415
-2.76923
-2.72605
-2.67477
-2.61537
-2.54734
-2.46917
-2.37717
-2.26321
-2.11237
-1.92323
-1.96969
-2.7952
-2.7861
-2.76796
-2.74088
-2.70495
-2.66023
-2.60665
-2.54381
-2.47067
-2.38498
-2.28216
-2.1531
-1.97806
-1.69896
-1.02477
-2.73948
-2.73018
-2.71159
-2.68378
-2.6468
-2.60061
-2.54501
-2.47945
-2.40276
-2.31271
-2.20542
-2.07494
-1.91599
-1.74891
-1.80084
-2.69027
-2.68073
-2.66166
-2.63311
-2.59509
-2.54757
-2.49032
-2.42285
-2.34416
-2.25247
-2.14482
-2.01658
-1.85953
-1.64665
-1.20297
-2.64773
-2.63793
-2.61835
-2.58903
-2.55003
-2.50132
-2.44278
-2.37409
-2.29464
-2.20333
-2.09854
-1.97823
-1.8418
-1.70454
-1.70643
-2.61204
-2.60196
-2.58183
-2.55173
-2.51174
-2.46192
-2.40231
-2.33285
-2.25337
-2.16359
-2.06309
-1.9511
-1.82463
-1.66568
-1.35796
-2.58338
-2.573
-2.55228
-2.52134
-2.48031
-2.42937
-2.36872
-2.2986
-2.2193
-2.13134
-2.03564
-1.93403
-1.82999
-1.73
-1.6485
-2.56197
-2.55124
-2.52987
-2.49798
-2.4558
-2.4036
-2.34175
-2.27075
-2.19129
-2.1045
-2.01233
-1.91866
-1.8325
-1.78138
-1.88218
-2.54803
-2.53692
-2.51479
-2.48181
-2.43828
-2.38456
-2.32118
-2.24881
-2.16841
-2.08142
-1.9901
-1.89811
-1.81063
-1.72716
-1.57427
-2.54185
-2.53029
-2.50727
-2.47301
-2.42786
-2.37227
-2.30687
-2.23247
-2.15015
-2.06139
-1.96835
-1.87443
-1.78596
-1.72103
-1.77127
-2.54373
-2.53164
-2.50758
-2.47181
-2.42471
-2.36683
-2.29885
-2.22167
-2.13638
-2.04435
-1.94725
-1.84699
-1.74492
-1.63482
-1.44927
-2.55404
-2.54133
-2.51606
-2.4785
-2.4291
-2.36843
-2.29726
-2.21652
-2.12733
-2.03088
-1.92837
-1.82083
-1.70942
-1.60091
-1.55184
-2.5732
-2.55978
-2.5331
-2.49346
-2.44133
-2.37734
-2.30233
-2.21729
-2.12334
-2.02163
-1.91302
-1.79738
-1.67188
-1.52563
-1.3191
-2.6017
-2.58747
-2.55917
-2.51712
-2.46182
-2.39395
-2.3144
-2.22426
-2.12478
-2.01721
-1.90256
-1.78078
-1.64872
-1.4921
-1.24375
-2.64011
-2.62496
-2.59481
-2.55001
-2.49106
-2.41869
-2.33386
-2.23776
-2.13185
-2.01774
-1.89708
-1.77134
-1.64259
-1.5222
-1.49815
-2.68907
-2.67288
-2.64067
-2.59275
-2.52965
-2.45211
-2.36115
-2.2581
-2.14464
-2.02285
-1.89514
-1.76401
-1.63062
-1.4853
-1.23326
-2.7493
-2.73197
-2.69744
-2.64605
-2.57828
-2.49488
-2.39688
-2.28569
-2.16323
-2.03208
-1.8956
-1.75824
-1.62693
-1.52245
-1.56904
-2.82159
-2.80301
-2.76596
-2.71074
-2.6378
-2.54782
-2.44178
-2.32112
-2.18789
-2.04503
-1.89669
-1.74828
-1.60458
-1.45459
-1.16117
-2.90682
-2.88689
-2.84713
-2.78777
-2.70918
-2.61192
-2.49686
-2.36531
-2.21925
-2.06181
-1.89785
-1.73504
-1.58659
-1.48628
-1.60153
-3.0059
-2.98455
-2.94192
-2.87817
-2.79353
-2.68841
-2.56343
-2.41958
-2.25853
-2.08314
-1.89824
-1.71183
-1.53514
-1.36821
-1.06965
-3.11984
-3.09702
-3.05141
-2.98308
-2.89213
-2.77872
-2.64311
-2.4858
-2.3078
-2.11109
-1.89967
-1.68188
-1.47691
-1.34147
-1.50848
-3.24963
-3.22533
-3.1767
-3.10373
-3.00635
-2.88445
-2.73787
-2.56642
-2.37008
-2.14926
-1.90555
-1.64302
-1.37036
-1.10465
-0.885004
-3.39633
-3.37054
-3.31891
-3.24135
-3.13762
-3.00734
-2.84991
-2.66435
-2.44937
-2.20333
-1.92451
-1.61121
-1.25898
-0.835771
-0.108883
-3.56095
-3.53371
-3.47916
-3.39714
-3.28733
-3.14912
-2.98148
-2.78274
-2.55025
-2.28018
-1.96742
-1.60645
-1.19687
-0.777734
-0.672397
-3.7445
-3.71586
-3.6585
-3.57226
-3.45677
-3.31134
-3.13468
-2.92457
-2.67724
-2.3867
-2.04381
-1.63545
-1.14138
-0.501732
0.681862
-3.94796
-3.91796
-3.85791
-3.7677
-3.64703
-3.49526
-3.31113
-3.09225
-2.83426
-2.52958
-2.16568
-1.72396
-1.18699
-0.603422
-0.54792
-4.17227
-4.14094
-4.07829
-3.98431
-3.85888
-3.70166
-3.51173
-3.2871
-3.0237
-2.7136
-2.3416
-1.87862
-1.26494
-0.338357
1.667
-4.41835
-4.38568
-4.32043
-4.22276
-4.09284
-3.93079
-3.73644
-3.50889
-3.2456
-2.9406
-2.58071
-2.13794
-1.56018
-0.822402
-0.659662
-4.68713
-4.65307
-4.58511
-4.48361
-4.34911
-4.18236
-3.98423
-3.7555
-3.49646
-3.20574
-2.8774
-2.49101
-1.96654
-0.907076
3.06104
-4.97958
-4.944
-4.87308
-4.76738
-4.6278
-4.45575
-4.25326
-4.02317
-3.76933
-3.49701
-3.21439
-2.93997
-2.7444
-3.01162
-6.17752
-5.29674
-5.25947
-5.18523
-5.07469
-4.92904
-4.75027
-4.54147
-4.30735
-4.05505
-3.79544
-3.5457
-3.33417
-3.20087
-3.10315
-1.89961
-5.6398
-5.60063
-5.52259
-5.40638
-5.2533
-5.06566
-4.84726
-4.60416
-4.34586
-4.08701
-3.85049
-3.67406
-3.63261
-3.96259
-5.97185
-6.01006
-5.96879
-5.88647
-5.76367
-5.60157
-5.40243
-5.1702
-4.91154
-4.63706
-4.36308
-4.11355
-3.9202
-3.80642
-3.65584
-2.25338
-6.40899
-6.36547
-6.27847
-6.14826
-5.97558
-5.76217
-5.51151
-5.22991
-4.92791
-4.62216
-4.33761
-4.11108
-4.00577
-4.21842
-5.93145
-6.83816
-6.79234
-6.70049
-6.56234
-6.37787
-6.14778
-5.87432
-5.56245
-5.22138
-4.86654
-4.52138
-4.21778
-3.98431
-3.73906
-2.42858
-7.29915
-7.25117
-7.15466
-7.00861
-6.81185
-6.56351
-6.26381
-5.91526
-5.52443
-5.10418
-4.67629
-4.27579
-3.97102
-3.99942
-5.64142
-7.79346
-7.74372
-7.64323
-7.49009
-7.28165
-7.01491
-6.68721
-6.29743
-5.84791
-5.34713
-4.81219
-4.26731
-3.72635
-3.13922
-2.36872
-8.32233
-8.2715
-8.16838
-8.00998
-7.79195
-7.50866
-7.15374
-6.7211
-6.207
-5.61379
-4.95501
-4.25611
-3.51373
-2.40635
1.43906
-8.88648
-8.83562
-8.7319
-8.57129
-8.34755
-8.05214
-7.67424
-7.20133
-6.62103
-5.92598
-5.12569
-4.2751
-3.55459
-3.57488
-6.97983
-9.48597
-9.43644
-9.33494
-9.17645
-8.95294
-8.65291
-8.26073
-7.75615
-7.11475
-6.31127
-5.33129
-4.20376
-3.081
-2.39294
-2.86615
-10.1198
-10.0733
-9.97757
-9.82675
-9.61146
-9.31767
-8.92527
-8.40599
-7.72101
-6.81913
-5.63936
-4.12911
-2.30552
-0.404561
0.918913
-10.786
-10.7445
-10.6584
-10.5218
-10.3245
-10.0509
-9.67791
-9.1709
-8.4779
-7.51997
-6.17692
-4.27206
-1.58375
1.98485
5.62305
-11.4811
-11.4464
-11.3744
-11.2591
-11.0905
-10.8532
-10.5236
-10.065
-9.41878
-8.48825
-7.10463
-4.95908
-1.4733
4.32593
12.8537
-12.2002
-12.1744
-12.1205
-12.0333
-11.9042
-11.7197
-11.4589
-11.0892
-10.5571
-9.77117
-8.56147
-6.57681
-2.96941
4.77217
26.0064
-146.999
-88.3026
-61.7031
-48.9911
-42.1813
-38.1136
-35.4704
-33.6479
-32.3413
-31.3837
-30.6776
-30.1634
-29.8037
-29.5751
-29.464
-182.933
-82.6245
-54.7972
-44.0687
-38.686
-35.4878
-33.3826
-31.9072
-30.8333
-30.0362
-29.4424
-29.0065
-28.6999
-28.5043
-28.409
47.2946
-26.6122
-36.0173
-35.4341
-33.6737
-32.1028
-30.8574
-29.8876
-29.1331
-28.5474
-28.0974
-27.7599
-27.519
-27.3638
-27.2878
-6.97326
-15.3929
-24.1738
-27.6169
-28.5298
-28.4918
-28.1407
-27.7185
-27.3157
-26.9644
-26.6743
-26.4463
-26.2785
-26.1683
-26.1138
26.1808
-3.92275
-16.0371
-21.5567
-24.0461
-25.0983
-25.4733
-25.536
-25.4624
-25.3389
-25.208
-25.0909
-24.998
-24.9342
-24.9019
-1.33487
-4.94516
-12.4802
-17.6007
-20.5607
-22.175
-23.0229
-23.448
-23.6439
-23.7185
-23.7322
-23.7187
-23.6972
-23.6782
-23.6675
11.664
-3.24205
-10.6001
-15.1452
-18.0096
-19.784
-20.8662
-21.5191
-21.9095
-22.1405
-22.2752
-22.3521
-22.3946
-22.4165
-22.4257
-2.99329
-6.78057
-10.6735
-13.8568
-16.2154
-17.8736
-19.0075
-19.7725
-20.2858
-20.6293
-20.8584
-21.0094
-21.1062
-21.1636
-21.1903
-15.0205
-10.2457
-11.2398
-13.1411
-14.9077
-16.3274
-17.405