/*--------------------------------*- C++ -*----------------------------------*\
| =========                 |                                                 |
| \\      /  F ield         | OpenFOAM: The Open Source CFD Toolbox           |
|  \\    /   O peration     | Version:  5.x                                   |
|   \\  /    A nd           | Web:      www.OpenFOAM.org                      |
|    \\/     M anipulation  |                                                 |
\*---------------------------------------------------------------------------*/
FoamFile
{
    version     2.0;
    format      ascii;
    class       volScalarField;
    location    "7.8";
    object      gradTy;
}
// * * * * * * * * * * * * * * * * * * * * * * * * * * * * * * * * * * * * * //

dimensions      [0 -1 0 1 0 0 0];

internalField   nonuniform List<scalar> 
3200
(
18.2486
8.63571
11.7297
8.31232
9.74968
8.03974
8.79391
7.79269
8.24158
7.60076
7.87616
7.51728
7.72774
7.31741
7.52966
7.1394
7.33857
6.98002
7.16178
6.83789
7.0012
6.71228
6.85735
6.60225
6.73024
6.50612
6.62036
6.42076
6.53572
6.36662
6.2315
6.31864
6.20019
6.25783
6.16571
6.21034
6.13639
6.17228
6.11219
6.14137
6.09236
6.11614
6.07622
6.09551
6.06325
6.07868
6.05314
6.06503
6.04594
6.05411
6.04305
6.04918
6.03764
6.043
6.0341
6.03771
6.03283
6.03385
6.03454
6.03186
6.04063
6.03228
6.05365
6.03582
6.07862
6.04275
6.1265
6.04832
6.22315
6.00072
6.29313
7.10892
6.4216
7.94777
6.78061
9.89649
9.12581
9.00796
8.98363
8.97839
17.0091
9.75164
11.3321
8.77631
9.54694
8.26993
8.6737
7.92523
8.16443
7.68497
7.83201
7.56414
7.67629
7.3689
7.48102
7.18867
7.29398
7.02542
7.12155
6.87896
6.96536
6.74896
6.82572
6.63466
6.70242
6.53459
6.59523
6.44595
6.50827
6.37042
6.25639
6.30427
6.21581
6.24653
6.17759
6.20125
6.14588
6.1649
6.1199
6.13535
6.09865
6.11124
6.08135
6.09156
6.0674
6.07556
6.05644
6.06272
6.04842
6.05276
6.0445
6.04776
6.03911
6.04194
6.03527
6.03716
6.0335
6.03403
6.03454
6.03309
6.03965
6.03518
6.05115
6.0416
6.07357
6.05427
6.1167
6.0739
6.20335
6.07613
6.35162
6.99361
6.62345
7.76508
7.15804
9.50313
9.09965
9.00417
8.98281
8.97813
16.0598
10.514
11.0999
9.10719
9.42604
8.43285
8.59952
8.01822
8.11597
7.74407
7.80441
7.59574
7.64158
7.40355
7.44851
7.22199
7.26429
7.05618
7.09483
6.90682
6.94157
6.77387
6.80475
6.65668
6.68397
6.55388
6.57845
6.46263
6.48879
6.37322
6.27476
6.29532
6.22663
6.2392
6.18573
6.1953
6.15238
6.16005
6.12516
6.13139
6.10294
6.10802
6.08485
6.08896
6.07023
6.07352
6.0587
6.06122
6.05015
6.05191
6.04548
6.04681
6.04011
6.04124
6.03607
6.03683
6.03399
6.03419
6.0346
6.03399
6.03909
6.03725
6.04966
6.04572
6.07057
6.06251
6.11109
6.09259
6.19382
6.13543
6.39545
6.91879
6.76483
7.65236
7.41741
9.21975
9.06122
8.99746
8.98138
8.97773
15.3323
11.0311
10.9708
9.34561
9.35762
8.54936
8.55526
8.08404
8.0863
7.78587
7.78758
7.61716
7.61822
7.42689
7.42686
7.24456
7.24462
7.07706
7.07717
6.92578
6.92589
6.79083
6.79095
6.67168
6.67182
6.56698
6.56729
6.47364
6.47498
6.37535
6.28838
6.28995
6.23419
6.2345
6.19136
6.19145
6.15685
6.1569
6.12878
6.12882
6.1059
6.10592
6.08725
6.08728
6.07219
6.0722
6.06027
6.06027
6.05136
6.05139
6.04615
6.04617
6.0408
6.04079
6.03665
6.03664
6.03437
6.03435
6.0347
6.03467
6.03881
6.03875
6.04882
6.04869
6.06888
6.06848
6.10817
6.10648
6.19067
6.18199
6.42875
6.87107
6.86456
7.58454
7.59528
9.01482
9.01899
8.98884
8.97945
8.97718
14.7769
11.3785
10.9043
9.51854
9.32202
8.63332
8.53008
8.13093
8.06873
7.81559
7.77762
7.63173
7.60256
7.44257
7.4125
7.25982
7.23166
7.09124
7.06557
6.93867
6.91561
6.80239
6.78192
6.68191
6.66386
6.57588
6.55989
6.48085
6.46521
6.37696
6.29845
6.28687
6.23952
6.23154
6.19525
6.18899
6.15993
6.15488
6.13128
6.12717
6.10793
6.10458
6.08892
6.0862
6.07354
6.07137
6.06136
6.05968
6.05221
6.05107
6.04661
6.04576
6.04128
6.04051
6.03705
6.03654
6.03465
6.0345
6.03482
6.03518
6.0387
6.03985
6.0484
6.05084
6.06801
6.07285
6.1069
6.11694
6.19123
6.21834
6.45422
6.8413
6.93522
7.54509
7.7168
8.8665
8.97813
8.97939
8.97723
8.97654
14.3574
11.609
10.8743
9.6439
9.3061
8.69385
8.51673
8.16434
8.0588
7.83671
7.77198
7.64162
7.59213
7.45305
7.40304
7.27011
7.22319
7.10083
7.05801
6.94741
6.90894
6.81024
6.77606
6.68885
6.65871
6.5819
6.55501
6.48552
6.45835
6.37819
6.30584
6.28522
6.24327
6.22972
6.19794
6.18743
6.16205
6.1536
6.13299
6.12612
6.10933
6.10373
6.09006
6.08552
6.07447
6.07084
6.06211
6.05931
6.05282
6.05089
6.04693
6.04549
6.04161
6.04034
6.03734
6.03649
6.03487
6.03462
6.03493
6.03556
6.03869
6.04065
6.04821
6.0524
6.06764
6.07605
6.10659
6.12483
6.19368
6.24634
6.47365
6.82326
6.98525
7.52317
7.7992
8.7597
8.9417
8.97008
8.97495
8.97588
14.0478
11.7589
10.8642
9.73355
9.30115
8.73697
8.5104
8.18787
8.05353
7.85152
7.76897
7.64828
7.58529
7.45997
7.3969
7.27696
7.21773
7.10724
7.05317
6.95327
6.90468
6.8155
6.77233
6.69352
6.65542
6.58592
6.55184
6.4885
6.4536
6.3791
6.31116
6.28442
6.24588
6.22862
6.19978
6.18648
6.16349
6.1528
6.13416
6.12547
6.11028
6.1032
6.09083
6.08509
6.07511
6.07052
6.06263
6.0591
6.05323
6.05079
6.04714
6.04531
6.04183
6.04024
6.03754
6.03647
6.03502
6.03473
6.03503
6.03585
6.03872
6.04123
6.04817
6.05352
6.06755
6.07837
6.10678
6.13069
6.19678
6.26735
6.48818
6.81272
7.02024
7.51172
7.85422
8.68404
8.9114
8.96171
8.97284
8.97525
13.8298
11.8531
10.8634
9.79527
9.30148
8.76659
8.50791
8.20387
8.05096
7.86156
7.76748
7.65263
7.58093
7.4644
7.39303
7.28138
7.21432
7.11139
7.05016
6.95707
6.90203
6.81892
6.77003
6.69655
6.65338
6.58853
6.54983
6.49034
6.45043
6.37975
6.31484
6.28409
6.24764
6.22799
6.201
6.18591
6.16444
6.15232
6.13493
6.12508
6.1109
6.10288
6.09135
6.08484
6.07553
6.07033
6.06298
6.05897
6.05351
6.05074
6.04728
6.0452
6.04197
6.04018
6.03768
6.03647
6.03514
6.03481
6.03512
6.03605
6.03877
6.04163
6.04818
6.0543
6.06758
6.07998
6.10715
6.13487
6.1997
6.28234
6.49857
6.80686
7.04388
7.50623
7.88975
8.63248
8.88819
8.95491
8.97107
8.97472
13.6909
11.9077
10.8658
9.83402
9.30345
8.78516
8.50723
8.21383
8.04986
7.86779
7.76682
7.65525
7.57837
7.46702
7.39077
7.28401
7.21234
7.11388
7.04842
6.95934
6.90052
6.82098
6.76871
6.69837
6.65221
6.59008
6.54866
6.49139
6.4485
6.38017
6.31715
6.28399
6.24873
6.22765
6.20174
6.18559
6.16502
6.15206
6.13539
6.12486
6.11128
6.1027
6.09166
6.0847
6.07578
6.07022
6.06319
6.05891
6.05369
6.05072
6.04737
6.04514
6.04206
6.04014
6.03776
6.03648
6.03521
6.03486
6.03517
6.03617
6.03881
6.04188
6.04821
6.05478
6.06764
6.081
6.10749
6.13756
6.20191
6.292
6.50527
6.80386
7.0585
7.5039
7.91091
8.6004
8.87254
8.95013
8.96981
8.97434
13.6232
11.9328
10.8678
9.85271
9.30493
8.79412
8.50716
8.2186
8.04947
7.87077
7.76658
7.65648
7.57718
7.46824
7.38973
7.28524
7.21144
7.11504
7.04763
6.96041
6.89982
6.82194
6.7681
6.69923
6.65168
6.59081
6.54812
6.49187
6.44758
6.38037
6.31826
6.28397
6.24925
6.22751
6.20209
6.18545
6.16529
6.15194
6.13561
6.12476
6.11146
6.10263
6.0918
6.08464
6.0759
6.07018
6.06329
6.05888
6.05377
6.05071
6.04741
6.04511
6.0421
6.04013
6.0378
6.03648
6.03524
6.03489
6.0352
6.03624
6.03883
6.04201
6.04824
6.05502
6.06769
6.0815
6.10769
6.13888
6.20309
6.29673
6.50856
6.80261
7.06549
7.5031
7.92077
8.58502
8.86467
8.94767
8.96915
8.97414
-13.7625
-11.957
-10.728
-9.38878
-8.57837
-7.68653
-7.12457
-6.47269
-6.05766
-5.57556
-5.28211
-4.95646
-4.71883
-4.3903
-4.15459
-3.84286
-3.625
-3.34377
-3.14948
-2.9013
-2.73073
-2.51383
-2.36501
-2.17599
-2.04595
-1.87997
-1.76338
-1.60935
-1.4869
-1.29919
-1.12342
-1.02478
-0.922404
-0.857045
-0.77891
-0.726766
-0.662253
-0.618707
-0.564327
-0.527499
-0.481382
-0.45014
-0.411026
-0.384591
-0.351606
-0.329485
-0.302178
-0.284281
-0.262876
-0.249666
-0.23477
-0.223798
-0.208516
-0.197505
-0.182882
-0.172638
-0.15938
-0.150211
-0.138488
-0.130445
-0.120248
-0.113333
-0.104705
-0.0990903
-0.0925307
-0.0891771
-0.0871371
-0.0905809
-0.104837
-0.138752
-0.228835
-0.374932
-0.5295
-0.815963
-1.11862
-1.62773
-1.8431
-1.9071
-1.92367
-1.92752
-13.8347
-11.9339
-10.7324
-9.36764
-8.58163
-7.67333
-7.12818
-6.46322
-6.06034
-5.56802
-5.2834
-4.95295
-4.72248
-4.38659
-4.15764
-3.83911
-3.62754
-3.34029
-3.15164
-2.8982
-2.73258
-2.51111
-2.36662
-2.17364
-2.0474
-1.87799
-1.76488
-1.60809
-1.48951
-1.29871
-1.12034
-1.02493
-0.920926
-0.857559
-0.777872
-0.727263
-0.661417
-0.619143
-0.563627
-0.527872
-0.480789
-0.450457
-0.410521
-0.384854
-0.351173
-0.329694
-0.301803
-0.284423
-0.26255
-0.249735
-0.234614
-0.223972
-0.208347
-0.19765
-0.182708
-0.172759
-0.159217
-0.150314
-0.138342
-0.130532
-0.120118
-0.113402
-0.104586
-0.0991288
-0.0924031
-0.0891253
-0.0869184
-0.090149
-0.104051
-0.136506
-0.226595
-0.374594
-0.524224
-0.815315
-1.11036
-1.63948
-1.84916
-1.909
-1.92418
-1.92768
-13.983
-11.8829
-10.7433
-9.32335
-8.58979
-7.64562
-7.13658
-6.44328
-6.06661
-5.55217
-5.28653
-4.94544
-4.73034
-4.3786
-4.16427
-3.83108
-3.63311
-3.33288
-3.1564
-2.8916
-2.73668
-2.50532
-2.37018
-2.16862
-2.05057
-1.87377
-1.76814
-1.6053
-1.49502
-1.29774
-1.11394
-1.02543
-0.917825
-0.858728
-0.775675
-0.728371
-0.65964
-0.62011
-0.562139
-0.528701
-0.479528
-0.45116
-0.409447
-0.38544
-0.350253
-0.330161
-0.30101
-0.284746
-0.261862
-0.249897
-0.23428
-0.224346
-0.207981
-0.197967
-0.182336
-0.173026
-0.15887
-0.150541
-0.13803
-0.130724
-0.11984
-0.113557
-0.104332
-0.0992189
-0.0921385
-0.0890313
-0.0864828
-0.089291
-0.102523
-0.131955
-0.222039
-0.37419
-0.51329
-0.814509
-1.09274
-1.66401
-1.8612
-1.91268
-1.92515
-1.92797
-14.2152
-11.7935
-10.7655
-9.2516
-8.60638
-7.60051
-7.15235
-6.41067
-6.0784
-5.52638
-5.29269
-4.93289
-4.74367
-4.36513
-4.17567
-3.81765
-3.64278
-3.32052
-3.16469
-2.8806
-2.74383
-2.49568
-2.37639
-2.16026
-2.05609
-1.86671
-1.77368
-1.60042
-1.50401
-1.29624
-1.10373
-1.02669
-0.912787
-0.860858
-0.77205
-0.73034
-0.656697
-0.621818
-0.559671
-0.530161
-0.477436
-0.452399
-0.407666
-0.386476
-0.348732
-0.330992
-0.299702
-0.285335
-0.26074
-0.250207
-0.233721
-0.224979
-0.207363
-0.19851
-0.181712
-0.173487
-0.158291
-0.150936
-0.137511
-0.13106
-0.11938
-0.113829
-0.103916
-0.0993885
-0.0917157
-0.0889158
-0.0858338
-0.0880166
-0.100349
-0.124978
-0.215001
-0.374309
-0.495871
-0.814623
-1.06339
-1.7035
-1.87908
-1.91792
-1.92651
-1.92838
-14.5444
-11.6483
-10.8071
-9.14512
-8.6374
-7.5331
-7.17987
-6.36169
-6.09898
-5.48786
-5.30389
-4.91353
-4.76458
-4.3441
-4.19381
-3.7969
-3.65835
-3.30151
-3.17812
-2.86371
-2.75545
-2.48089
-2.38649
-2.14743
-2.06503
-1.8558
-1.78244
-1.59247
-1.51745
-1.29413
-1.08891
-1.02944
-0.905273
-0.864466
-0.766543
-0.733589
-0.652207
-0.624619
-0.555901
-0.532552
-0.47424
-0.454427
-0.404946
-0.388175
-0.346412
-0.332367
-0.297719
-0.286335
-0.259057
-0.250756
-0.232853
-0.225969
-0.206395
-0.199371
-0.180746
-0.174229
-0.1574
-0.151575
-0.136715
-0.131606
-0.118675
-0.114278
-0.103284
-0.0996848
-0.0910988
-0.0888124
-0.0849749
-0.086337
-0.0976828
-0.115386
-0.205191
-0.375937
-0.470565
-0.817537
-1.0184
-1.76157
-1.90242
-1.92438
-1.92814
-1.92886
-14.9894
-11.421
-10.8815
-8.99247
-8.69229
-7.43565
-7.22599
-6.2905
-6.1335
-5.43227
-5.32336
-4.88452
-4.79636
-4.31227
-4.22182
-3.76583
-3.68265
-3.27316
-3.1992
-2.83858
-2.77372
-2.4589
-2.40237
-2.12833
-2.07905
-1.83945
-1.79586
-1.57992
-1.53684
-1.29129
-1.06826
-1.03477
-0.894427
-0.870362
-0.758441
-0.738777
-0.645566
-0.629067
-0.550317
-0.536344
-0.469505
-0.457644
-0.400919
-0.390875
-0.342985
-0.334568
-0.294807
-0.287972
-0.256615
-0.251691
-0.231546
-0.227467
-0.204927
-0.200699
-0.179297
-0.175384
-0.15607
-0.152577
-0.135529
-0.132467
-0.11763
-0.114991
-0.102358
-0.100181
-0.0902307
-0.0887717
-0.0839087
-0.0842587
-0.0947632
-0.102911
-0.192145
-0.380611
-0.435166
-0.826295
-0.951705
-1.84374
-1.93053
-1.93156
-1.92989
-1.92937
-15.5771
-11.0724
-11.01
-8.77627
-8.78544
-7.29632
-7.30115
-6.18818
-6.1898
-5.35298
-5.35603
-4.84148
-4.84398
-4.26469
-4.26446
-3.71984
-3.72002
-3.2314
-3.23175
-2.80162
-2.802
-2.42659
-2.42696
-2.10026
-2.10068
-1.81527
-1.81618
-1.56046
-1.56432
-1.28756
-1.04004
-1.04438
-0.878933
-0.879774
-0.746651
-0.74691
-0.63586
-0.636008
-0.542145
-0.542253
-0.462573
-0.462658
-0.395026
-0.395092
-0.337981
-0.338024
-0.29058
-0.290592
-0.253119
-0.253237
-0.229598
-0.229705
-0.202727
-0.202714
-0.17715
-0.177156
-0.154107
-0.154122
-0.133785
-0.133799
-0.116098
-0.116104
-0.101014
-0.10099
-0.0890237
-0.0888679
-0.0826347
-0.0817749
-0.0919384
-0.0871924
-0.17513
-0.390642
-0.386303
-0.845681
-0.854349
-1.95811
-1.96206
-1.93884
-1.9316
-1.92985
-16.345
-10.5462
-11.2253
-8.47035
-8.93853
-7.09724
-7.42103
-6.04127
-6.27964
-5.2401
-5.4094
-4.77777
-4.91488
-4.19396
-4.32888
-3.65207
-3.77693
-3.17009
-3.28152
-2.74745
-2.84531
-2.37924
-2.46464
-2.05909
-2.13375
-1.77965
-1.84678
-1.53063
-1.60304
-1.28267
-1.00174
-1.06079
-0.856791
-0.894548
-0.729528
-0.759497
-0.621709
-0.646711
-0.530217
-0.551356
-0.452453
-0.470382
-0.386428
-0.401597
-0.330693
-0.343381
-0.284456
-0.294712
-0.248119
-0.255733
-0.226701
-0.233028
-0.199451
-0.205752
-0.173981
-0.179852
-0.151224
-0.156482
-0.131227
-0.135841
-0.113859
-0.117823
-0.0990691
-0.102277
-0.0873451
-0.0892081
-0.0811464
-0.0788509
-0.0897107
-0.0677674
-0.153012
-0.409466
-0.318892
-0.883096
-0.71319
-2.11647
-1.99467
-1.94549
-1.93309
-1.93027
-17.3449
-9.76095
-11.5779
-8.03552
-9.184
-6.81156
-7.60906
-5.82965
-6.4206
-5.07888
-5.49482
-4.68331
-5.0201
-4.089
-4.42577
-3.55223
-3.86312
-3.08005
-3.35711
-2.66801
-2.91119
-2.30984
-2.52196
-1.99873
-2.18397
-1.72717
-1.8927
-1.48525
-1.65746
-1.2762
-0.949844
-1.08772
-0.824981
-0.917436
-0.704608
-0.778798
-0.601048
-0.663076
-0.512785
-0.565262
-0.437661
-0.482184
-0.373866
-0.411547
-0.320062
-0.351604
-0.275566
-0.301108
-0.240954
-0.259698
-0.222391
-0.237948
-0.19458
-0.210315
-0.169307
-0.183929
-0.146986
-0.160063
-0.127477
-0.138947
-0.110583
-0.12045
-0.0962462
-0.10429
-0.0849955
-0.0899459
-0.0794282
-0.0754013
-0.0887957
-0.0440554
-0.124046
-0.442173
-0.22529
-0.949875
-0.509103
-2.33584
-2.02439
-1.95067
-1.93419
-1.93057
-18.6484
-8.59993
-12.1453
-7.41338
-9.57064
-6.39942
-7.90049
-5.52354
-6.63919
-4.84767
-5.62967
-4.54324
-5.17636
-3.93365
-4.57139
-3.40533
-3.99338
-2.9479
-3.47165
-2.55156
-3.01113
-2.20818
-2.60896
-1.91028
-2.26014
-1.65005
-1.96179
-1.41691
-1.73426
-1.26774
-0.879571
-1.13086
-0.779138
-0.95271
-0.668369
-0.808337
-0.570945
-0.688084
-0.48738
-0.586508
-0.416111
-0.500226
-0.355581
-0.426779
-0.304617
-0.364237
-0.262712
-0.31103
-0.230722
-0.265995
-0.216052
-0.245312
-0.187425
-0.217227
-0.162482
-0.190142
-0.140815
-0.16554
-0.122026
-0.14371
-0.105835
-0.124499
-0.0921862
-0.107449
-0.0817245
-0.0913508
-0.0774939
-0.0712984
-0.0902436
-0.0153918
-0.0855811
-0.496291
-0.0940421
-1.06326
-0.214312
-2.64072
-2.04457
-1.95354
-1.93475
-1.93071
18.6484
8.59993
12.1452
7.41338
9.57063
6.39941
7.90049
5.52354
6.63919
4.84767
5.62966
4.54324
5.17636
3.93365
4.57139
3.40533
3.99338
2.9479
3.47165
2.55156
3.01113
2.20817
2.60896
1.91028
2.26014
1.65005
1.96179
1.41691
1.73426
1.26774
0.87957
1.13086
0.779137
0.952709
0.668368
0.808337
0.570944
0.688083
0.487379
0.586508
0.41611
0.500225
0.35558
0.426779
0.304616
0.364237
0.262711
0.31103
0.230722
0.265994
0.216052
0.245312
0.187425
0.217227
0.162482
0.190142
0.140815
0.16554
0.122026
0.14371
0.105834
0.124499
0.092186
0.107449
0.0817243
0.0913508
0.0774938
0.0712985
0.0902435
0.0153919
0.085581
0.496292
0.0940423
1.06327
0.214313
2.64072
2.04457
1.95354
1.93476
1.93071
17.3449
9.76095
11.5779
8.03553
9.18401
6.81157
7.60906
5.82966
6.4206
5.07888
5.49482
4.68331
5.02011
4.08901
4.42577
3.55224
3.86313
3.08005
3.35711
2.66801
2.91119
2.30985
2.52196
1.99873
2.18398
1.72717
1.89271
1.48525
1.65747
1.2762
0.949846
1.08772
0.824982
0.917437
0.70461
0.778799
0.60105
0.663078
0.512786
0.565263
0.437662
0.482185
0.373867
0.411548
0.320063
0.351605
0.275567
0.301109
0.240954
0.259699
0.222392
0.237949
0.194581
0.210316
0.169308
0.183929
0.146987
0.160064
0.127477
0.138948
0.110583
0.120451
0.0962468
0.10429
0.0849961
0.0899465
0.0794287
0.0754019
0.0887961
0.0440558
0.124046
0.442174
0.225291
0.949878
0.509105
2.33585
2.02439
1.95067
1.93419
1.93058
16.345
10.5463
11.2253
8.47036
8.93854
7.09725
7.42104
6.04128
6.27964
5.24011
5.40941
4.77777
4.91489
4.19397
4.32888
3.65207
3.77694
3.17009
3.28152
2.74746
2.84532
2.37925
2.46465
2.0591
2.13376
1.77965
1.84678
1.53063
1.60304
1.28267
1.00174
1.06079
0.856794
0.894552
0.729531
0.759501
0.621712
0.646714
0.53022
0.551358
0.452455
0.470385
0.38643
0.401599
0.330695
0.343383
0.284458
0.294714
0.248121
0.255735
0.226703
0.23303
0.199452
0.205754
0.173982
0.179854
0.151225
0.156483
0.131229
0.135842
0.11386
0.117824
0.0990704
0.102278
0.0873463
0.0892092
0.0811475
0.0788519
0.0897116
0.0677682
0.153012
0.409468
0.318893
0.883099
0.713192
2.11648
1.99468
1.9455
1.93309
1.93028
15.5771
11.0725
11.01
8.77627
8.78545
7.29633
7.30116
6.18819
6.18981
5.35299
5.35603
4.84149
4.84399
4.2647
4.26447
3.71985
3.72002
3.23141
3.23175
2.80163
2.80201
2.42659
2.42697
2.10026
2.10069
1.81528
1.81619
1.56047
1.56433
1.28757
1.04004
1.04439
0.878938
0.879779
0.746655
0.746914
0.635864
0.636011
0.542149
0.542257
0.462576
0.462661
0.395029
0.395094
0.337984
0.338026
0.290582
0.290594
0.253121
0.253239
0.2296
0.229707
0.202729
0.202716
0.177152
0.177158
0.154109
0.154124
0.133786
0.133801
0.1161
0.116106
0.101016
0.100991
0.0890251
0.0888693
0.0826359
0.0817761
0.0919395
0.0871934
0.17513
0.390643
0.386305
0.845684
0.854352
1.95811
1.96206
1.93885
1.93161
1.92986
14.9894
11.421
10.8815
8.99248
8.6923
7.43566
7.226
6.29051
6.13351
5.43227
5.32337
4.88453
4.79637
4.31228
4.22183
3.76583
3.68266
3.27317
3.19921
2.83859
2.77373
2.45891
2.40238
2.12834
2.07906
1.83946
1.79587
1.57993
1.53684
1.2913
1.06827
1.03478
0.894432
0.870366
0.758445
0.738781
0.64557
0.629071
0.550321
0.536348
0.469508
0.457647
0.400922
0.390878
0.342988
0.33457
0.29481
0.287975
0.256618
0.251694
0.231548
0.227469
0.204929
0.200701
0.179299
0.175386
0.156072
0.152579
0.135531
0.132468
0.117632
0.114992
0.10236
0.100183
0.0902322
0.0887731
0.08391
0.08426
0.0947643
0.102912
0.192146
0.380613
0.435167
0.826297
0.951708
1.84374
1.93053
1.93156
1.9299
1.92937
14.5444
11.6483
10.8071
9.14513
8.63741
7.53311
7.17988
6.3617
6.09899
5.48787
5.3039
4.91354
4.76459
4.34411
4.19382
3.79691
3.65836
3.30152
3.17813
2.86372
2.75546
2.4809
2.3865
2.14744
2.06504
1.8558
1.78244
1.59248
1.51746
1.29413
1.08892
1.02944
0.905278
0.864471
0.766548
0.733593
0.652211
0.624623
0.555904
0.532556
0.474243
0.45443
0.404949
0.388178
0.346415
0.33237
0.297722
0.286337
0.259059
0.250759
0.232856
0.225971
0.206397
0.199374
0.180748
0.174231
0.157402
0.151577
0.136717
0.131608
0.118677
0.114279
0.103286
0.0996864
0.0911003
0.0888138
0.0849762
0.0863383
0.097684
0.115387
0.205193
0.375939
0.470567
0.81754
1.0184
1.76158
1.90243
1.92438
1.92815
1.92886
14.2152
11.7935
10.7655
9.25161
8.60639
7.60052
7.15236
6.41068
6.07841
5.52639
5.2927
4.9329
4.74368
4.36514
4.17568
3.81766
3.64279
3.32053
3.1647
2.8806
2.74384
2.49569
2.3764
2.16027
2.0561
1.86672
1.77369
1.60043
1.50401
1.29624
1.10374
1.0267
0.912792
0.860863
0.772054
0.730344
0.656701
0.621822
0.559675
0.530165
0.47744
0.452402
0.407669
0.386479
0.348735
0.330995
0.299705
0.285338
0.260743
0.250209
0.233723
0.224982
0.207365
0.198512
0.181714
0.173489
0.158293
0.150938
0.137513
0.131062
0.119382
0.113831
0.103917
0.0993901
0.0917172
0.0889173
0.0858352
0.088018
0.10035
0.124979
0.215002
0.37431
0.495873
0.814626
1.0634
1.70351
1.87909
1.91793
1.92652
1.92838
13.983
11.8829
10.7433
9.32335
8.5898
7.64563
7.13658
6.44329
6.06662
5.55218
5.28654
4.94545
4.73035
4.37861
4.16428
3.83109
3.63312
3.33289
3.15641
2.8916
2.73668
2.50533
2.37018
2.16862
2.05057
1.87378
1.76814
1.60531
1.49502
1.29775
1.11394
1.02543
0.91783
0.858733
0.775679
0.728376
0.659644
0.620114
0.562142
0.528704
0.479531
0.451163
0.40945
0.385443
0.350256
0.330164
0.301012
0.284748
0.261865
0.249899
0.234283
0.224349
0.207983
0.197969
0.182338
0.173028
0.158872
0.150543
0.138032
0.130726
0.119842
0.113558
0.104334
0.0992204
0.09214
0.0890328
0.0864842
0.0892923
0.102525
0.131956
0.22204
0.374192
0.513292
0.814512
1.09274
1.66402
1.86121
1.91269
1.92516
1.92798
13.8347
11.9339
10.7324
9.36764
8.58164
7.67334
7.12818
6.46323
6.06035
5.56803
5.28341
4.95296
4.72248
4.38659
4.15765
3.83911
3.62755
3.3403
3.15165
2.89821
2.73259
2.51112
2.36663
2.17364
2.0474
1.878
1.76489
1.6081
1.48952
1.29872
1.12034
1.02493
0.920931
0.857563
0.777877
0.727267
0.661421
0.619147
0.56363
0.527876
0.480792
0.45046
0.410524
0.384857
0.351175
0.329697
0.301806
0.284425
0.262552
0.249737
0.234616
0.223974
0.208349
0.197653
0.182711
0.172761
0.159219
0.150316
0.138344
0.130533
0.120119
0.113404
0.104587
0.0991303
0.0924046
0.0891267
0.0869197
0.0901503
0.104052
0.136507
0.226597
0.374595
0.524226
0.815318
1.11036
1.63949
1.84916
1.909
1.92418
1.92768
13.7625
11.957
10.728
9.38879
8.57838
7.68653
7.12458
6.4727
6.05766
5.57557
5.28212
4.95647
4.71884
4.3903
4.1546
3.84286
3.62501
3.34377
3.14949
2.90131
2.73073
2.51384
2.36502
2.176
2.04596
1.87997
1.76339
1.60936
1.4869
1.29919
1.12342
1.02478
0.922408
0.85705
0.778914
0.726769
0.662257
0.618711
0.56433
0.527502
0.481385
0.450143
0.411029
0.384593
0.351608
0.329487
0.302181
0.284283
0.262878
0.249668
0.234772
0.223801
0.208518
0.197507
0.182884
0.17264
0.159382
0.150213
0.13849
0.130446
0.12025
0.113335
0.104707
0.0990917
0.092532
0.0891784
0.0871383
0.0905821
0.104838
0.138753
0.228837
0.374934
0.529502
0.815966
1.11862
1.62774
1.84311
1.90711
1.92368
1.92753
-13.6267
-11.9377
-10.8747
-9.86324
-9.31962
-8.81678
-8.53892
-8.26776
-8.11721
-7.96845
-7.86586
-7.73005
-7.63436
-7.50968
-7.42269
-7.31035
-7.23223
-7.1316
-7.06177
-6.97206
-6.91
-6.83054
-6.77574
-6.70579
-6.65757
-6.59593
-6.55273
-6.49588
-6.45115
-6.38331
-6.32063
-6.28605
-6.25103
-6.22912
-6.20351
-6.18674
-6.16643
-6.15298
-6.13653
-6.1256
-6.1122
-6.1033
-6.09241
-6.08519
-6.0764
-6.07063
-6.06369
-6.05925
-6.0541
-6.05102
-6.0477
-6.04538
-6.04235
-6.04036
-6.03801
-6.03667
-6.03542
-6.03505
-6.03535
-6.03637
-6.03895
-6.04212
-6.04833
-6.05511
-6.06777
-6.08157
-6.10776
-6.13894
-6.20314
-6.29678
-6.5086
-6.80265
-7.06552
-7.50313
-7.9208
-8.58504
-8.8647
-8.94769
-8.96917
-8.97416
-13.6943
-11.9127
-10.8726
-9.84453
-9.31799
-8.80778
-8.53866
-8.26293
-8.11714
-7.9666
-7.86719
-7.72844
-7.63552
-7.50817
-7.4237
-7.30898
-7.23313
-7.13036
-7.06257
-6.97096
-6.9107
-6.82955
-6.77635
-6.70492
-6.6581
-6.59519
-6.55328
-6.4954
-6.45208
-6.3831
-6.31951
-6.28606
-6.25051
-6.22927
-6.20315
-6.18688
-6.16615
-6.1531
-6.13631
-6.1257
-6.11202
-6.10338
-6.09226
-6.08525
-6.07627
-6.07067
-6.06359
-6.05928
-6.05402
-6.05103
-6.04766
-6.04541
-6.04231
-6.04037
-6.03797
-6.03667
-6.03538
-6.03502
-6.03532
-6.03631
-6.03893
-6.04199
-6.04831
-6.05488
-6.06772
-6.08107
-6.10756
-6.13762
-6.20196
-6.29205
-6.50531
-6.80389
-7.05853
-7.50393
-7.91094
-8.60042
-8.87256
-8.95015
-8.96983
-8.97436
-13.8331
-11.858
-10.8701
-9.80575
-9.31571
-8.78914
-8.53865
-8.25291
-8.11725
-7.96271
-7.87009
-7.72501
-7.63806
-7.50494
-7.42593
-7.30606
-7.2351
-7.12773
-7.06431
-6.96859
-6.91223
-6.82745
-6.77768
-6.70306
-6.65928
-6.59361
-6.55446
-6.49433
-6.45403
-6.38267
-6.31718
-6.28616
-6.24941
-6.22961
-6.20241
-6.1872
-6.16557
-6.15336
-6.13584
-6.12592
-6.11164
-6.10356
-6.09195
-6.08539
-6.07602
-6.07078
-6.06338
-6.05934
-6.05385
-6.05105
-6.04757
-6.04548
-6.04222
-6.04041
-6.03788
-6.03667
-6.03531
-6.03497
-6.03526
-6.03618
-6.03889
-6.04174
-6.04828
-6.05439
-6.06766
-6.08005
-6.10721
-6.13493
-6.19976
-6.28239
-6.49861
-6.8069
-7.04391
-7.50626
-7.88977
-8.6325
-8.88821
-8.95493
-8.97109
-8.97475
-14.0509
-11.7638
-10.8706
-9.744
-9.31488
-8.75945
-8.54005
-8.23688
-8.11812
-7.95634
-7.87509
-7.71924
-7.64244
-7.49955
-7.42978
-7.30118
-7.23853
-7.12334
-7.06735
-6.96466
-6.9149
-6.82394
-6.78
-6.69998
-6.66134
-6.59097
-6.55649
-6.49247
-6.45722
-6.38202
-6.31347
-6.28649
-6.24764
-6.23024
-6.20118
-6.18777
-6.16461
-6.15384
-6.13507
-6.12631
-6.11101
-6.10388
-6.09143
-6.08565
-6.07559
-6.07097
-6.06303
-6.05947
-6.05356
-6.05111
-6.04743
-6.04559
-6.04207
-6.04047
-6.03775
-6.03667
-6.0352
-6.03489
-6.03518
-6.03598
-6.03884
-6.04134
-6.04826
-6.05361
-6.06763
-6.07844
-6.10685
-6.13075
-6.19683
-6.2674
-6.48822
-6.81276
-7.02028
-7.51175
-7.85424
-8.68406
-8.91142
-8.96173
-8.97286
-8.97528
-14.3602
-11.6139
-10.8804
-9.65436
-9.31911
-8.71632
-8.54481
-8.21348
-8.12071
-7.94674
-7.88307
-7.71031
-7.64946
-7.49124
-7.43599
-7.29366
-7.24406
-7.11658
-7.07226
-6.9586
-6.91921
-6.81855
-6.78377
-6.69523
-6.66466
-6.58689
-6.55969
-6.48945
-6.462
-6.38109
-6.3081
-6.2873
-6.245
-6.23135
-6.19932
-6.18874
-6.16316
-6.15464
-6.13389
-6.12697
-6.11006
-6.10442
-6.09065
-6.08607
-6.07495
-6.0713
-6.06251
-6.05969
-6.05314
-6.05121
-6.04721
-6.04576
-6.04185
-6.04057
-6.03754
-6.03668
-6.03504
-6.03479
-6.03507
-6.0357
-6.03881
-6.04076
-6.04831
-6.05249
-6.06772
-6.07613
-6.10666
-6.12489
-6.19374
-6.24639
-6.47369
-6.82329
-6.98528
-7.5232
-7.79922
-8.75972
-8.94172
-8.9701
-8.97498
-8.9759
-14.7794
-11.3834
-10.9099
-9.52908
-9.33403
-8.65594
-8.55595
-8.18053
-8.12655
-7.93273
-7.89542
-7.69691
-7.66038
-7.4788
-7.44568
-7.28243
-7.25271
-7.10649
-7.07993
-6.94958
-6.92597
-6.81053
-6.78969
-6.68816
-6.66987
-6.58079
-6.56462
-6.48473
-6.46893
-6.37985
-6.30064
-6.28896
-6.24122
-6.23319
-6.19661
-6.1903
-6.16102
-6.15593
-6.13216
-6.12802
-6.10865
-6.10527
-6.0895
-6.08676
-6.07402
-6.07182
-6.06174
-6.06005
-6.05254
-6.05139
-6.0469
-6.04603
-6.04152
-6.04075
-6.03725
-6.03673
-6.03482
-6.03466
-6.03496
-6.03532
-6.03882
-6.03996
-6.04849
-6.05093
-6.06809
-6.07293
-6.10697
-6.117
-6.19128
-6.21839
-6.45426
-6.84134
-6.93526
-7.54512
-7.71682
-8.86652
-8.97816
-8.97941
-8.97725
-8.97657
-15.3344
-11.036
-10.9758
-9.35637
-9.36828
-8.57244
-8.57811
-8.13473
-8.13798
-7.91247
-7.91421
-7.67702
-7.67709
-7.46043
-7.46058
-7.26585
-7.26601
-7.09162
-7.09176
-6.93628
-6.93641
-6.79872
-6.79884
-6.67777
-6.67791
-6.57177
-6.57209
-6.47743
-6.47879
-6.37821
-6.29047
-6.29206
-6.23585
-6.23617
-6.19268
-6.19278
-6.15792
-6.15797
-6.12965
-6.12969
-6.1066
-6.10663
-6.08782
-6.08785
-6.07265
-6.07267
-6.06065
-6.06065
-6.05168
-6.05171
-6.04643
-6.04645
-6.04104
-6.04103
-6.03684
-6.03684
-6.03453
-6.03452
-6.03484
-6.03481
-6.03893
-6.03887
-6.04892
-6.04878
-6.06896
-6.06856
-6.10823
-6.10654
-6.19072
-6.18205
-6.42879
-6.8711
-6.86459
-7.58457
-7.5953
-9.01484
-9.01901
-8.98886
-8.97947
-8.9772
-16.0614
-10.5191
-11.104
-9.11841
-9.43483
-8.45687
-8.61824
-8.07105
-8.15856
-7.88311
-7.94255
-7.64765
-7.70248
-7.43338
-7.48327
-7.24148
-7.2863
-7.06976
-7.10982
-6.91676
-6.95236
-6.78139
-6.81283
-6.66252
-6.6902
-6.5585
-6.58336
-6.4663
-6.49272
-6.37606
-6.27674
-6.29748
-6.22822
-6.2409
-6.18702
-6.19666
-6.15341
-6.16114
-6.126
-6.13228
-6.10362
-6.10873
-6.0854
-6.08954
-6.07069
-6.074
-6.05907
-6.06161
-6.05046
-6.05223
-6.04576
-6.04709
-6.04035
-6.04148
-6.03627
-6.03703
-6.03416
-6.03436
-6.03473
-6.03413
-6.0392
-6.03737
-6.04975
-6.04582
-6.07064
-6.06259
-6.11115
-6.09265
-6.19387
-6.13549
-6.39549
-6.91882
-6.76486
-7.65239
-7.41743
-9.21978
-9.06124
-8.99748
-8.9814
-8.97775
-17.01
-9.75717
-11.335
-8.78837
-9.55316
-8.29572
-8.6867
-7.98199
-8.19366
-7.84035
-7.98508
-7.60428
-7.74082
-7.39357
-7.51763
-7.20565
-7.31704
-7.03764
-7.13719
-6.88809
-6.97657
-6.75597
-6.8341
-6.64016
-6.70887
-6.53896
-6.60031
-6.44943
-6.51238
-6.37321
-6.2582
-6.3065
-6.21732
-6.24829
-6.17881
-6.20266
-6.14687
-6.16603
-6.1207
-6.13626
-6.0993
-6.11198
-6.08187
-6.09216
-6.06783
-6.07605
-6.05679
-6.06312
-6.04872
-6.05309
-6.04477
-6.04805
-6.03934
-6.04219
-6.03545
-6.03737
-6.03365
-6.0342
-6.03467
-6.03323
-6.03975
-6.0353
-6.05124
-6.0417
-6.07364
-6.05435
-6.11676
-6.07397
-6.2034
-6.07619
-6.35166
-6.99364
-6.62348
-7.76511
-7.15807
-9.50315
-9.09968
-9.00419
-8.98284
-8.97815
-18.2486
-8.64191
-11.7309
-8.32582
-9.75232
-8.06859
-8.79894
-7.85622
-8.25131
-7.77762
-8.04857
-7.54017
-7.79847
-7.33486
-7.56937
-7.15283
-7.36336
-6.99031
-7.17846
-6.84587
-7.01309
-6.71856
-6.86619
-6.60724
-6.73703
-6.51012
-6.6257
-6.42397
-6.54008
-6.36936
-6.23309
-6.32098
-6.20157
-6.25967
-6.16684
-6.21181
-6.13731
-6.17347
-6.11293
-6.14233
-6.09297
-6.11691
-6.07672
-6.09614
-6.06365
-6.07919
-6.05347
-6.06544
-6.04622
-6.05444
-6.04331
-6.04948
-6.03785
-6.04326
-6.03428
-6.03793
-6.03297
-6.03403
-6.03466
-6.03201
-6.04073
-6.0324
-6.05373
-6.03592
-6.07868
-6.04283
-6.12656
-6.04839
-6.22319
-6.00078
-6.29317
-7.10894
-6.42163
-7.94779
-6.78064
-9.89651
-9.12584
-9.00798
-8.98365
-8.97841
)
;

boundaryField
{
    F1_1
    {
        type            calculated;
        value           nonuniform List<scalar> 
80
(
18.9508
7.97341
11.9792
8.04093
9.87591
7.90468
8.86794
7.71466
8.28881
7.5512
7.90323
7.48927
7.75844
7.28663
7.55879
7.10999
7.36531
6.95294
7.18592
6.8134
7.02273
6.69042
6.87635
6.58293
6.74696
6.48913
6.63542
6.40561
6.55177
6.36443
6.21718
6.32745
6.19095
6.26466
6.15866
6.21582
6.13075
6.17673
6.10761
6.145
6.08862
6.11909
6.07318
6.09789
6.06079
6.08056
6.05119
6.06642
6.04447
6.05492
6.04218
6.05002
6.03676
6.04365
6.03342
6.03804
6.03244
6.03375
6.03457
6.03114
6.04126
6.03058
6.05521
6.03243
6.08176
6.03602
6.13268
6.03349
6.23618
5.9585
6.2596
7.17869
6.30274
8.06038
6.55697
10.1253
9.13451
9.00901
8.98387
8.97848
)
;
    }
    F1_2
    {
        type            calculated;
        value           nonuniform List<scalar> 
80
(
-19.3865
-7.90835
-12.4943
-7.04676
-9.80658
-6.15578
-8.07736
-5.34244
-6.7719
-4.71138
-5.71209
-4.45961
-5.26978
-3.84098
-4.65884
-3.31789
-4.07177
-2.86932
-3.54064
-2.48235
-3.07137
-2.14777
-2.66142
-1.85773
-2.30604
-1.60418
-2.00332
-1.37592
-1.77925
-1.26297
-0.839159
-1.15736
-0.75207
-0.974099
-0.646908
-0.82621
-0.553109
-0.703208
-0.472327
-0.59936
-0.403346
-0.511142
-0.344755
-0.436002
-0.295481
-0.371898
-0.255123
-0.317069
-0.224715