/*--------------------------------*- C++ -*----------------------------------*\
| =========                 |                                                 |
| \\      /  F ield         | OpenFOAM: The Open Source CFD Toolbox           |
|  \\    /   O peration     | Version:  5.x                                   |
|   \\  /    A nd           | Web:      www.OpenFOAM.org                      |
|    \\/     M anipulation  |                                                 |
\*---------------------------------------------------------------------------*/
FoamFile
{
    version     2.0;
    format      ascii;
    class       volScalarField;
    location    "7.8";
    object      gradTx;
}
// * * * * * * * * * * * * * * * * * * * * * * * * * * * * * * * * * * * * * //

dimensions      [0 -1 0 1 0 0 0];

internalField   nonuniform List<scalar> 
3200
(
45.2114
3.71175
1.64868
1.54013
0.81494
0.771354
0.466726
0.447271
0.293827
0.282721
0.170835
0.166692
0.180697
0.180846
0.173155
0.172313
0.159532
0.158415
0.144291
0.143108
0.128821
0.127652
0.113847
0.112752
0.100211
0.0993237
0.0901479
0.0901416
0.0950714
0.164743
0.0824933
0.0552517
0.0534235
0.0416755
0.0408483
0.0332508
0.032692
0.0269754
0.0265458
0.0219877
0.0216412
0.0179025
0.0176149
0.0144674
0.0142203
0.0114524
0.0112254
0.00856322
0.00832452
0.00520218
0.00507141
0.00507064
0.00502304
0.00395826
0.00384522
0.00219496
0.00202953
-0.000276738
-0.000514127
-0.00387154
-0.00423388
-0.00949996
-0.0101051
-0.0191777
-0.0203258
-0.0381852
-0.040858
-0.0840557
-0.0929801
-0.238832
-0.617555
-0.436405
-0.681912
-0.713285
-1.26869
-1.24306
-0.0558161
-0.00753219
-0.00152603
-52.9457
47.8958
3.10512
1.57725
1.35447
0.77405
0.680998
0.436318
0.394717
0.271787
0.248194
0.160332
0.151487
0.160987
0.161195
0.155216
0.153443
0.143361
0.140996
0.129819
0.127312
0.115998
0.113519
0.10259
0.10027
0.0903644
0.0885007
0.0814283
0.0815787
0.0883627
0.13736
0.0765942
0.051612
0.0475407
0.0380086
0.0362348
0.030178
0.0289894
0.0244491
0.0235371
0.0199205
0.0191851
0.0162193
0.0156091
0.013112
0.0125875
0.0103907
0.00990862
0.00779405
0.00729023
0.00485339
0.00457553
0.00453024
0.00442625
0.00358575
0.00334618
0.00203748
0.00168623
-0.000146393
-0.000651004
-0.00332258
-0.00409366
-0.00829161
-0.00958186
-0.0168396
-0.0192983
-0.0337003
-0.0394903
-0.0750769
-0.0950022
-0.227176
-0.517934
-0.415027
-0.602311
-0.666905
-1.08544
-1.03177
-0.12189
-0.0209055
-0.00438812
-54.7418
50.5635
2.57635
1.45361
1.1831
0.713665
0.596706
0.397786
0.345417
0.245774
0.216238
0.146669
0.135548
0.141649
0.141791
0.13711
0.134905
0.126881
0.12393
0.115
0.111868
0.102822
0.099724
0.0909873
0.0880921
0.0801962
0.077886
0.0724197
0.0727504
0.0799653
0.114366
0.0692637
0.0471357
0.0418762
0.0340313
0.0317925
0.0269103
0.0254209
0.0217778
0.0206366
0.017738
0.0168182
0.014442
0.0136787
0.0116778
0.0110217
0.00926032
0.00865712
0.00696043
0.00633325
0.00441823
0.00407034
0.00399217
0.00385892
0.0031892
0.00288989
0.0018417
0.00140216
-6.9177e-05
-0.000701209
-0.00284964
-0.00381637
-0.00719957
-0.00881994
-0.0146935
-0.0177931
-0.02956
-0.0369307
-0.0667246
-0.0925343
-0.209177
-0.43406
-0.382041
-0.527617
-0.606366
-0.921077
-0.854733
-0.155608
-0.0309001
-0.00673384
-56.5378
53.2106
2.11315
1.29589
1.0197
0.639181
0.515693
0.353393
0.298008
0.216956
0.185883
0.130667
0.118921
0.12255
0.122581
0.118904
0.116599
0.110197
0.107103
0.0999484
0.0966611
0.0894073
0.0861547
0.0791514
0.0761138
0.0698046
0.0673975
0.0631793
0.0636467
0.0704805
0.0945533
0.0610142
0.0419847
0.0363152
0.0298298
0.027456
0.023507
0.0219384
0.0190063
0.0178063
0.0154764
0.0145095
0.0126
0.0117978
0.0101897
0.00950001
0.00808362
0.00744934
0.00608401
0.00542777
0.00392037
0.00355435
0.0034563
0.00331303
0.00277781
0.00246355
0.00162156
0.00115937
-2.55407e-05
-0.000690766
-0.00242398
-0.00344242
-0.00617805
-0.00788789
-0.0126583
-0.0159411
-0.0255955
-0.0334743
-0.0585317
-0.0864332
-0.186849
-0.361262
-0.341151
-0.455597
-0.53639
-0.771959
-0.703008
-0.16635
-0.036873
-0.00833393
-58.3336
55.8362
1.70406
1.11652
0.860464
0.554416
0.436233
0.304722
0.251625
0.186139
0.156494
0.112927
0.101678
0.103594
0.103518
0.100643
0.0984578
0.093382
0.090439
0.0847426
0.0816126
0.0758327
0.0727354
0.0671569
0.0642663
0.0592569
0.0569815
0.0537513
0.0542883
0.0603062
0.0770446
0.0521842
0.0362993
0.0307867
0.0254638
0.0231824
0.0200084
0.0185105
0.0161655
0.0150212
0.0131602
0.0122385
0.0107138
0.00994913
0.00866493
0.00800739
0.00687561
0.00627079
0.00517923
0.00455633
0.00337685
0.00302763
0.00292223
0.00278281
0.00235758
0.00205831
0.00138622
0.000945468
-2.6985e-06
-0.000637609
-0.00202691
-0.0029998
-0.00519756
-0.00683342
-0.0106827
-0.0138344
-0.021702
-0.0293306
-0.0502251
-0.0774314
-0.161561
-0.296244
-0.294878
-0.384923
-0.460223
-0.635022
-0.569991
-0.160804
-0.0388084
-0.00906539
-60.1292
58.4417
1.33864
0.92389
0.70323
0.462136
0.357305
0.252915
0.205738
0.153889
0.127662
0.093894
0.0839092
0.084718
0.0845676
0.0823552
0.080432
0.0764813
0.0738846
0.0694342
0.0666701
0.0621508
0.0594154
0.0550548
0.0525035
0.0485997
0.0466036
0.0441727
0.0447106
0.0497029
0.0611998
0.0429952
0.030199
0.0252506
0.0209762
0.0189445
0.0164428
0.0151165
0.0132766
0.0122648
0.0108064
0.00999167
0.00879716
0.00812121
0.00711505
0.00653373
0.00564651
0.0051117
0.00425568
0.00370714
0.0028001
0.00249115
0.00238952
0.00226402
0.0019323
0.00166798
0.00114162
0.000751861
7.60764e-06
-0.000554282
-0.00164651
-0.00250818
-0.00423955
-0.00569041
-0.00873493
-0.011539
-0.0178181
-0.0246564
-0.0416659
-0.0661528
-0.134251
-0.236669
-0.24495
-0.314839
-0.380075
-0.507678
-0.450741
-0.143771
-0.0370538
-0.0089033
-61.9244
61.0295
1.00745
0.723499
0.546814
0.364405
0.27836
0.19882
0.160037
0.120614
0.0991315
0.0739097
0.0657083
0.0658804
0.0656995
0.0640555
0.0624872
0.0595264
0.0574044
0.0540583
0.0517977
0.0483976
0.0461603
0.0428804
0.0407949
0.0378663
0.0362431
0.0344753
0.0349548
0.0388394
0.046543
0.0335898
0.0237847
0.0196875
0.0163988
0.0147254
0.0128301
0.011743
0.0103547
0.00952622
0.00842685
0.00775997
0.00685975
0.00630649
0.00554815
0.0050723
0.0044033
0.00396544
0.00331982
0.00287229
0.00219943
0.00194638
0.00185775
0.00175347
0.00150432
0.00128812
0.00089155
0.000572428
1.06144e-05
-0.000449745
-0.00127533
-0.00198177
-0.00329277
-0.00448367
-0.0067968
-0.00910455
-0.0139119
-0.0195753
-0.0328077
-0.0531298
-0.105568
-0.18086
-0.192557
-0.244941
-0.297434
-0.387717
-0.341491
-0.118727
-0.0321565
-0.00790541
-63.7193
63.603
0.701913
0.518817
0.390628
0.26282
0.199155
0.143094
0.114363
0.0866206
0.0707505
0.0532446
0.0471725
0.0470569
0.04689
0.0457527
0.0445981
0.0425379
0.0409731
0.0386389
0.036971
0.0345978
0.0329469
0.0306581
0.0291199
0.0270806
0.0258883
0.024688
0.0250627
0.0278232
0.0327124
0.0240584
0.0171421
0.0140921
0.0117567
0.0105151
0.00918503
0.00838149
0.00741027
0.00679846
0.00602998
0.0055376
0.00490845
0.00449997
0.00396995
0.00361858
0.00315085
0.00282749
0.00237604
0.00204644
0.00158196
0.00139502
0.0013266
0.00124871
0.00107501
0.000915469
0.000638378
0.000402699
9.55934e-06
-0.000330603
-0.000908922
-0.00143119
-0.00235079
-0.00323203
-0.00485889
-0.00657015
-0.00997136
-0.0141915
-0.0236659
-0.0388221
-0.075971
-0.127594
-0.138537
-0.175039
-0.21328
-0.273215
-0.239304
-0.088236
-0.0247665
-0.00619468
-65.514
66.1661
0.414176
0.311939
0.234425
0.158669
0.119645
0.0862756
0.0686485
0.0521526
0.0424349
0.0321221
0.0283984
0.0282355
0.0281193
0.0274506
0.0267453
0.0255296
0.0245727
0.0231929
0.0221724
0.0207691
0.0197591
0.0184058
0.017465
0.016261
0.0155339
0.0148377
0.0150752
0.0167218
0.0194236
0.0144576
0.0103448
0.00846814
0.00707094
0.00630839
0.00551892
0.00502671
0.0044515
0.00407695
0.00362207
0.00332068
0.00294832
0.0026983
0.00238459
0.00216951
0.00189261
0.00169466
0.00142737
0.00122598
0.000953383
0.000838917
0.000795832
0.000747774
0.000645138
0.000547519
0.000383547
0.000239265
6.3825e-06
-0.000201937
-0.000544756
-0.000864716
-0.00141035
-0.00195057
-0.0029176
-0.00396816
-0.0059981
-0.0085975
-0.0142969
-0.0236347
-0.0457951
-0.0759554
-0.0834949
-0.105067
-0.128259
-0.162468
-0.141803
-0.0542409
-0.0155805
-0.00394229
-67.3085
68.7227
0.136907
0.104072
0.0781526
0.0530493
0.0399091
0.0288271
0.022889
0.0174136
0.0141431
0.0107361
0.00948194
0.00941221
0.00937071
0.00914998
0.00891291
0.00851093
0.00818909
0.00773247
0.0073892
0.0069247
0.00658491
0.00613702
0.00582057
0.0054224
0.00517817
0.00495002
0.00503126
0.00557814
0.00644143
0.00482258
0.00345801
0.00282495
0.00235976
0.00210273
0.00184092
0.00167524
0.00148469
0.00135866
0.00120801
0.0011066
0.000983298
0.00089917
0.000795284
0.000722914
0.000631204
0.000564594
0.000476069
0.000408364
0.000318479
0.000279957
0.000265257
0.000249022
0.000215061
0.00018222
0.000127926
7.9374e-05
2.22155e-06
-6.78921e-05
-0.000181506
-0.000289215
-0.000470131
-0.000652045
-0.000972975
-0.001327
-0.00200207
-0.0028795
-0.00478228
-0.00793439
-0.0152991
-0.0252218
-0.0278912
-0.0350308
-0.0427978
-0.0539152
-0.0469776
-0.0182898
-0.00531371
-0.0013523
-69.1028
68.7146
0.150883
0.128426
0.107467
0.0852103
0.0726954
0.0607372
0.0533355
0.0448801
0.0387609
0.0310042
0.028193
0.0283063
0.0282047
0.0273712
0.0264734
0.0249579
0.0237714
0.0221276
0.0209343
0.0193782
0.0182829
0.0168963
0.0159508
0.014806
0.0141295
0.0135397
0.013838
0.0155173
0.0181043
0.0137276
0.0100705
0.0083913
0.00718016
0.00651387
0.00583528
0.00540219
0.00489797
0.00455971
0.00414855
0.00386724
0.00351884
0.00327685
0.00297192
0.00275464
0.00247206
0.00225938
0.00196568
0.00172989
0.00140742
0.00129468
0.00131251
0.00131433
0.00128162
0.00124306
0.00117527
0.00112113
0.00104478
0.000988115
0.00091219
0.000855367
0.00077726
0.00071176
0.000608628
0.000494535
0.000268505
-7.49261e-05
-0.000892192
-0.00243103
-0.00621775
-0.0117862
-0.0150702
-0.022056
-0.029491
-0.0404352
-0.0360485
-0.0140881
-0.00409771
-0.0010432
-69.8074
66.1415
0.456019
0.385217
0.322453
0.255241
0.218064
0.182029
0.160048
0.134547
0.116348
0.0928149
0.0844621
0.0849275
0.0846434
0.0821163
0.079445
0.0748606
0.0713325
0.0663648
0.0628173
0.0581161
0.0548602
0.0506713
0.0478603
0.0443994
0.042385
0.0405836
0.0414587
0.0465156
0.0545915
0.0411539
0.0301325
0.0251552
0.0215187
0.0195421
0.017496
0.0162094
0.0146873
0.013682
0.0124405
0.0116044
0.0105523
0.00983307
0.00891225
0.00826653
0.0074134
0.00678139
0.00589473
0.00519314
0.00421388
0.00387881
0.00393819
0.00394438
0.00384511
0.00373036
0.00352526
0.00336427
0.00313356
0.00296512
0.00273581
0.00256696
0.00233128
0.00213679
0.00182633
0.00148809
0.000810215
-0.000205821
-0.00264771
-0.00720317
-0.018582
-0.0354499
-0.0450626
-0.0661501
-0.0883325
-0.121919
-0.108848
-0.0417855
-0.0120157
-0.00304125
-69.4223
63.5609
0.771348
0.641687
0.537618
0.424071
0.363387
0.302759
0.266902
0.223921
0.194149
0.154018
0.140378
0.141579
0.141172
0.136867
0.132493
0.124721
0.118951
0.110545
0.104746
0.0967963
0.091475
0.0843912
0.0797959
0.0739349
0.070632
0.0675205
0.0689123
0.0773932
0.0919392
0.0684836
0.0499528
0.0418655
0.0357909
0.0325732
0.0291264
0.0270261
0.0244559
0.0228139
0.0207162
0.0193503
0.0175724
0.0163974
0.0148416
0.0137867
0.0123459
0.0113136
0.00981639
0.00866751
0.00699459
0.00644717
0.006566
0.00657866
0.00640923
0.00622129
0.0058735
0.00561021
0.00521986
0.00494457
0.00455702
0.00428123
0.00388366
0.00356647
0.00304515
0.00249523
0.00136546
-0.000279671
-0.00431867
-0.0117024
-0.0307266
-0.0594037
-0.074596
-0.1102
-0.146718
-0.205269
-0.183808
-0.0679911
-0.0191019
-0.00477903
-69.0371
60.9683
1.10395
0.897133
0.753161
0.590786
0.508707
0.422498
0.374041
0.312767
0.272364
0.214162
0.195701
0.198294
0.197856
0.191621
0.185677
0.174501
0.166675
0.154621
0.146762
0.135371
0.12816
0.118012
0.111782
0.103368
0.0988713
0.0942774
0.0960823
0.108028
0.130807
0.0956165
0.0693553
0.0584953
0.0499488
0.0456134
0.040703
0.0378616
0.0341875
0.031964
0.0289627
0.0271126
0.0245684
0.022977
0.020751
0.0193224
0.0172621
0.0158645
0.0137242
0.0121629
0.0097303
0.00898891
0.00919809
0.00922025
0.00897411
0.00871863
0.00821839
0.00786126
0.00730158
0.00692853
0.00637378
0.00600039
0.00543285
0.00500433
0.00426513
0.00352559
0.00194134
-0.000257746
-0.00585582
-0.0157359
-0.0424851
-0.0838969
-0.103313
-0.154214
-0.204222
-0.291819
-0.262542
-0.0915197
-0.0248053
-0.00609917
-68.6517
58.3592
1.4613
1.15007
0.96944
0.754289
0.654193
0.540727
0.481693
0.400779
0.351291
0.272716
0.250182
0.255131
0.254772
0.246363
0.239071
0.224148
0.214569
0.19853
0.188918
0.173779
0.164963
0.151475
0.143856
0.132645
0.127115
0.120778
0.122847
0.13823
0.171994
0.122392
0.0881419
0.0750327
0.0639384
0.0586768
0.0521969
0.0487305
0.0438611
0.0411452
0.0371632
0.0349028
0.0315264
0.029582
0.0266285
0.0248834
0.0221518
0.020445
0.0176088
0.0156931
0.0123984
0.0114926
0.0118377
0.0118726
0.0115394
0.0112258
0.0105576
0.0101204
0.00937587
0.00891979
0.00818332
0.00772735
0.0069765
0.00645465
0.00548515
0.00458977
0.00254184
-9.98334e-05
-0.00722166
-0.0190946
-0.053657
-0.10927
-0.13077
-0.198263
-0.260222
-0.383044
-0.346946
-0.110876
-0.0285885
-0.00686956
-68.2661
55.7297
1.8514
1.39777
1.1871
0.913189
0.800213
0.656779
0.590219
0.487533
0.431381
0.329029
0.303563
0.31218
0.312011
0.30106
0.292769
0.273581
0.26272
0.242181
0.231296
0.211934
0.201953
0.184705
0.176073
0.161694
0.15539
0.146943
0.149079
0.167697
0.216516
0.148554
0.106083
0.0914896
0.0776948
0.0717889
0.0635704
0.0596556
0.0534487
0.0503772
0.0452949
0.0427377
0.0384272
0.0362274
0.0324577
0.030484
0.0270007
0.0250709
0.0214567
0.0192786
0.014971
0.0139464
0.0144897
0.0145397
0.0141039
0.0137472
0.0128876
0.012392
0.0114387
0.0109223
0.00998167
0.00946614
0.00851102
0.0079229
0.00670224
0.00570007
0.00316613
0.000237322
-0.00839741
-0.0215457
-0.0639869
-0.136007
-0.156388
-0.242534
-0.313788
-0.480626
-0.439348
-0.124081
-0.0299489
-0.0069952
-67.8803
53.0771
2.28286
1.63576
1.40729
1.06565
0.947452
0.769756
0.700191
0.572426
0.513319
0.382266
0.355581
0.36958
0.36968
0.355651
0.346904
0.322681
0.31126
0.285447
0.274013
0.249715
0.239233
0.217589
0.208521
0.190421
0.183752
0.172685
0.174652
0.195956
0.265709
0.173697
0.122909
0.107915
0.0911357
0.0849937
0.0747718
0.0706725
0.062911
0.0596897
0.0533257
0.0506429
0.0452437
0.0429357
0.0382152
0.036145
0.0317874
0.0297642
0.0252471
0.0229493
0.0174123
0.0163375
0.0171615
0.0172263
0.0166654
0.0162887
0.0152031
0.0146818
0.013484
0.0129418
0.0117631
0.0112226
0.0100309
0.0094165
0.00791063
0.00687169
0.00380625
0.00080276
-0.00939256
-0.022825
-0.0731334
-0.16481
-0.179374
-0.2874
-0.36353
-0.586532
-0.54271
-0.12844
-0.0284622
-0.00643132
-67.4942
50.3998
2.76482
1.85701
1.63201
1.20918
1.09707
0.878408
0.812491
0.654573
0.598135
0.431329
0.405972
0.427537
0.427915
0.410031
0.401658
0.371268
0.360374
0.328137
0.317245
0.286942
0.276961
0.249971
0.24133
0.21869
0.21229
0.197905
0.199451
0.222277
0.321373
0.19719
0.138304
0.124411
0.104151
0.0983618
0.0857284
0.0818361
0.0721917
0.0691281
0.0612093
0.0586568
0.0519366
0.0497407
0.0438668
0.0418976
0.0364809
0.0345573
0.0289489
0.0267496
0.0196751
0.0186527
0.0198638
0.019938
0.0192195
0.0188587
0.017496
0.0169988
0.0155032
0.0149869
0.013519
0.0130051
0.0115278
0.0109458
0.00910039
0.00812442
0.00444394
0.00165592
-0.0102582
-0.0226292
-0.0806251
-0.196697
-0.198622
-0.333542
-0.407397
-0.703111
-0.660889
-0.120228
-0.0238576
-0.00519693
-67.108
47.6989
3.3068
2.05094
1.86464
1.34028
1.25095
0.980949
0.92847
0.732661
0.687366
0.474733
0.454486
0.486341
0.486881
0.46403
0.457293
0.419076
0.410343
0.369974
0.361253
0.323357
0.315368
0.281619
0.274699
0.246311
0.241147
0.222489
0.2234
0.245547
0.385968
0.218072
0.151899
0.141163
0.116588
0.112004
0.0963356
0.0932298
0.0812094
0.0787608
0.0688784
0.0668375
0.0584487
0.0566929
0.0493622
0.0477882
0.0410347
0.0394979
0.0325145
0.030745
0.021696
0.0208786
0.0226116
0.0226815
0.0217594
0.0214689
0.0197544
0.0193558
0.0174833
0.0170701
0.0152368
0.0148262
0.0129888
0.0125257
0.0102554
0.00948539
0.00504599
0.00287419
-0.0111054
-0.0206083
-0.0857936
-0.23315
-0.21255
-0.382126
-0.442389
-0.833208
-0.799006
-0.0942436
-0.0161446
-0.0033868
-66.7216
44.9787
3.91821
2.2021
2.11079
1.45397
1.41206
1.07479
1.05018
0.804728
0.783291
0.510443
0.500916
0.546398
0.546782
0.517386
0.514187
0.465705
0.461578
0.410544
0.406429
0.358575
0.354807
0.312193
0.308927
0.273002
0.270544
0.24629
0.246499
0.264087
0.462897
0.234886
0.163277
0.158468
0.128226
0.126089
0.10644
0.10498
0.0898444
0.088691
0.0762341
0.0752723
0.0646956
0.0638682
0.0546276
0.0538861
0.04538
0.0446564
0.0358715
0.0350317
0.0233877
0.0230025
0.025426
0.0254647
0.0242741
0.024136
0.0219603
0.0217719
0.019405
0.0192101
0.0168978
0.0167044
0.014395
0.014178
0.0113505
0.0109932
0.0055574
0.00456484
-0.0121317
-0.01636
-0.0876751
-0.276321
-0.218871
-0.435082
-0.46416
-0.980305
-0.963946
-0.0431929
-0.00581801
-0.00117785
-66.335
44.9787
3.91821
2.20209
2.11079
1.45397
1.41206
1.07479
1.05018
0.804728
0.783291
0.510443
0.500916
0.546398
0.546782
0.517386
0.514187
0.465706
0.461578
0.410545
0.406429
0.358576
0.354807
0.312194
0.308927
0.273002
0.270544
0.24629
0.246499
0.264088
0.462898
0.234886
0.163277
0.158468
0.128226
0.12609
0.106441
0.104981
0.0898446
0.0886913
0.0762343
0.0752725
0.0646958
0.0638684
0.0546278
0.0538862
0.0453801
0.0446566
0.0358717
0.0350319
0.0233877
0.0230026
0.0254261
0.0254648
0.0242742
0.0241361
0.0219604
0.021772
0.0194052
0.0192102
0.0168979
0.0167045
0.0143951
0.0141781
0.0113506
0.0109933
0.00555751
0.00456495
-0.0121315
-0.0163599
-0.0876751
-0.276321
-0.218872
-0.435084
-0.464161
-0.980307
-0.963948
-0.043193
-0.00581803
-0.00117787
-66.335
47.6988
3.3068
2.05094
1.86464
1.34028
1.25095
0.980949
0.92847
0.732661
0.687366
0.474733
0.454486
0.486341
0.486881
0.464031
0.457293
0.419077
0.410343
0.369974
0.361254
0.323357
0.315369
0.281619
0.274699
0.246311
0.241147
0.222489
0.2234
0.245548
0.385969
0.218073
0.151899
0.141163
0.116589
0.112004
0.0963359
0.0932301
0.0812097
0.0787611
0.0688787
0.0668377
0.0584489
0.0566931
0.0493624
0.0477883
0.0410349
0.039498
0.0325146
0.0307452
0.0216961
0.0208786
0.0226117
0.0226815
0.0217595
0.021469
0.0197545
0.0193559
0.0174834
0.0170702
0.0152369
0.0148263
0.012989
0.0125258
0.0102555
0.00948549
0.0050461
0.0028743
-0.0111053
-0.0206082
-0.0857936
-0.23315
-0.212551
-0.382127
-0.442391
-0.83321
-0.799009
-0.0942438
-0.0161447
-0.00338681
-66.7216
50.3998
2.76482
1.85701
1.63201
1.20918
1.09707
0.878407
0.812491
0.654573
0.598135
0.431329
0.405972
0.427537
0.427915
0.410031
0.401658
0.371269
0.360375
0.328137
0.317245
0.286942
0.276961
0.249971
0.24133
0.218691
0.21229
0.197906
0.199451
0.222277
0.321373
0.197191
0.138304
0.124412
0.104152
0.0983621
0.0857287
0.0818363
0.072192
0.0691283
0.0612095
0.058657
0.0519368
0.0497409
0.0438669
0.0418977
0.036481
0.0345574
0.0289491
0.0267497
0.0196752
0.0186527
0.0198639
0.0199381
0.0192196
0.0188588
0.0174961
0.0169989
0.0155033
0.014987
0.0135191
0.0130052
0.0115279
0.0109459
0.00910048
0.00812452
0.00444404
0.00165602
-0.0102581
-0.0226291
-0.0806251
-0.196697
-0.198623
-0.333543
-0.407398
-0.703113
-0.660891
-0.120228
-0.0238577
-0.0051969
-67.108
53.0771
2.28286
1.63576
1.40729
1.06565
0.947452
0.769756
0.700191
0.572426
0.513319
0.382266
0.355581
0.369581
0.36968
0.355651
0.346904
0.322681
0.31126
0.285447
0.274013
0.249715
0.239234
0.217589
0.208521
0.190421
0.183752
0.172685
0.174652
0.195956
0.265709
0.173697
0.12291
0.107915
0.091136
0.084994
0.074772
0.0706727
0.0629112
0.0596899
0.0533258
0.050643
0.0452439
0.0429359
0.0382153
0.0361451
0.0317875
0.0297643
0.0252473
0.0229494
0.0174123
0.0163375
0.0171616
0.0172264
0.0166654
0.0162888
0.0152031
0.0146819
0.0134841
0.0129419
0.0117631
0.0112226
0.010031
0.00941658
0.00791071
0.00687178
0.00380633
0.000802844
-0.00939248
-0.022825
-0.0731334
-0.16481
-0.179375
-0.287401
-0.363531
-0.586534
-0.542711
-0.12844
-0.0284623
-0.00643127
-67.4942
55.7297
1.8514
1.39777
1.1871
0.913189
0.800213
0.656779
0.590219
0.487533
0.431381
0.329029
0.303563
0.31218
0.312011
0.30106
0.292769
0.273581
0.262721
0.242181
0.231296
0.211935
0.201953
0.184705
0.176074
0.161695
0.155391
0.146943
0.149079
0.167697
0.216516
0.148555
0.106083
0.0914899
0.077695
0.0717891
0.0635706
0.0596558
0.0534489
0.0503774
0.045295
0.0427379
0.0384274
0.0362276
0.0324578
0.0304841
0.0270008
0.025071
0.0214568
0.0192787
0.014971
0.0139464
0.0144898
0.0145398
0.014104
0.0137473
0.0128876
0.012392
0.0114387
0.0109224
0.00998174
0.00946621
0.00851109
0.00792297
0.00670231
0.00570014
0.0031662
0.00023739
-0.00839734
-0.0215457
-0.0639869
-0.136007
-0.156388
-0.242535
-0.313789
-0.480627
-0.439349
-0.124081
-0.029949
-0.00699513
-67.8803
58.3592
1.46129
1.15007
0.96944
0.754289
0.654193
0.540727
0.481693
0.400779
0.351291
0.272716
0.250182
0.255131
0.254772
0.246363
0.239071
0.224148
0.214569
0.19853
0.188919
0.173779
0.164963
0.151476
0.143856
0.132645
0.127115
0.120778
0.122847
0.13823
0.171994
0.122393
0.0881422
0.0750329
0.0639386
0.0586769
0.0521971
0.0487307
0.0438613
0.0411454
0.0371633
0.0349029
0.0315266
0.0295821
0.0266286
0.0248835
0.0221519
0.0204451
0.0176089
0.0156932
0.0123984
0.0114927
0.0118377
0.0118726
0.0115394
0.0112259
0.0105576
0.0101205
0.00937593
0.00891985
0.00818338
0.00772741
0.00697656
0.0064547
0.00548521
0.00458982
0.0025419
-9.97806e-05
-0.00722161
-0.0190946
-0.0536571
-0.10927
-0.13077
-0.198264
-0.260223
-0.383045
-0.346947
-0.110876
-0.0285886
-0.00686948
-68.2661
60.9683
1.10395
0.897133
0.753161
0.590786
0.508707
0.422498
0.374041
0.312767
0.272364
0.214162
0.195701
0.198294
0.197856
0.191621
0.185677
0.174502
0.166675
0.154621
0.146762
0.135371
0.12816
0.118012
0.111782
0.103368
0.0988715
0.0942775
0.0960824
0.108028
0.130807
0.0956167
0.0693555
0.0584955
0.049949
0.0456136
0.0407031
0.0378617
0.0341876
0.0319641
0.0289628
0.0271127
0.0245685
0.022977
0.020751
0.0193225
0.0172622
0.0158645
0.0137242
0.0121629
0.00973034
0.00898894
0.00919812
0.00922028
0.00897415
0.00871868
0.00821844
0.00786131
0.00730163
0.00692858
0.00637383
0.00600044
0.00543289
0.00500437
0.00426517
0.00352564
0.00194138
-0.000257708
-0.00585579
-0.0157359
-0.0424852
-0.0838971
-0.103313
-0.154214
-0.204222
-0.29182
-0.262543
-0.0915199
-0.0248054
-0.00609909
-68.6517
63.5609
0.771347
0.641687
0.537618
0.424071
0.363387
0.302759
0.266902
0.223921
0.194149
0.154018
0.140378
0.141579
0.141172
0.136867
0.132493
0.124721
0.118951
0.110545
0.104747
0.0967964
0.091475
0.0843913
0.079796
0.073935
0.070632
0.0675206
0.0689124
0.0773933
0.0919394
0.0684838
0.0499529
0.0418656
0.035791
0.0325733
0.0291265
0.0270262
0.024456
0.0228139
0.0207162
0.0193503
0.0175725
0.0163974
0.0148417
0.0137868
0.012346
0.0113137
0.00981644
0.00866755
0.00699462
0.00644719
0.00656602
0.00657868
0.00640925
0.00622132
0.00587354
0.00561024
0.0052199
0.0049446
0.00455705
0.00428126
0.00388369
0.0035665
0.00304518
0.00249526
0.00136549
-0.000279646
-0.00431865
-0.0117024
-0.0307267
-0.0594039
-0.0745962
-0.110201
-0.146718
-0.205269
-0.183809
-0.0679913
-0.0191019
-0.00477896
-69.0371
66.1415
0.456018
0.385217
0.322453
0.255241
0.218064
0.182029
0.160048
0.134547
0.116348
0.0928149
0.0844621
0.0849275
0.0846434
0.0821163
0.079445
0.0748606
0.0713325
0.0663648
0.0628173
0.0581162
0.0548603
0.0506714
0.0478604
0.0443994
0.042385
0.0405837
0.0414588
0.0465156
0.0545916
0.041154
0.0301326
0.0251553
0.0215188
0.0195422
0.0174961
0.0162095
0.0146873
0.0136821
0.0124405
0.0116045
0.0105523
0.00983311
0.00891229
0.00826656
0.00741342
0.00678142
0.00589475
0.00519316
0.0042139
0.00387882
0.0039382
0.00394439
0.00384512
0.00373038
0.00352528
0.00336429
0.00313358
0.00296514
0.00273583
0.00256697
0.0023313
0.00213681
0.00182634
0.0014881
0.000810232
-0.000205808
-0.0026477
-0.00720318
-0.018582
-0.0354499
-0.0450627
-0.0661503
-0.0883328
-0.121919
-0.108849
-0.0417856
-0.0120157
-0.0030412
-69.4223
68.7146
0.150883
0.128426
0.107467
0.0852103
0.0726954
0.0607372
0.0533354
0.0448801
0.0387609
0.0310042
0.028193
0.0283063
0.0282047
0.0273712
0.0264734
0.0249579
0.0237714
0.0221276
0.0209343
0.0193782
0.0182829
0.0168963
0.0159508
0.014806
0.0141295
0.0135397
0.013838
0.0155173
0.0181043
0.0137276
0.0100706
0.00839133
0.00718018
0.00651389
0.0058353
0.0054022
0.00489798
0.00455972
0.00414856
0.00386725
0.00351885
0.00327686
0.00297193
0.00275465
0.00247207
0.00225939
0.00196569
0.0017299
0.00140743
0.00129468
0.00131252
0.00131434
0.00128163
0.00124307
0.00117527
0.00112113
0.00104479
0.000988121
0.000912195
0.000855373
0.000777266
0.000711766
0.000608634
0.000494541
0.00026851
-7.49221e-05
-0.00089219
-0.00243103
-0.00621777
-0.0117862
-0.0150703
-0.0220561
-0.0294911
-0.0404353
-0.0360486
-0.0140881
-0.00409771
-0.00104318
-69.8074
68.7223
0.13674
0.103794
0.0777592
0.052442
0.0390533
0.0275026
0.0210891
0.0150023
0.0125849
0.011923
0.011573
0.0110198
0.0105817
0.00996783
0.00952186
0.0089395
0.00852148
0.00797822
0.00758722
0.00707759
0.00671215
0.00623897
0.00590779
0.00549466
0.00524183
0.00500543
0.00508383
0.00563204
0.00650083
0.00486552
0.00348739
0.00284811
0.00237846
0.00211904
0.00185489
0.00168777
0.00149563
0.00136857
0.00121673
0.00111453
0.000990289
0.000905533
0.000800887
0.000727996
0.00063564
0.000568568
0.000479439
0.000411277
0.000320793
0.000282044
0.000267328
0.000251065
0.000217013
0.000184085
0.00012965
8.09921e-05
3.69582e-06
-6.65205e-05
-0.000180267
-0.000288066
-0.000469098
-0.000651091
-0.000972118
-0.00132621
-0.00200135
-0.00287884
-0.00478167
-0.00793379
-0.0152985
-0.025221
-0.0278907
-0.0350304
-0.0427975
-0.053915
-0.0469775
-0.0182897
-0.00531368
-0.00135226
-69.1028
66.1648
0.413673
0.311105
0.233249
0.156849
0.117086
0.0823024
0.0632543
0.04486
0.0376844
0.0357565
0.0347271
0.0330549
0.0317521
0.0298968
0.028571
0.0268119
0.0255694
0.0239286
0.0227664
0.021227
0.0201408
0.0187112
0.0177266
0.0164776
0.0157248
0.0150037
0.0152327
0.0168833
0.0196027
0.0145863
0.0104326
0.00853754
0.00712695
0.0063573
0.00556079
0.00506431
0.0044843
0.0041067
0.00364821
0.00334448
0.00296929
0.00271739
0.00240139
0.00218476
0.00190591
0.00170659
0.00143748
0.00123472
0.00096031
0.000845169
0.000802045
0.000753906
0.000650994
0.000553113
0.000388719
0.000244121
1.08038e-05
-0.000197821
-0.000541038
-0.00086127
-0.00140726
-0.00194771
-0.00291503
-0.00396579
-0.00599597
-0.00859551
-0.014295
-0.0236329
-0.0457931
-0.0759532
-0.0834933
-0.105066
-0.128259
-0.162467
-0.141802
-0.0542407
-0.0155805
-0.00394218
-67.3085
63.6009
0.701078
0.517427
0.388681
0.25979
0.19492
0.136473
0.105393
0.0742691
0.062574
0.0595541
0.057907
0.0550751
0.0529447
0.0498045
0.0476376
0.0446637
0.0426333
0.0398598
0.0379607
0.0353583
0.0335831
0.0311657
0.0295561
0.0274406
0.0262065
0.0249639
0.0253247
0.0280918
0.0330139
0.0242725
0.0172875
0.0142076
0.0118498
0.0105966
0.00925468
0.00844419
0.00746486
0.00684806
0.00607349
0.00557728
0.00494335
0.00453181
0.00399791
0.00364402
0.00317299
0.00284739
0.00239286
0.00206103
0.00159345
0.00140541
0.00133696
0.00125894
0.00108477
0.000924801
0.000646994
0.000410798
1.69225e-05
-0.000323739
-0.00090273
-0.00142544
-0.00234564
-0.00322726
-0.00485461
-0.00656619
-0.0099678
-0.0141882
-0.0236629
-0.0388191
-0.0759678
-0.12759
-0.138535
-0.175037
-0.213279
-0.273214
-0.239303
-0.0882357
-0.0247664
-0.00619452
-65.514
61.0266
1.00629
0.721553
0.544118
0.360171
0.272497
0.189548
0.147534
0.102901
0.0871166
0.0832968
0.0811342
0.0770674
0.0741776
0.0696733
0.0667364
0.0624777
0.059727
0.055756
0.0531831
0.0494565
0.0470511
0.0435878
0.0414057
0.0383684
0.0366886
0.03486
0.0353204
0.0392141
0.0469717
0.0338885
0.0239861
0.0198487
0.0165285
0.0148395
0.0129273
0.0118308
0.0104309
0.00959572
0.00848763
0.00781557
0.00690851
0.00635112
0.00558723
0.00510795
0.00443425
0.00399335
0.00334333
0.00289277
0.00221541
0.00196087
0.00187225
0.00176781
0.00151798
0.0013012
0.000903602
0.000583778
2.091e-05
-0.000440126
-0.00126668
-0.00197372
-0.00328556
-0.00447698
-0.00679082
-0.009099
-0.0139069
-0.0195707
-0.0328034
-0.0531255
-0.105564
-0.180854
-0.192554
-0.244939
-0.297432
-0.387715
-0.34149
-0.118727
-0.0321564
-0.00790523
-63.7193
58.438
1.33715
0.921387
0.699816
0.456701
0.349886
0.240986
0.18978
0.130379
0.111181
0.106973
0.104438
0.0990125
0.0954751
0.0894795
0.085888
0.0802314
0.0768694
0.0715962
0.0684516
0.0635018
0.0605615
0.0559587
0.0532895
0.0492419
0.0471766
0.0446646
0.0451788
0.0501818
0.0617631
0.0433772
0.0304542
0.0254572
0.0211419
0.0190913
0.0165673
0.0152296
0.0133744
0.0123543
0.0108843
0.0100633
0.00885967
0.00817868
0.00716515
0.00657966
0.00568619
0.00514767
0.00428581
0.00373357
0.00282045
0.00250968
0.00240818
0.00228249
0.00194986
0.00168482
0.00115709
0.000766477
2.08204e-05
-0.000541896
-0.0016354
-0.00249781
-0.0042303
-0.0056818
-0.00872726
-0.0115318
-0.0178117
-0.0246504
-0.0416605
-0.0661474
-0.134245
-0.236662
-0.244945
-0.314836
-0.380073
-0.507677
-0.450739
-0.14377
-0.0370536
-0.00890312
-61.9244
55.8318
1.70226
1.11345
0.856375
0.547778
0.427357
0.290117
0.232353
0.156249
0.134645
0.130583
0.127857
0.120882
0.116871
0.109189
0.105122
0.0978934
0.0940883
0.0873514
0.0837924
0.0774667
0.0741383
0.0682522
0.0652285
0.0600361
0.0576824
0.054348
0.0548577
0.0608863
0.0777531
0.0526474
0.0366051
0.0310384
0.0256647
0.023362
0.0201598
0.018649
0.0162844
0.0151308
0.013255
0.0123262
0.0107899
0.0100195
0.00872594
0.00806367
0.00692391
0.00631491
0.0052159
0.00458879
0.00340139
0.00305012
0.00294506
0.00280545
0.00237903
0.00207895
0.0014051
0.000963371
1.34084e-05
-0.000622438
-0.00201338
-0.0029871
-0.00518629
-0.00682286
-0.0106733
-0.0138256
-0.0216943
-0.0293233
-0.0502184
-0.0774249
-0.161554
-0.296236
-0.294873
-0.384919
-0.46022
-0.63502
-0.569989
-0.160803
-0.0388083
-0.00906523
-60.1291
53.2054
2.11105
1.29225
1.01499
0.631329
0.505501
0.336068
0.27566
0.179938
0.157408
0.154139
0.151445
0.142633
0.138414
0.128755
0.124483
0.115418
0.111424
0.102979
0.0992438
0.0913117
0.0878174
0.0804312
0.0772542
0.0707166
0.0682275