/*--------------------------------*- C++ -*----------------------------------*\
| =========                 |                                                 |
| \\      /  F ield         | OpenFOAM: The Open Source CFD Toolbox           |
|  \\    /   O peration     | Version:  5.x                                   |
|   \\  /    A nd           | Web:      www.OpenFOAM.org                      |
|    \\/     M anipulation  |                                                 |
\*---------------------------------------------------------------------------*/
FoamFile
{
    version     2.0;
    format      ascii;
    class       volScalarField;
    location    "1.1";
    object      gradTx;
}
// * * * * * * * * * * * * * * * * * * * * * * * * * * * * * * * * * * * * * //

dimensions      [0 -1 0 1 0 0 0];

internalField   nonuniform List<scalar> 
6300
(
-29.3523
-29.4196
-29.5536
-29.753
-30.0156
-30.3385
-30.7176
-31.148
-31.6233
-32.1359
-32.6771
-33.2371
-33.8057
-34.3724
-34.9272
-29.2849
-29.3529
-29.4882
-29.6897
-29.9553
-30.2821
-30.6664
-31.1031
-31.5859
-32.1072
-32.6581
-33.2286
-33.8076
-34.3842
-34.9477
-29.1495
-29.2187
-29.3567
-29.5622
-29.8336
-30.1683
-30.5627
-31.012
-31.5099
-32.049
-32.6197
-33.2113
-33.8119
-34.409
-34.9905
-28.9448
-29.0158
-29.1574
-29.3688
-29.6487
-29.9948
-30.404
-30.8721
-31.3929
-31.9589
-32.5602
-33.185
-33.8197
-34.4495
-35.0596
-28.669
-28.7421
-28.8883
-29.107
-29.3974
-29.758
-30.1865
-30.6793
-31.2308
-31.8335
-32.4773
-33.1489
-33.8323
-34.5095
-35.1615
-28.32
-28.3955
-28.5466
-28.7734
-29.0758
-29.4534
-29.9048
-30.4276
-31.0174
-31.6671
-32.3664
-33.1008
-33.8512
-34.5948
-35.3061
-27.8954
-27.9732
-28.1292
-28.3641
-28.679
-29.0747
-29.5516
-30.1089
-30.7439
-31.4511
-32.2205
-33.0365
-33.8769
-34.7125
-35.5078
-27.3929
-27.4726
-27.6327
-27.8749
-28.2014
-28.6149
-29.1179
-29.7123
-30.3983
-31.1728
-32.0278
-32.9477
-33.9075
-34.8702
-35.7868
-26.8107
-26.8914
-27.0541
-27.3013
-27.6368
-28.0655
-28.5928
-29.2242
-29.9641
-30.8141
-31.7701
-32.8192
-33.9352
-35.074
-36.1693
-26.1478
-26.2282
-26.3908
-26.6393
-26.979
-27.4174
-27.9634
-28.6275
-29.4199
-30.3493
-31.4193
-32.6236
-33.9399
-35.3214
-36.6856
-25.4045
-25.4828
-25.6417
-25.8859
-26.2225
-26.6615
-27.2161
-27.9023
-28.7385
-29.7439
-30.9341
-32.3161
-33.8793
-35.5861
-37.3554
-24.5827
-24.6567
-24.8073
-25.04
-25.3634
-25.79
-26.3371
-27.027
-27.8881
-28.9534
-30.2572
-31.8274
-33.675
-35.7881
-38.1395
-23.6868
-23.7539
-23.8908
-24.1033
-24.401
-24.7981
-25.3151
-25.9805
-26.8335
-27.9245
-29.3139
-31.0613
-33.205
-35.7518
-38.7879
-22.7238
-22.7812
-22.8985
-23.0814
-23.3392
-23.6863
-24.1445
-24.7465
-25.5407
-26.5972
-28.0124
-29.8987
-32.3316
-35.2255
-38.4352
-21.7034
-21.7484
-21.8407
-21.9846
-22.188
-22.4632
-22.8302
-23.3204
-23.9855
-24.9112
-26.2396
-28.1891
-30.9965
-34.3828
-34.9304
-35.4189
-35.8454
-36.2505
-36.6322
-36.9898
-37.3234
-37.6335
-37.9205
-38.1849
-38.4267
-38.6454
-38.8402
-39.0104
-39.1554
-39.2751
-39.3705
-39.4436
-39.497
-39.5344
-39.5598
-39.5772
-39.5902
-39.6014
-39.6125
-39.6239
-39.6351
-39.6446
-39.6505
-39.6512
-39.6451
-39.6317
-39.6112
-39.5851
-39.5554
-39.5248
-39.4958
-39.4709
-39.4517
-39.4388
-39.4318
-39.4294
-39.4295
-39.4296
-39.4275
-39.4213
-39.41
-39.3936
-39.373
-39.3501
-39.3271
-39.3065
-39.2903
-39.2799
-39.2757
-39.277
-39.2822
-39.2892
-39.2953
-39.298
-39.2954
-39.2863
-39.2705
-39.2491
-39.2235
-39.1962
-39.1695
-39.1454
-39.1253
-39.1097
-39.0981
-39.0892
-39.081
-39.0713
-39.0584
-39.0411
-39.0193
-38.9942
-38.9684
-38.9454
-38.9297
-38.9258
-38.9381
-38.9702
-39.0242
-39.1005
-39.1978
-39.3126
-39.4397
-39.5727
-39.7044
-35.4458
-35.8765
-36.284
-36.6668
-37.0244
-37.3574
-37.6666
-37.9531
-38.2176
-38.46
-38.6797
-38.8758
-39.0468
-39.1917
-39.3101
-39.4029
-39.4718
-39.52
-39.5517
-39.5714
-39.5837
-39.5928
-39.6016
-39.612
-39.6243
-39.6375
-39.6497
-39.6583
-39.661
-39.6558
-39.6418
-39.6195
-39.5903
-39.5569
-39.5224
-39.4901
-39.4629
-39.4428
-39.4304
-39.4254
-39.426
-39.4295
-39.433
-39.4335
-39.4288
-39.4175
-39.3996
-39.3765
-39.3503
-39.3239
-39.3003
-39.2822
-39.2711
-39.2678
-39.2713
-39.2798
-39.2905
-39.3002
-39.3058
-39.3048
-39.2959
-39.2789
-39.2549
-39.2261
-39.1955
-39.1658
-39.1397
-39.1189
-39.104
-39.0943
-39.0881
-39.083
-39.076
-39.0647
-39.0475
-39.024
-38.9953
-38.9642
-38.9349
-38.9125
-38.9023
-38.9096
-38.9386
-38.9919
-39.0704
-39.1725
-39.2946
-39.4311
-39.5746
-39.7169
-35.5018
-35.9408
-36.3531
-36.7376
-37.0946
-37.4255
-37.7324
-38.0175
-38.2819
-38.5258
-38.7483
-38.9474
-39.1207
-39.2661
-39.3823
-39.4696
-39.5299
-39.5671
-39.5863
-39.5936
-39.595
-39.5957
-39.5997
-39.609
-39.6236
-39.6417
-39.66
-39.6748
-39.6822
-39.6792
-39.6643
-39.6378
-39.6018
-39.5601
-39.517
-39.4772
-39.4449
-39.4227
-39.4117
-39.4111
-39.4184
-39.4297
-39.4408
-39.4473
-39.4458
-39.4346
-39.4136
-39.3845
-39.3508
-39.3167
-39.2864
-39.2638
-39.2515
-39.2501
-39.2586
-39.2744
-39.2935
-39.3112
-39.3231
-39.3258
-39.3172
-39.2973
-39.2676
-39.2316
-39.1932
-39.1569
-39.1263
-39.104
-39.0907
-39.0854
-39.0856
-39.0875
-39.0868
-39.0796
-39.063
-39.036
-38.9997
-38.9574
-38.9145
-38.8775
-38.8537
-38.8498
-38.8718
-38.9233
-39.0059
-39.1182
-39.256
-39.4122
-39.578
-39.7429
-35.5917
-36.0434
-36.4624
-36.8481
-37.2021
-37.528
-37.8298
-38.1116
-38.3757
-38.6226
-38.8506
-39.0561
-39.2349
-39.3825
-39.4961
-39.5751
-39.6214
-39.64
-39.6382
-39.6244
-39.6072
-39.5941
-39.5903
-39.5984
-39.6179
-39.6455
-39.6757
-39.7021
-39.7185
-39.7198
-39.7035
-39.6698
-39.6219
-39.5653
-39.5069
-39.4539
-39.4124
-39.3866
-39.3781
-39.3856
-39.4051
-39.4306
-39.4553
-39.4726
-39.4771
-39.466
-39.4391
-39.3995
-39.3522
-39.304
-39.2616
-39.231
-39.2161
-39.2181
-39.2357
-39.2645
-39.2984
-39.3305
-39.3538
-39.363
-39.355
-39.3297
-39.2897
-39.2404
-39.1881
-39.1398
-39.1011
-39.076
-39.0657
-39.0687
-39.0807
-39.0958
-39.107
-39.1079
-39.0934
-39.0612
-39.0125
-38.9515
-38.8854
-38.8236
-38.7761
-38.7528
-38.7621
-38.8099
-38.8986
-39.0272
-39.1905
-39.3796
-39.5823
-39.7849
-35.7237
-36.1929
-36.6198
-37.0042
-37.3503
-37.665
-37.9562
-38.2311
-38.4943
-38.7467
-38.9851
-39.2035
-39.3938
-39.548
-39.66
-39.7275
-39.7527
-39.7425
-39.7074
-39.6602
-39.6137
-39.5791
-39.5639
-39.5716
-39.6007
-39.6455
-39.6969
-39.7441
-39.7766
-39.786
-39.7679
-39.7225
-39.6546
-39.5732
-39.4893
-39.4141
-39.3574
-39.3259
-39.3218
-39.343
-39.3831
-39.4328
-39.4808
-39.5165
-39.5312
-39.5201
-39.4833
-39.4255
-39.3551
-39.2829
-39.22
-39.1757
-39.1563
-39.1641
-39.1965
-39.2471
-39.3062
-39.3625
-39.405
-39.4251
-39.4178
-39.3831
-39.3255
-39.2534
-39.1775
-39.1087
-39.0564
-39.0267
-39.0217
-39.0388
-39.0714
-39.1096
-39.1422
-39.1581
-39.149
-39.1104
-39.043
-38.9528
-38.8502
-38.7489
-38.6636
-38.6089
-38.5971
-38.6372
-38.7338
-38.8862
-39.0879
-39.327
-39.5868
-39.8475
-35.9109
-36.4036
-36.8381
-37.2155
-37.5438
-37.8357
-38.106
-38.3676
-38.6286
-38.8907
-39.1486
-39.3914
-39.6048
-39.7742
-39.8881
-39.941
-39.9352
-39.8807
-39.7941
-39.695
-39.6033
-39.536
-39.5047
-39.514
-39.5611
-39.6362
-39.7242
-39.8073
-39.8679
-39.8921
-39.8719
-39.8075
-39.707
-39.585
-39.4591
-39.3478
-39.2665
-39.2257
-39.2291
-39.2732
-39.3477
-39.4374
-39.5243
-39.5907
-39.6224
-39.6115
-39.558
-39.4697
-39.3608
-39.2488
-39.1516
-39.0846
-39.0577
-39.0746
-39.1314
-39.2177
-39.3181
-39.4144
-39.4886
-39.5267
-39.5203
-39.4695
-39.3821
-39.2719
-39.1566
-39.0539
-38.979
-38.9419
-38.9458
-38.9867
-39.054
-39.1316
-39.2012
-39.2445
-39.2471
-39.201
-39.1063
-38.9718
-38.8132
-38.6509
-38.507
-38.4029
-38.3571
-38.3831
-38.4886
-38.6739
-38.9313
-39.2446
-39.5898
-39.9378
-36.1734
-36.6979
-37.1386
-37.4977
-37.7895
-38.0375
-38.2682
-38.5048
-38.7614
-39.0408
-39.3339
-39.6216
-39.8791
-40.0804
-40.2041
-40.2391
-40.1876
-40.0655
-39.8989
-39.7192
-39.5578
-39.4412
-39.3871
-39.4022
-39.4813
-39.6083
-39.7586
-39.903
-40.0121
-40.0621
-40.0395
-39.9446
-39.7908
-39.6022
-39.4083
-39.2384
-39.1175
-39.062
-39.078
-39.1597
-39.2907
-39.4464
-39.5975
-39.715
-39.7751
-39.7644
-39.6829
-39.5438
-39.371
-39.1934
-39.0401
-38.9357
-38.8963
-38.9277
-39.0239
-39.1683
-39.3361
-39.4979
-39.6246
-39.6921
-39.6869
-39.6089
-39.4714
-39.2979
-39.1175
-38.9592
-38.8473
-38.798
-38.8166
-38.8968
-39.0214
-39.1651
-39.2978
-39.3894
-39.4154
-39.3613
-39.2269
-39.0254
-38.7814
-38.5262
-38.2929
-38.1131
-38.0135
-38.0145
-38.1283
-38.3577
-38.6941
-39.1159
-39.5885
-40.0675
-36.5422
-37.1127
-37.5568
-37.8767
-38.0983
-38.2642
-38.4222
-38.613
-38.8613
-39.1712
-39.5268
-39.8955
-40.2345
-40.4981
-40.6479
-40.6617
-40.5419
-40.3143
-40.0224
-39.7171
-39.4481
-39.2565
-39.1698
-39.1982
-39.3326
-39.5471
-39.8019
-40.0495
-40.2414
-40.3367
-40.3117
-40.1665
-39.9248
-39.6274
-39.3229
-39.0587
-38.8742
-38.7957
-38.8325
-38.9754
-39.1983
-39.462
-39.7193
-39.9221
-40.03
-40.0196
-39.8906
-39.6668
-39.3883
-39.1032
-38.8585
-38.6932
-38.6332
-38.6876
-38.847
-39.0852
-39.3627
-39.6323
-39.8458
-39.9624
-39.9585
-39.834
-39.6124
-39.334
-39.0467
-38.7976
-38.6256
-38.5564
-38.5988
-38.7427
-38.9615
-39.2145
-39.4536
-39.629
-39.6987
-39.6375
-39.4439
-39.1401
-38.7658
-38.3698
-38.0018
-37.7074
-37.525
-37.4834
-37.6015
-37.8873
-38.3338
-38.9141
-39.5778
-40.2556
-37.0649
-37.7094
-38.154
-38.3973
-38.487
-38.5022
-38.5289
-38.6384
-38.8724
-39.236
-39.7008
-40.2122
-40.6982
-41.0801
-41.2873
-41.2771
-41.0512
-40.6558
-40.1653
-39.6629
-39.2268
-38.9207
-38.7871
-38.8415
-39.0689
-39.4277
-39.8556
-40.2765
-40.6099
-40.7846
-40.7571
-40.5274
-40.1391
-39.6631
-39.1797
-38.7642
-38.4785
-38.3637
-38.4344
-38.676
-39.0473
-39.4869
-39.9197
-40.266
-40.4556
-40.4454
-40.2353
-39.8685
-39.4153
-38.955
-38.5626
-38.2992
-38.2056
-38.2965
-38.5568
-38.9455
-39.4009
-39.8478
-40.2064
-40.4062
-40.4038
-40.1991
-39.8353
-39.3828
-38.921
-38.5249
-38.2558
-38.1542
-38.2345
-38.4811
-38.8519
-39.2841
-39.7009
-40.0206
-40.1703
-40.1042
-39.8194
-39.3561
-38.7816
-38.173
-37.6044
-37.1406
-36.8336
-36.7221
-36.8332
-37.1852
-37.7808
-38.5919
-39.5469
-40.5332
-37.8133
-38.5938
-39.0409
-39.1392
-38.9831
-38.7236
-38.5164
-38.4846
-38.6969
-39.1551
-39.8077
-40.5655
-41.312
-41.9135
-42.2398
-42.2031
-41.8045
-41.1345
-40.3255
-39.5134
-38.8183
-38.3365
-38.134
-38.2356
-38.6159
-39.2091
-39.9195
-40.6296
-41.207
-41.524
-41.4939
-41.1169
-40.4797
-39.7098
-38.9388
-38.2831
-37.8369
-37.6645
-37.7904
-38.1899
-38.7984
-39.5219
-40.2446
-40.8358
-41.1693
-41.1592
-40.8058
-40.1949
-39.4526
-38.7094
-38.0809
-37.6607
-37.5127
-37.6613
-38.0819
-38.7099
-39.4515
-40.1904
-40.7959
-41.1412
-41.1404
-40.7934
-40.1861
-39.445
-38.7009
-38.0695
-37.6446
-37.4902
-37.6307
-38.0405
-38.6541
-39.3759
-40.088
-40.6569
-40.9527
-40.8858
-40.4519
-39.732
-38.8464
-37.9184
-37.0562
-36.3479
-35.8605
-35.6401
-35.7181
-36.1321
-36.9174
-38.0623
-39.4705
-40.9536
-38.8904
-39.9584
-40.4299
-40.2473
-39.628
-38.8698
-38.251
-37.9793
-38.1673
-38.794
-39.7633
-40.9349
-42.1346
-43.143
-43.7154
-43.6502
-42.9485
-41.8135
-40.49
-39.1957
-38.1025
-37.3504
-37.043
-37.2286
-37.8566
-38.8217
-39.9841
-41.174
-42.1793
-42.7632
-42.7304
-42.0812
-41.0116
-39.7581
-38.532
-37.5006
-36.8012
-36.5359
-36.7528
-37.403
-38.3839
-39.5582
-40.7591
-41.777
-42.3776
-42.3677
-41.7475
-40.7106
-39.4912
-38.2988
-37.2997
-36.6303
-36.3927
-36.6348
-37.3084
-38.3111
-39.5058
-40.7255
-41.7601
-42.3749
-42.3757
-41.7626
-40.7297
-39.5116
-38.3183
-37.3167
-36.6437
-36.4018
-36.6391
-37.3064
-38.3002
-39.4816
-40.6814
-41.6863
-42.2574
-42.1958
-41.4962
-40.3464
-38.9719
-37.5691
-36.2862
-35.2371
-34.5029
-34.1284
-34.1191
-34.5442
-35.5361
-37.1534
-39.2861
-41.6111
-40.4153
-42.1821
-42.7608
-41.9844
-40.4731
-38.8149
-37.4857
-36.8119
-37.006
-37.9396
-39.4276
-41.2639
-43.2327
-45.0005
-46.109
-46.014
-44.7165
-42.7642
-40.6124
-38.5884
-36.8956
-35.7239
-35.2424
-35.5846
-36.6118
-38.1505
-40.0089
-41.9846
-43.7586
-44.8906
-44.8545
-43.6512
-41.8086
-39.7673
-37.8448
-36.2402
-35.1405
-34.7133
-35.0912
-36.1401
-37.691
-39.5564
-41.5375
-43.3191
-44.4655
-44.4553
-43.2892
-41.4892
-39.4913
-37.6101
-36.0436
-34.9783
-34.5819
-34.9872
-36.0612
-37.6359
-39.5241
-41.5271
-43.329
-44.4926
-44.4951
-43.3365
-41.54
-39.5427
-37.6599
-36.0905
-35.0221
-34.6234
-35.0282
-36.1022
-37.6761
-39.5608
-41.5553
-43.3402
-44.4732
-44.4244
-43.1887
-41.2843
-39.1382
-37.0472
-35.1792
-33.6727
-32.627
-32.0909
-31.8942
-32.1401
-33.2543
-35.5023
-38.8246
-42.683
-42.3796
-46.1168
-47.0431
-44.7801
-41.53
-38.2865
-35.7764
-34.3945
-34.7799
-36.2869
-38.5901
-41.4021
-44.6205
-47.8072
-50.2358
-50.1092
-47.4276
-44.002
-40.5511
-37.5043
-34.9382
-33.1035
-32.2557
-32.9542
-34.6308
-37.0191
-39.8649
-43.0856
-46.2627
-48.7003
-48.6596
-46.1417
-42.8919
-39.6057
-36.7001
-34.2529
-32.5117
-31.7315
-32.4637
-34.1543
-36.5455
-39.3884
-42.6033
-45.7764
-48.2189
-48.2078
-45.744
-42.553
-39.3235
-36.4684
-34.0661
-32.3634
-31.6167
-32.3769
-34.093
-36.5093
-39.3774
-42.6185
-45.817
-48.2826
-48.2865
-45.8291
-42.6397
-39.4087
-36.5502
-34.1431
-32.4363
-31.688
-32.4535
-34.1781
-36.6043
-39.482
-42.731
-45.9326
-48.3906
-48.362
-45.8439
-42.57
-39.2251
-36.2041
-33.5516
-31.4445
-30.0172
-29.5642
-29.0314
-28.485
-29.3397
-32.3041
-37.5911
-44.5283
-43.8059
-54.0991
-55.918
-48.9978
-42.5784
-36.702
-32.4429
-29.4318
-30.9389
-33.4876
-37.0198
-40.9552
-46.054
-51.7055
-58.042
-57.884
-51.2097
-45.2766
-39.9076
-35.7282
-31.9279
-29.0618
-27.0426
-28.9155
-31.6249
-35.2292
-39.1812
-44.2494
-49.832
-56.079
-56.0321
-49.6866
-44.0277
-38.8963
-34.8953
-31.249
-28.4992
-26.572
-28.4562
-31.16
-34.7496
-38.6847
-43.7296
-49.2858
-55.5056
-55.4927
-49.2461
-43.6723
-38.617
-34.675
-31.081
-28.3723
-26.4814
-28.3904
-31.1168
-34.732
-38.694
-43.7712
-49.3607
-55.6177
-55.6223
-49.3759
-43.7991
-38.7387
-34.7903
-31.1874
-28.4701
-26.5725
-28.4979
-31.2437
-34.8825
-38.8681
-43.975
-49.5959
-55.8884
-55.8843
-49.5875
-43.958
-38.8455
-34.8302
-31.1384
-28.2372
-26.0037
-27.1517
-26.1871
-22.8108
-22.3862
-25.7611
-33.9813
-47.9222
-38.045
-74.2858
-77.3765
-52.4937
-42.8454
-32.7889
-27.3121
-17.963
-25.598
-29.2719
-34.8688
-38.8332
-46.6913
-54.6175
-75.2002
-75.0423
-53.9247
-45.7389
-37.5512
-33.4064
-27.5721
-23.8007
-16.2251
-23.6723
-27.3303
-32.9387
-36.8902
-44.6728
-52.4448
-72.5211
-72.4749
-52.2428
-44.4044
-36.5594
-32.58
-26.9545
-23.3022
-15.9242
-23.2687
-26.8903
-32.4563
-36.3833
-44.12
-51.8399
-71.7679
-71.7543
-51.7797
-44.0452
-36.3076
-32.3807
-26.821
-23.2039
-15.8744
-23.2268
-26.8611
-32.4553
-36.4048
-44.1862
-51.9435
-71.9561
-71.9598
-51.9588
-44.2149
-36.4675
-32.533
-26.9565
-23.3234
-15.9521
-23.361
-27.0232
-32.6612
-36.6395
-44.4788
-52.292
-72.453
-72.4678
-52.37
-44.6012
-36.886
-32.9902
-27.5864
-24.068
-17.1199
-27.7799
-26.8152
-12.8858
-9.96073
-12.241
-22.1339
-54.5409
-39.8383
-39.9625
-40.0543
-40.1079
-40.1216
-40.0974
-40.0406
-39.9586
-39.8603
-39.755
-39.6517
-39.5586
-39.4826
-39.4288
-39.4011
-39.8613
-39.9948
-40.0923
-40.1477
-40.1594
-40.13
-40.0656
-39.9747
-39.8671
-39.7528
-39.6414
-39.5415
-39.4601
-39.4027
-39.3732
-39.9099
-40.0629
-40.1723
-40.2311
-40.2381
-40.1973
-40.117
-40.0075
-39.8805
-39.7476
-39.6195
-39.5056
-39.4134
-39.3487
-39.3155
-39.9895
-40.1746
-40.3028
-40.3661
-40.3643
-40.3042
-40.1973
-40.0576
-39.8996
-39.7374
-39.5833
-39.4477
-39.339
-39.2632
-39.2243
-40.1096
-40.3429
-40.4982
-40.566
-40.5487
-40.4578
-40.3103
-40.1257
-39.9228
-39.7189
-39.5284
-39.363
-39.2316
-39.1406
-39.0941
-40.2857
-40.589
-40.7809
-40.8509
-40.8065
-40.6677
-40.4604
-40.2119
-39.947
-39.6868
-39.4482
-39.244
-39.0836
-38.9733
-38.9172
-40.5426
-40.9465
-41.1854
-41.2501
-41.1587
-40.9458
-40.6517
-40.3144
-39.9663
-39.633
-39.3334
-39.0811
-38.8852
-38.7517
-38.6842
-40.9214
-41.4688
-41.7641
-41.8051
-41.6321
-41.3052
-40.8859
-40.4274
-39.9706
-39.5452
-39.1712
-38.8616
-38.6243
-38.464
-38.3833
-41.4908
-42.2431
-42.597
-42.5738
-42.2592
-41.7567
-41.1594
-40.5385
-39.9435
-39.4059
-38.9445
-38.5695
-38.2861
-38.0966
-38.0017
-42.372
-43.4157
-43.8067
-43.6338
-43.0741
-42.303
-41.4561
-40.6235
-39.8587
-39.1903
-38.6312
-38.1857
-37.854
-37.6343
-37.525
-43.7912
-45.2409
-45.5799
-45.0805
-44.1001
-42.925
-41.7384
-40.6405
-39.6775
-38.8652
-38.2041
-37.6881
-37.3096
-37.0615
-36.9387
-46.2047
-48.1767
-48.1914
-47.0079
-45.3205
-43.5581
-41.9318
-40.5223
-39.3453
-38.3887
-37.6317
-37.0529
-36.6346
-36.3631
-36.2296
-50.6319
-53.0698
-52.0011
-49.4389
-46.6155
-44.055
-41.9082
-40.1715
-38.7926
-37.7126
-36.8807
-36.2571
-35.8125
-35.5266
-35.3867
-59.6565
-61.4702
-57.3051
-52.1314
-47.6473
-44.138
-41.4742
-39.4627
-37.9407
-36.7882
-35.9213
-35.2822
-34.8316
-34.544
-34.4038
-80.9093
-75.8494
-63.6185
-54.1348
-47.7044
-43.3753
-40.3875
-38.2642
-36.719
-35.5781
-34.7341
-34.1185
-33.6876
-33.4137
-33.2806
-20.7266
-20.7584
-20.8235
-20.9246
-21.0667
-21.2581
-21.5123
-21.8527
-22.3208
-22.9966
-24.0449
-25.8352
-29.241
-36.2125
-48.8366
-19.8164
-19.8353
-19.8737
-19.9324
-20.0131
-20.1187
-20.2544
-20.4296
-20.6634
-20.9973
-21.5343
-22.5726
-25.1685
-33.9529
-73.2479
-18.8929
-18.8987
-18.9097
-18.9248
-18.9421
-18.9585
-18.969
-18.9659
-18.9363
-18.8568
-18.6752
-18.2278
-16.7986
-10.5071
24.1828
-17.9655
-17.9584
-17.9428
-17.9157
-17.8717
-17.8022
-17.693
-17.5206
-17.2439
-16.7872
-16.0003
-14.5641
-11.8057
-6.78395
-3.42578
-17.0428
-17.0239
-16.9838
-16.9181
-16.8189
-16.6734
-16.4609
-16.1476
-15.6763
-14.9468
-13.7762
-11.8178
-8.38434
-1.90665
13.2505
-16.1333
-16.1039
-16.0426
-15.9438
-15.7983
-15.5911
-15.2988
-14.8844
-14.2881
-13.4128
-12.0991
-10.0957
-7.07677
-3.05756
-1.50101
-15.2441
-15.2061
-15.1272
-15.0019
-14.8204
-14.5678
-14.2215
-13.7473
-13.0937
-12.1833
-10.9008
-9.07863
-6.46374
-2.49891
5.4283
-14.3813
-14.3365
-14.2441
-14.0989
-13.8918
-13.6095
-13.2329
-12.7347
-12.0776
-11.2121
-10.0773
-8.61199
-6.78809
-4.69266
-2.73764
-13.5496
-13.4997
-13.3977
-13.2388
-13.0154
-12.7168
-12.3286
-11.8323
-11.2062
-10.4278
-9.48331
-8.39428
-7.30094
-6.78966
-9.54607
-12.7524
-12.6991
-12.5907
-12.4233
-12.191
-11.8861
-11.4992
-11.0201
-10.4406
-9.7588
-8.98962
-8.1795
-7.40953
-6.61822
-3.96614
-11.9921
-11.9368
-11.8247
-11.6528
-11.4171
-11.1124
-10.7337
-10.2776
-9.74577
-9.15042
-8.52429
-7.93674
-7.53289
-7.73983
-10.8474
-11.2701
-11.2137
-11.1
-10.9266
-10.6909
-10.39
-10.0219
-9.58769
-9.095
-8.56335
-8.03209
-7.56634
-7.23204
-6.84801
-4.17022
-10.5871
-10.5305
-10.4165
-10.2436
-10.01
-9.71409
-9.35581
-8.93829
-8.4712
-7.97593
-7.49432
-7.10457
-6.96565
-7.55001
-11.3503
-9.94339
-9.88709
-9.77389
-9.60267
-9.37217
-9.08145
-8.7308
-8.32323
-7.86687
-7.37894
-6.89267
-6.46852
-6.19691
-6.01971
-3.79868
-9.33865
-9.28308
-9.17144
-9.00281
-8.7761
-8.49032
-8.14522
-7.74196
-7.28437
-6.7807
-6.24779
-5.72642
-5.36254
-5.90978
-12.0758
-8.7724
-8.7179
-8.60846
-8.44319
-8.22093
-7.9403
-7.59991
-7.19833
-6.73376
-6.20266
-5.5948
-4.87483
-3.89534
-1.89898
5.69351
-8.24388
-8.19078
-8.08414
-7.92305
-7.70618
-7.43168
-7.097
-6.69832
-6.22926
-5.67782
-5.01954
-4.20334
-3.13421
-1.77564
-1.59344
-7.75213
-7.70074
-7.59751
-7.44153
-7.23134
-6.96475
-6.63842
-6.24709
-5.78187
-5.22705
-4.55382
-3.70737
-2.57395
-0.836624
3.03336
-7.29596
-7.24658
-7.14741
-6.99755
-6.79556
-6.53918
-6.22487
-5.84705
-5.39657
-4.85841
-4.20827
-3.41052
-2.43296
-1.37998
-1.43997
-6.87397
-6.82689
-6.73238
-6.58966
-6.39744
-6.15371
-5.85531
-5.49734
-5.07205
-4.5674
-3.9651
-3.23837
-2.34421
-1.15181
1.19618
-6.48455
-6.44003
-6.35071
-6.21602
-6.03498
-5.80608
-5.52701
-5.19426
-4.80253
-4.34408
-3.80821
-3.18233
-2.46244
-1.72757
-1.68871
-6.12594
-6.08415
-6.00043
-5.87443
-5.70562
-5.49317
-5.23587
-4.932
-4.5792
-4.17439
-3.71367
-3.1914
-2.59093
-1.82144
-0.305557
-5.79621
-5.75728
-5.67938
-5.56246
-5.40644
-5.21127
-4.97693
-4.7036
-4.39188
-4.04338
-3.66175
-3.25461
-2.83665
-2.43514
-2.11122
-5.4934
-5.45733
-5.3853
-5.2775
-5.13433
-4.95644
-4.74494
-4.50171
-4.22996
-3.93524
-3.6274
-3.32516
-3.07082
-2.99646
-3.6922
-5.2155
-5.18224
-5.11592
-5.01698
-4.88619
-4.72481
-4.53485
-4.31951
-4.08387
-3.83607
-3.589
-3.36228
-3.17988
-3.02451
-2.45584
-4.96057
-4.92997
-4.86905
-4.77843
-4.65916
-4.5129
-4.34226
-4.15125
-3.94608
-3.73625
-3.53631
-3.36846
-3.27001
-3.34114
-4.12558
-4.72676
-4.69862
-4.64268
-4.55965
-4.45072
-4.31778
-4.16367
-3.9927
-3.81137
-3.62942
-3.4612
-3.32626
-3.24226
-3.16397
-2.54344
-4.51234
-4.48644
-4.43498
-4.3587
-4.25882
-4.13721
-3.99664
-3.84121
-3.67696
-3.51292
-3.36282
-3.2485
-3.21042
-3.36495
-4.32758
-4.31578
-4.29187
-4.24438
-4.174
-4.08187
-3.96966
-3.8398
-3.6957
-3.54225
-3.38658
-3.23943
-3.11764
-3.04466
-3.00638
-2.47241
-4.13567
-4.11352
-4.06952
-4.00426
-3.91871
-3.81424
-3.69269
-3.55652
-3.40894
-3.25418
-3.09826
-2.95269
-2.85468
-2.99369
-4.55482
-3.9708
-3.95021
-3.90927
-3.84847
-3.76855
-3.67051
-3.55557
-3.42512
-3.28048
-3.12242
-2.94975
-2.75452
-2.49994
-1.99511
-0.0878311
-3.82009
-3.80088
-3.76267
-3.7058
-3.63082
-3.53837
-3.42909
-3.30342
-3.16117
-3.00064
-2.81675
-2.59736
-2.31885
-1.97222
-1.93044
-3.68256
-3.66461
-3.62886
-3.57556
-3.50507
-3.41776
-3.31382
-3.19307
-3.05441
-2.89493
-2.70822
-2.48105
-2.1849
-1.73941
-0.758626
-3.55734
-3.54055
-3.50707
-3.4571
-3.39086
-3.30853
-3.21007
-3.09501
-2.96195
-2.80796
-2.62762
-2.41244
-2.1545
-1.88016
-1.8917
-3.44363
-3.42792
-3.39659
-3.34978
-3.28766
-3.21033
-3.1177
-3.00928
-2.88387
-2.73912
-2.57104
-2.37331
-2.13534
-1.82421
-1.22564
-3.34067
-3.32598
-3.2967
-3.25294
-3.19486
-3.1226
-3.03613
-2.93519
-2.81905
-2.68633
-2.53486
-2.36191
-2.1668
-1.96975
-1.95164
-3.24775
-3.23403
-3.2067
-3.16587
-3.11176
-3.04457
-2.96446
-2.87149
-2.76557
-2.64639
-2.51343
-2.36567
-2.19945
-1.99291
-1.60597
-3.16419
-3.15139
-3.12589
-3.08787
-3.03758
-2.97534
-2.90154
-2.81662
-2.72113
-2.61586
-2.50208
-2.38206
-2.25991
-2.14324
-2.0513
-3.08935
-3.0774
-3.05363
-3.01822
-2.97152
-2.91398
-2.84618
-2.76892
-2.68333
-2.59107
-2.49488
-2.39971
-2.31642
-2.27829
-2.43311
-3.02265
-3.01148
-2.98927
-2.95625
-2.91284
-2.85957
-2.79722
-2.72685
-2.64998
-2.56883
-2.48679
-2.40889
-2.34139
-2.28125
-2.12758
-2.96354
-2.95306
-2.93224
-2.90135
-2.86082
-2.8113
-2.75366
-2.68912
-2.61942
-2.54705
-2.47565
-2.41064
-2.36108
-2.35108
-2.51082
-2.91154
-2.90165
-2.88203
-2.85296
-2.81489
-2.76851
-2.71472
-2.65481
-2.59055
-2.52442
-2.45988
-2.40145
-2.35312
-2.30497
-2.13752
-2.86624
-2.85685
-2.83822
-2.81064
-2.77457
-2.73068
-2.67986
-2.62335
-2.56281
-2.50052
-2.43968
-2.38502
-2.34488
-2.34365
-2.51607
-2.82729
-2.81829
-2.80045
-2.77404
-2.73951
-2.69748
-2.64878
-2.59452
-2.53611
-2.47543
-2.415
-2.3583
-2.30946
-2.26367
-2.11221
-2.79441
-2.78572
-2.76847
-2.74292
-2.70949
-2.66874
-2.6214
-2.56839
-2.51081
-2.44999
-2.38754
-2.32589
-2.27175
-2.25905
-2.50598
-2.7674
-2.75892
-2.74207
-2.7171
-2.68438
-2.6444
-2.59779
-2.54526
-2.48759
-2.42551
-2.35934
-2.28805
-2.20509
-2.07609
-1.69923
-2.74612
-2.73775
-2.72114
-2.69649
-2.66413
-2.6245
-2.57811
-2.52552
-2.46727
-2.40368
-2.3345
-2.25808
-2.17023
-2.06725
-2.00344
-2.73047
-2.72215
-2.70562
-2.68106
-2.64876
-2.60911
-2.56255
-2.50953
-2.45047
-2.38556
-2.3145
-2.23584
-2.14569
-2.03322
-1.85324
-2.72044
-2.71209
-2.69549
-2.67082
-2.63833
-2.59836
-2.5513
-2.49757
-2.43756
-2.37154
-2.29957
-2.22134
-2.13649
-2.04809
-1.9888
-2.71602
-2.70758
-2.6908
-2.66583
-2.63291
-2.59235
-2.54451
-2.48979
-2.42863
-2.36148
-2.2888
-2.21121
-2.12957
-2.04478
-1.95286
-2.71729
-2.70871
-2.69163
-2.66619
-2.63263
-2.59122
-2.54231
-2.48631
-2.42369
-2.35506
-2.28126
-2.20366
-2.12465
-2.04843
-1.98408
-2.72435
-2.71557
-2.69808
-2.67202
-2.63761
-2.59512
-2.54487
-2.48725
-2.42276
-2.35204
-2.27615
-2.19687
-2.11762
-2.04587
-2.00404
-2.73734
-2.7283
-2.7103
-2.68348
-2.64803
-2.60423
-2.55236
-2.49279
-2.42595
-2.35244
-2.2732
-2.18983
-2.1052
-2.02457
-1.96219
-2.75643
-2.74709
-2.72848
-2.70075
-2.66409
-2.61876
-2.56503
-2.5032
-2.43361
-2.35664
-2.27291
-2.18344
-2.08983
-1.99262
-1.87736
-2.78183
-2.77214
-2.75282
-2.72404
-2.686
-2.63894
-2.58314
-2.51883
-2.4462
-2.36536
-2.27641
-2.17969
-2.07676
-1.97526
-1.92238
-2.8138
-2.80369
-2.78357
-2.75359
-2.71398
-2.66503
-2.60698
-2.54006
-2.46431
-2.37953
-2.28511
-2.18002
-2.06252
-1.92615
-1.72144
-2.85262
-2.84204
-2.82099
-2.78965
-2.74829
-2.69724
-2.63682
-2.56724
-2.48853
-2.4002
-2.30103
-2.18875
-2.06119
-1.92653
-1.87762
-2.89862
-2.8875
-2.86538
-2.83249
-2.78916
-2.7358
-2.67283
-2.6006
-2.51923
-2.42822
-2.32584
-2.20787
-2.06462
-1.86938
-1.50121
-2.95217
-2.94042
-2.91708
-2.88241
-2.83682
-2.78085
-2.71508
-2.64014
-2.55646
-2.46396
-2.36129
-2.24431
-2.10396
-1.93434
-1.86113
-3.0137
-3.00124
-2.97648
-2.93974
-2.89153
-2.83252
-2.76354
-2.68557
-2.59963
-2.50658
-2.40649
-2.29674
-2.16346
-1.93434
-1.17884
-3.08373
-3.07043
-3.04402
-3.00487
-2.95358
-2.89095
-2.81808
-2.73637
-2.64758
-2.5539
-2.45821
-2.3653
-2.28933
-2.30188
-2.85552
-3.16282
-3.14856
-3.12024
-3.07828
-3.02332
-2.95631
-2.87858
-2.79191
-2.69874
-2.60245
-2.50782
-2.42185
-2.35357
-2.29559
-2.0337
-3.25166
-3.23629
-3.20578
-3.16054
-3.10126
-3.02897
-2.94512
-2.85179
-2.7519
-2.64967
-2.55122
-2.46591
-2.41049
-2.43284
-2.79044
-3.351
-3.33439
-3.30138
-3.25238
-3.18807
-3.10947
-3.01808
-2.91605
-2.80652
-2.69408
-2.5853
-2.48901
-2.41322
-2.33919
-2.03571
-3.46171
-3.44372
-3.40792
-3.35469
-3.28464
-3.19871
-3.09827
-2.98536
-2.86301
-2.73578
-2.61053
-2.49767
-2.41456
-2.40678
-2.71709
-3.58476
-3.56525
-3.52641
-3.46851
-3.39208
-3.29785
-3.18695
-3.06105
-2.92271
-2.77593
-2.62697
-2.48545
-2.36343
-2.25534
-1.96771
-3.72119
-3.70008
-3.65796
-3.59506
-3.51171
-3.40841
-3.28589
-3.14523
-2.98812
-2.81742
-2.63808
-2.45947
-2.30245
-2.23044
-2.52092
-3.87213
-3.84933
-3.8038
-3.73565
-3.64504
-3.53217
-3.39727
-3.24065
-3.06282
-2.86475
-2.6485
-2.4183
-2.18226
-1.95563
-1.77413
-4.03875
-4.01422
-3.96519
-3.89167
-3.79367
-3.67106
-3.52358
-3.35066
-3.15141
-2.92453
-2.66845
-2.38097
-2.05538
-1.6513
-0.901587
-4.22226
-4.19598
-4.14343
-4.06456
-3.95923
-3.82708
-3.6674
-3.47881
-3.25902
-3.00444
-2.71002
-2.3699
-1.98284
-1.58879
-1.53538
-4.42387
-4.39585
-4.33981
-4.25568
-4.14326
-4.00208
-3.83113
-3.62847
-3.39063
-3.11187
-2.78316
-2.39121
-1.91499
-1.29149
-0.105652
-4.64478
-4.61503
-4.55554
-4.46628
-4.34712
-4.19762
-4.01675
-3.8024
-3.55052
-3.25382
-2.90005
-2.47085
-1.94927
-1.38644
-1.37453
-4.88622
-4.85473
-4.79181
-4.69752
-4.57191
-4.41478
-4.22547
-4.00225
-3.74138
-3.43527
-3.06915
-2.61443
-2.01205
-1.1005
0.886469
-5.14939
-5.11612
-5.04971
-4.95038
-4.81844
-4.65417
-4.4576
-4.22812
-3.96351
-3.65824
-3.29963
-2.86037
-2.28936
-1.56307
-1.42023
-5.43553
-5.40039
-5.33033
-5.22574
-5.08729
-4.91584
-4.71246
-4.47823
-4.21375
-3.91811
-3.58595
-3.19764
-2.67436
-1.62206
2.31935
-5.74594
-5.7088
-5.63479
-5.5245
-5.37891
-5.19955
-4.98862
-4.74921
-4.48551
-4.20322
-3.91113
-3.62847
-3.42659
-3.68896
-6.84253
-6.08201
-6.04267
-5.96432
-5.84763
-5.69386
-5.50505
-5.28444
-5.03695
-4.77004
-4.495
-4.22964
-4.00304
-3.8563
-3.74945
-2.55632
-6.44526
-6.40352
-6.32034
-6.1964
-6.03302
-5.83252
-5.59879
-5.33806
-5.06009
-4.77995
-4.52111
-4.32202
-4.25822
-4.56565
-6.54401
-6.83738
-6.79303
-6.70454
-6.57243
-6.39783
-6.18295
-5.93177
-5.65102
-5.35153
-5.05
-4.77097
-4.54691
-4.40226
-4.22271
-2.80362
-7.26016
-7.21308
-7.11892
-6.97785
-6.7905
-6.55847
-6.28517
-5.97688
-5.64428
-5.30432
-4.98254
-4.71653
-4.57045
-4.74181
-6.41394
-7.71553
-7.6657
-7.56576
-7.4153
-7.21407
-6.96254
-6.66276
-6.31951
-5.94202
-5.54592
-5.15526
-4.80277
-4.5181
-4.21992
-2.84974
-8.20538
-8.153
-8.04757
-7.88788
-7.67245
-7.40002
-7.07042
-6.68582
-6.25258
-5.78365
-5.30137
-4.84179
-4.47505
-4.44371
-6.05633
-8.73149
-8.67702
-8.56695
-8.39906
-8.17029
-7.87709
-7.51618
-7.0858
-6.58781
-6.03056
-5.43162
-4.81625
-4.19903
-3.5271
-2.66076
-9.29532
-9.23956
-9.12637
-8.95242
-8.71277
-8.40108
-8.01006
-7.53262
-6.96411
-6.30632
-5.5732
-4.79197
-3.96105
-2.74676
1.33657
-9.89775
-9.84186
-9.72787
-9.55129
-9.30518
-8.98005
-8.56385
-8.04259
-7.40228
-6.63431
-5.74814
-4.80223
-3.98948
-3.96004
-7.50903
-10.5389
-10.4844
-10.3727
-10.1983
-9.95236
-9.62216
-9.1905
-8.6351
-7.92901
-7.0443
-5.96457
-4.72019
-3.47425
-2.68761
-3.14154
-11.2178
-11.1665
-11.061
-10.895
-10.6579
-10.3346
-9.90298
-9.33215
-8.57968
-7.58964
-6.29543
-4.63957
-2.64031
-0.552867
0.909528
-11.9321
-11.8862
-11.7913
-11.6407
-11.4233
-11.1222
-10.712
-10.1552
-9.3952
-8.34614
-6.87758
-4.79799
-1.8679
2.01689
5.97513
-12.6782
-12.6399
-12.5602
-12.4328
-12.2467
-11.9853
-11.6228
-11.1193
-10.4113
-9.39389
-7.88415
-5.54769
-1.75883
4.53668
13.7885
-13.4508
-13.4221
-13.3622
-13.2654
-13.1224
-12.9186
-12.6314
-12.2252
-11.6422
-10.7834
-9.46494
-7.30663
-3.39084
5.00451
28.0257
-159.022
-95.6037
-66.8879
-53.1731
-45.8305
-41.4466
-38.5988
-36.6355
-35.2281
-34.1967
-33.4361
-32.8822
-32.4947
-32.2484
-32.1287
-197.679
-89.4613
-59.443
-47.8741
-42.0724
-38.6262
-36.3582
-34.7687
-33.6116
-32.7526
-32.1126
-31.6427
-31.3121
-31.1011
-30.9983
50.769
-29.0123
-39.1863
-38.5705
-36.6784
-34.9876
-33.6463
-32.6014
-31.788
-31.1562
-30.6707
-30.3064
-30.0461
-29.8785
-29.7964
-7.63669
-16.9032
-26.423
-30.1532
-31.1444
-31.1063
-30.7285
-30.2731
-29.838
-29.4582
-29.1444
-28.8976
-28.7158
-28.5964
-28.5373
27.7367
-4.61985
-17.6806
-23.6378
-26.3252
-27.4606
-27.8644
-27.9305
-27.8495
-27.7144
-27.5714
-27.4435
-27.342
-27.2723
-27.237
-1.76369
-5.73819
-13.8711
-19.3929
-22.5838
-24.3228
-25.2347
-25.6901
-25.8983
-25.9758
-25.9878
-25.971
-25.9459
-25.9242
-25.9121
11.9642
-3.97046
-11.8747
-16.7666
-19.8504
-21.7593
-22.9217
-23.6212
-24.0377
-24.2826
-24.4242
-24.504
-24.5474
-24.5694
-24.5785
-3.71072
-7.78099
-11.9702
-15.3959
-17.9327
-19.7141
-20.9302
-21.7486
-22.2961
-22.661
-22.9032
-23.0622
-23.1636
-23.2234
-23.2512
-16.5592
-11.5105
-12.596
-14.6423
-16.5393
-18.0614
-19.2145
-20.0642