/*--------------------------------*- C++ -*----------------------------------*\
| =========                 |                                                 |
| \\      /  F ield         | OpenFOAM: The Open Source CFD Toolbox           |
|  \\    /   O peration     | Version:  5.x                                   |
|   \\  /    A nd           | Web:      www.OpenFOAM.org                      |
|    \\/     M anipulation  |                                                 |
\*---------------------------------------------------------------------------*/
FoamFile
{
    version     2.0;
    format      ascii;
    class       volScalarField;
    location    "3.1";
    object      gradTx;
}
// * * * * * * * * * * * * * * * * * * * * * * * * * * * * * * * * * * * * * //

dimensions      [0 -1 0 1 0 0 0];

internalField   nonuniform List<scalar> 
3200
(
45.2667
3.70511
1.64468
1.53627
0.811905
0.768369
0.464092
0.444667
0.291579
0.280514
0.169268
0.16514
0.178879
0.17902
0.171386
0.170554
0.157969
0.156871
0.143003
0.141842
0.127826
0.126678
0.113127
0.112051
0.0997213
0.0988493
0.089827
0.0898298
0.094834
0.164381
0.0823367
0.0551688
0.0533449
0.0416128
0.0407867
0.0331961
0.0326382
0.0269355
0.0265076
0.0219755
0.0216316
0.0179295
0.0176451
0.0145378
0.0142938
0.0115598
0.0113348
0.0086877
0.0084488
0.00530552
0.00517476
0.00519547
0.00514812
0.00406949
0.00395421
0.00226439
0.00209492
-0.00026876
-0.000511275
-0.00393445
-0.00430213
-0.00963088
-0.0102405
-0.0193578
-0.0205077
-0.0383691
-0.0410376
-0.0841381
-0.0930401
-0.238505
-0.616409
-0.435472
-0.680269
-0.711576
-1.26598
-1.24042
-0.0556974
-0.00751616
-0.00152279
-52.96
47.9452
3.0995
1.57354
1.35103
0.77128
0.678335
0.43394
0.392404
0.269759
0.246252
0.158885
0.150073
0.159375
0.159567
0.153632
0.15188
0.141952
0.139628
0.128653
0.126193
0.115093
0.11266
0.101931
0.0996529
0.0899142
0.0880827
0.0811315
0.081301
0.0881386
0.137056
0.0764461
0.0515311
0.0474695
0.0379509
0.0361794
0.0301284
0.0289418
0.0244126
0.0235042
0.0199083
0.0191784
0.0162416
0.0156381
0.0131729
0.0126549
0.0104847
0.0100069
0.00790418
0.0074
0.00494738
0.00466955
0.00464043
0.00453691
0.00368547
0.00344117
0.00210118
0.00174136
-0.000136674
-0.000652145
-0.00337571
-0.0041581
-0.00840554
-0.00970517
-0.016998
-0.0194605
-0.0338634
-0.0396439
-0.0751503
-0.0950257
-0.226857
-0.516971
-0.414139
-0.600873
-0.665328
-1.08311
-1.02958
-0.121631
-0.020861
-0.00437879
-54.7546
50.607
2.57164
1.45026
1.18008
0.711183
0.59436
0.395673
0.343386
0.243974
0.214545
0.14536
0.134281
0.140236
0.140359
0.135711
0.133533
0.125632
0.122731
0.113962
0.110889
0.102014
0.0989739
0.0903971
0.0875531
0.079791
0.0775209
0.0721513
0.0725056
0.0797602
0.114112
0.0691279
0.0470595
0.0418125
0.0339793
0.0317434
0.0268661
0.0253791
0.021745
0.0206083
0.0177264
0.0168135
0.0144604
0.0137056
0.0117301
0.0110821
0.00934195
0.00874407
0.00705669
0.00642911
0.00450223
0.00415437
0.00408836
0.00395562
0.00327718
0.00297198
0.0018988
0.00144857
-5.9036e-05
-0.00070463
-0.00289456
-0.00387539
-0.00729803
-0.00893008
-0.0148314
-0.0179357
-0.0297025
-0.0370611
-0.0667877
-0.0925331
-0.208879
-0.433251
-0.381224
-0.526369
-0.604948
-0.919098
-0.852914
-0.155277
-0.0308343
-0.00671952
-56.5491
53.2482
2.10924
1.29294
1.01708
0.637004
0.51366
0.351552
0.296254
0.21539
0.184429
0.129511
0.117809
0.121331
0.121343
0.117692
0.115416
0.109112
0.10607
0.0990441
0.0958177
0.0887011
0.0855091
0.078634
0.0756502
0.0694482
0.0670832
0.0629422
0.0634342
0.0702981
0.0943415
0.0608932
0.0419151
0.0362591
0.0297838
0.0274132
0.0234683
0.0219024
0.0189775
0.0177823
0.0154657
0.0145062
0.0126152
0.0118219
0.0102341
0.00955293
0.00815347
0.00752476
0.00616679
0.00551018
0.0039939
0.00362791
0.00353896
0.00339616
0.00285398
0.00253353
0.00167153
0.00119811
-1.58269e-05
-0.000695284
-0.00246171
-0.00349494
-0.00626207
-0.00798414
-0.0127766
-0.0160643
-0.0257178
-0.0335836
-0.0585842
-0.0864164
-0.186579
-0.360587
-0.340422
-0.454527
-0.535145
-0.770295
-0.70151
-0.165995
-0.0367945
-0.00831622
-58.3434
55.8679
1.70088
1.11401
0.858251
0.552557
0.434512
0.303158
0.250144
0.18481
0.155271
0.111935
0.100728
0.102566
0.102473
0.0996182
0.0974595
0.092461
0.0895674
0.0839741
0.0809021
0.0752314
0.0721919
0.0667154
0.063876
0.058952
0.0567166
0.0535478
0.0541081
0.0601489
0.076871
0.0520798
0.0362379
0.0307386
0.0254243
0.023146
0.0199754
0.0184801
0.016141
0.0150013
0.0131509
0.0122362
0.0107262
0.00997
0.00870193
0.0080525
0.00693414
0.0063346
0.00524881
0.00462561
0.00343955
0.00309036
0.0029917
0.00285268
0.00242192
0.00211675
0.00142875
0.000977313
6.04912e-06
-0.000642407
-0.00205812
-0.00304507
-0.00526785
-0.00691532
-0.0107819
-0.0139382
-0.0218047
-0.0294205
-0.0502675
-0.0774065
-0.161325
-0.295691
-0.294249
-0.384024
-0.45916
-0.63365
-0.568776
-0.160461
-0.0387258
-0.00904612
-60.1375
58.4676
1.33613
0.921824
0.70142
0.460604
0.355896
0.251632
0.204528
0.1528
0.126666
0.093073
0.0831252
0.083879
0.0837141
0.0815168
0.0796171
0.0757265
0.0731735
0.0688034
0.0660906
0.0616567
0.0589722
0.0546914
0.0521853
0.0483483
0.0463875
0.0440044
0.0445627
0.0495725
0.0610612
0.0429085
0.0301471
0.0252107
0.0209434
0.0189146
0.0164156
0.0150916
0.0132565
0.0122486
0.0107986
0.00999002
0.00880703
0.00813857
0.00714498
0.00657082
0.00569404
0.00516388
0.00431232
0.00376355
0.00285171
0.00254278
0.00244606
0.00232087
0.00198484
0.00171531
0.00117653
0.000777339
1.50523e-05
-0.000558794
-0.00167163
-0.00254571
-0.00429658
-0.00575767
-0.00881563
-0.0116236
-0.0179015
-0.0247283
-0.0416991
-0.0661254
-0.134053
-0.236226
-0.244427
-0.314108
-0.379202
-0.506579
-0.449778
-0.143464
-0.0369749
-0.00888437
-61.9312
61.0496
1.00555
0.721888
0.545406
0.363207
0.277263
0.19782
0.159098
0.119765
0.0983588
0.0732658
0.0650948
0.065229
0.0650367
0.0634036
0.0618546
0.0589387
0.0568524
0.0535666
0.051348
0.048012
0.0458164
0.0425965
0.0405479
0.0376695
0.0360752
0.0343433
0.0348394
0.0387371
0.0464372
0.0335217
0.0237433
0.0196562
0.016373
0.014702
0.0128089
0.0117237
0.0103389
0.00951375
0.00842067
0.00775884
0.00686728
0.00632014
0.00557124
0.00510124
0.00444007
0.004006
0.0033637
0.002916
0.00223974
0.00198671
0.00190156
0.00179749
0.0015451
0.00132465
0.000918751
0.000591915
1.65502e-05
-0.000453584
-0.00129465
-0.00201124
-0.00333686
-0.00453611
-0.00685926
-0.00917019
-0.0139763
-0.0196302
-0.0328324
-0.0531042
-0.105411
-0.180521
-0.192147
-0.244374
-0.296752
-0.386876
-0.340762
-0.118474
-0.032088
-0.0078886
-63.7246
63.6174
0.700585
0.517665
0.389621
0.261961
0.19837
0.142379
0.113692
0.0860141
0.0701996
0.0527819
0.0467323
0.0465921
0.046417
0.0452872
0.0441468
0.0421179
0.0405794
0.0382872
0.0366502
0.0343218
0.0327017
0.0304547
0.0289438
0.0269395
0.0257685
0.0245932
0.0249801
0.0277496
0.0326378
0.0240095
0.017112
0.0140696
0.0117382
0.0104984
0.00916985
0.00836771
0.00739898
0.0067896
0.00602552
0.00553686
0.00491376
0.00450979
0.00398635
0.00363929
0.003177
0.00285644
0.00240728
0.00207758
0.00161085
0.00142392
0.00135781
0.00128005
0.0011041
0.000941421
0.000657823
0.000416453
1.38643e-05
-0.000333508
-0.000922618
-0.00145237
-0.00238216
-0.00326954
-0.00490335
-0.00661693
-0.0100171
-0.0142301
-0.0236829
-0.0388017
-0.0758579
-0.127355
-0.138242
-0.174635
-0.212793
-0.272622
-0.238792
-0.0880478
-0.0247137
-0.00618151
-65.5178
66.1747
0.41339
0.311247
0.233821
0.158153
0.119174
0.0858457
0.0682464
0.0517886
0.0421048
0.0318435
0.0281335
0.0279568
0.0278357
0.0271714
0.0264747
0.0252775
0.0243366
0.0229817
0.0219801
0.0206033
0.019612
0.0182835
0.0173594
0.0161762
0.015462
0.0147806
0.0150256
0.0166775
0.0193792
0.0144281
0.0103265
0.00845451
0.00705977
0.00629832
0.0055098
0.00501844
0.00444471
0.00407166
0.00361938
0.00332027
0.00295148
0.00270422
0.0023944
0.00218196
0.00190826
0.00171202
0.00144608
0.00124463
0.00097075
0.000856291
0.00081452
0.000766542
0.000662573
0.000563034
0.000395217
0.000247455
8.98792e-06
-0.000203742
-0.000552937
-0.00087747
-0.00142912
-0.0019731
-0.00294422
-0.00399619
-0.00602548
-0.00862045
-0.0143068
-0.0236216
-0.0457267
-0.0758128
-0.0833169
-0.104825
-0.127967
-0.162115
-0.1415
-0.0541252
-0.0155473
-0.00393391
-67.3108
68.7256
0.136647
0.103841
0.0779512
0.0528769
0.0397521
0.0286837
0.022755
0.0172922
0.0140332
0.010643
0.0093935
0.00931934
0.00927622
0.00905692
0.00882275
0.00842687
0.00811043
0.00766204
0.00732513
0.00686939
0.00653592
0.00609623
0.00578539
0.00539407
0.00515422
0.00493095
0.00501471
0.00556335
0.00642669
0.00481274
0.0034519
0.0028204
0.00235602
0.00209937
0.00183788
0.00167248
0.00148243
0.00135689
0.00120711
0.00110647
0.000984347
0.000901147
0.000798547
0.000727063
0.000636416
0.00057038
0.0004823
0.000414576
0.000324274
0.000285754
0.000271481
0.000255271
0.000220869
0.000187383
0.000131816
8.20932e-05
3.09319e-06
-6.85039e-05
-0.000184228
-0.000293474
-0.00047638
-0.000659557
-0.000981837
-0.00133634
-0.00201118
-0.00288712
-0.00478555
-0.00792989
-0.0152763
-0.0251744
-0.0278318
-0.0349502
-0.0427002
-0.053798
-0.0468771
-0.0182508
-0.00530239
-0.00134943
-69.1036
68.7273
0.150516
0.128162
0.107277
0.0850779
0.0725857
0.060635
0.0532339
0.0447755
0.0386568
0.0309038
0.0280874
0.028183
0.028069
0.0272211
0.0263141
0.0247883
0.0235953
0.0219443
0.0207464
0.0191854
0.0180869
0.0166967
0.0157483
0.0145993
0.0139171
0.0133141
0.0135858
0.0151996
0.0177048
0.0134024
0.00980555
0.00815166
0.00695521
0.00629607
0.00562388
0.00519485
0.0046955
0.00436078
0.00395438
0.00367676
0.00333357
0.00309582
0.00279713
0.00258524
0.00231106
0.00210621
0.00182542
0.00160194
0.00129806
0.00118956
0.00120017
0.00119767
0.00116213
0.00112288
0.00105584
0.00100287
0.000928815
0.000874082
0.000801
0.000746294
0.000670969
0.000607245
0.000505969
0.000392195
0.000164678
-0.000183872
-0.00101586
-0.0025849
-0.00644645
-0.0121148
-0.0153884
-0.0223978
-0.0298682
-0.0408633
-0.03641
-0.0142282
-0.00413832
-0.00105337
-69.8061
66.1794
0.454906
0.384429
0.321884
0.254845
0.217735
0.181723
0.159744
0.134233
0.116036
0.0925139
0.0841459
0.0845574
0.0842363
0.0816655
0.0789671
0.0743517
0.0708043
0.0658148
0.0622539
0.0575377
0.0542723
0.0500724
0.0472531
0.0437794
0.0417482
0.0399073
0.0407036
0.0455632
0.0533868
0.0401791
0.029339
0.0244367
0.0208442
0.0188888
0.0168619
0.0155874
0.0140799
0.0130853
0.011858
0.011033
0.00999654
0.00928992
0.00838797
0.00775824
0.00693045
0.00632169
0.00547401
0.00480906
0.00388638
0.00356393
0.00360107
0.00359436
0.00348656
0.00336979
0.00316697
0.00300949
0.0027857
0.002623
0.00240229
0.00223973
0.00201246
0.00182326
0.00151843
0.00118115
0.000498895
-0.00053226
-0.00301806
-0.00766298
-0.019267
-0.0364402
-0.0460156
-0.0671751
-0.0894637
-0.123208
-0.109939
-0.0422008
-0.0121348
-0.00307088
-69.4183
63.6242
0.769459
0.640378
0.536671
0.423416
0.362841
0.30225
0.266395
0.223398
0.193628
0.153518
0.139853
0.140961
0.140494
0.136115
0.131697
0.123872
0.118071
0.109628
0.103808
0.095832
0.0904953
0.083393
0.0787842
0.0729019
0.0695718
0.0663951
0.0676591
0.0758084
0.0899103
0.0668613
0.0486351
0.0406696
0.0346679
0.0314845
0.0280701
0.0259894
0.023444
0.0218192
0.0197457
0.0183977
0.0166464
0.015492
0.013968
0.0129393
0.0115412
0.0105468
0.00911538
0.00802657
0.00645076
0.00592399
0.00600379
0.00599517
0.00581143
0.00562021
0.00527637
0.00501883
0.0046402
0.00437431
0.00400132
0.00373581
0.0033525
0.00304396
0.00253224
0.00198397
0.000847125
-0.000822404
-0.00493385
-0.0124626
-0.0318648
-0.0610694
-0.0761793
-0.111907
-0.148601
-0.207433
-0.185647
-0.0686665
-0.0192911
-0.00482552
-69.0304
61.0569
1.10123
0.895312
0.751841
0.589879
0.507948
0.421787
0.373333
0.312034
0.271633
0.213464
0.19497
0.197428
0.196908
0.190567
0.184563
0.173312
0.165444
0.153337
0.145448
0.134021
0.126789
0.116614
0.110366
0.101923
0.0973895
0.0927056
0.0943395
0.105816
0.12792
0.0933509
0.0675211
0.0568242
0.048379
0.0440897
0.0392251
0.0364103
0.0327715
0.0305712
0.0276046
0.0257788
0.0232727
0.021709
0.0195285
0.0181353
0.0161359
0.0147896
0.0127432
0.0112637
0.00897331
0.00825991
0.00841017
0.00840311
0.00813673
0.00787686
0.00738244
0.00703314
0.00649032
0.00613003
0.00559616
0.00523673
0.00468965
0.00427289
0.00354762
0.00281043
0.00121676
-0.00101477
-0.00671283
-0.0167872
-0.0440702
-0.0862622
-0.105518
-0.1566
-0.206852
-0.294882
-0.265162
-0.0924279
-0.025051
-0.0061584
-68.6423
58.4732
1.45768
1.14775
0.96775
0.753142
0.653225
0.539817
0.480784
0.399834
0.35035
0.271824
0.249248
0.254015
0.253555
0.245005
0.237639
0.222617
0.212986
0.196878
0.18723
0.172043
0.163201
0.149678
0.142037
0.130787
0.125214
0.118764
0.120627
0.135399
0.168198
0.119492
0.0858022
0.0728891
0.0619244
0.0567183
0.0502985
0.0468645
0.0420418
0.0393543
0.0354182
0.0331875
0.0298615
0.027951
0.0250577
0.0233558
0.0207048
0.0190607
0.0163486
0.0145335
0.011433
0.0105614
0.010823
0.0108216
0.0104619
0.0101431
0.00948288
0.00905537
0.00833332
0.00789286
0.00718419
0.0067453
0.00602175
0.00551431
0.00456362
0.00367129
0.00161206
-0.00106833
-0.0083166
-0.0204232
-0.0556791
-0.112372
-0.133584
-0.201326
-0.263592
-0.387041
-0.350398
-0.111975
-0.0288715
-0.00693612
-68.2541
55.8692
1.84678
1.39499
1.18504
0.911817
0.799041
0.655671
0.589113
0.486376
0.430229
0.327946
0.302434
0.31081
0.310526
0.299396
0.291022
0.271707
0.260788
0.24016
0.229234
0.209811
0.1998
0.182508
0.173852
0.159425
0.153073
0.14449
0.146398
0.164261
0.211736
0.145032
0.103253
0.0888766
0.0752398
0.0693959
0.0612529
0.0573746
0.0512271
0.0481877
0.043164
0.0406404
0.0363941
0.0342327
0.0305397
0.0286147
0.0252338
0.0233747
0.0199184
0.0178549
0.0138037
0.0128179
0.0132466
0.0132547
0.0127858
0.0124232
0.0115743
0.0110896
0.0101653
0.00966663
0.00876165
0.00826548
0.0073454
0.00677366
0.00557748
0.00457902
0.00203238
-0.000938985
-0.00972583
-0.0231331
-0.0664301
-0.139901
-0.159787
-0.24627
-0.317884
-0.485603
-0.443704
-0.125309
-0.0302452
-0.0070628
-67.8656
53.242
2.27711
1.63256
1.40487
1.06408
0.946082
0.768454
0.698889
0.571054
0.511953
0.380997
0.354263
0.367953
0.367931
0.353678
0.344843
0.320462
0.308979
0.283055
0.271578
0.247203
0.236692
0.214992
0.205899
0.187741
0.181023
0.169797
0.171532
0.19194
0.259843
0.169577
0.119608
0.104835
0.0882442
0.0821661
0.0720372
0.0679761
0.0602886
0.0571011
0.0508103
0.0481626
0.0428438
0.0405761
0.0359514
0.0339322
0.0297023
0.0277531
0.0234328
0.0212563
0.016052
0.015018
0.0156873
0.0157071
0.0151056
0.0147231
0.0136514
0.0131417
0.0119805
0.0114569
0.010323
0.00980286
0.00865536
0.00805822
0.00658366
0.0055489
0.00246992
-0.000576791
-0.01095
-0.024647
-0.0759737
-0.169572
-0.183327
-0.291809
-0.368331
-0.59255
-0.548069
-0.129709
-0.0287436
-0.00649327
-67.4769
50.5901
2.75778
1.85346
1.62922
1.20742
1.09551
0.876915
0.810996
0.652984
0.596552
0.42988
0.404477
0.425644
0.425905
0.407743
0.399287
0.3687
0.357748
0.325372
0.314439
0.284041
0.274031
0.246973
0.238308
0.215599
0.209153
0.194586
0.195919
0.21772
0.314278
0.192511
0.134556
0.120867
0.100829
0.0950989
0.0825796
0.0787233
0.0691708
0.0661392
0.0583115
0.0557924
0.0491721
0.0470144
0.0412594
0.0393387
0.0340801
0.0322268
0.0268619
0.024779
0.0181339
0.0171503
0.0181543
0.0181847
0.0174171
0.0170508
0.0157063
0.0152202
0.0137705
0.013272
0.0118601
0.0113656
0.0099436
0.00937817
0.00757253
0.00660082
0.00290644
7.87336e-05
-0.0120409
-0.0246555
-0.0838261
-0.202437
-0.203076
-0.338626
-0.412869
-0.710243
-0.667389
-0.121413
-0.0240933
-0.00524678
-67.0879
47.9146
3.29828
2.04715
1.86148
1.33837
1.2492
0.979269
0.926787
0.73085
0.685561
0.473112
0.452828
0.484172
0.484618
0.46142
0.454616
0.416155
0.407375
0.366832
0.35808
0.320064
0.312053
0.278219
0.27128
0.242808
0.237609
0.21874
0.219489
0.240511
0.377448
0.212893
0.147735
0.137154
0.112842
0.108304
0.0927761
0.0896991
0.0777929
0.0753698
0.0656011
0.0635868
0.0553225
0.0535972
0.0464146
0.0448792
0.0383222
0.0368415
0.0301602
0.0284848
0.0199898
0.0192034
0.0206606
0.0206946
0.0197129
0.0194181
0.0177273
0.0173377
0.0155229
0.0151239
0.0133609
0.0129659
0.0111979
0.0107481
0.00852836
0.00776195
0.00330859
0.00110625
-0.0131117
-0.0228013
-0.0893002
-0.240019
-0.217429
-0.387893
-0.448482
-0.841544
-0.806833
-0.0951713
-0.016304
-0.0034191
-66.6989
45.2199
3.90796
2.19823
2.10723
1.45197
1.41013
1.07293
1.04832
0.802692
0.781258
0.508658
0.499114
0.543937
0.544276
0.514443
0.511212
0.462422
0.458272
0.407022
0.402891
0.354888
0.351109
0.30839
0.305115
0.269087
0.266612
0.242111
0.242249
0.258666
0.452678
0.229301
0.158732
0.153991
0.124065
0.12195
0.102476
0.101029
0.0860364
0.0848951
0.0725812
0.071632
0.0612121
0.060399
0.0513447
0.0506214
0.042362
0.0416648
0.0332588
0.0324638
0.0215376
0.0211671
0.0232243
0.0232457
0.0219817
0.0218417
0.0196968
0.0195126
0.017219
0.0170308
0.0148074
0.0146214
0.0123999
0.0121891
0.00942641
0.00907092
0.00362106
0.00261474
-0.0143633
-0.0186743
-0.091405
-0.284533
-0.224058
-0.441556
-0.470794
-0.989956
-0.973354
-0.0436171
-0.00587541
-0.00118897
-66.3097
45.2199
3.90795
2.19822
2.10723
1.45197
1.41013
1.07293
1.04832
0.802695
0.78126
0.50866
0.499116
0.543939
0.544278
0.514445
0.511214
0.462424
0.458274
0.407024
0.402893
0.35489
0.351111
0.308392
0.305117
0.269088
0.266614
0.242113
0.242251
0.258669
0.452684
0.229304
0.158734
0.153993
0.124067
0.121952
0.102477
0.10103
0.0860379
0.0848966
0.0725826
0.0716334
0.0612134
0.0604003
0.0513459
0.0506225
0.042363
0.0416658
0.0332596
0.0324646
0.0215381
0.0211675
0.0232249
0.0232463
0.0219824
0.0218424
0.0196975
0.0195134
0.0172198
0.0170316
0.0148082
0.0146222
0.0124007
0.0121899
0.0094273
0.00907184
0.00362254
0.00261635
-0.0143593
-0.0186697
-0.09139
-0.284491
-0.224026
-0.4415
-0.470736
-0.989852
-0.973251
-0.0436124
-0.00587477
-0.00118902
-66.3101
47.9146
3.29826
2.04715
1.86147
1.33837
1.2492
0.979272
0.92679
0.730853
0.685564
0.473114
0.452829
0.484174
0.484619
0.461422
0.454618
0.416156
0.407376
0.366834
0.358081
0.320066
0.312055
0.278221
0.271282
0.24281
0.237611
0.218742
0.219491
0.240514
0.377452
0.212896
0.147737
0.137156
0.112844
0.108306
0.0927777
0.0897006
0.0777943
0.0753713
0.0656024
0.0635881
0.0553238
0.0535984
0.0464158
0.0448804
0.0383233
0.0368424
0.030161
0.0284855
0.0199902
0.0192038
0.0206612
0.0206953
0.0197136
0.0194188
0.0177281
0.0173385
0.0155236
0.0151247
0.0133617
0.0129666
0.0111987
0.0107488
0.00852921
0.00776287
0.00330998
0.00110792
-0.0131081
-0.0227963
-0.0892857
-0.239983
-0.217398
-0.387845
-0.448427
-0.841455
-0.806748
-0.095161
-0.0163022
-0.00341882
-66.6992
50.5901
2.75776
1.85345
1.62922
1.20742
1.09551
0.876917
0.810998
0.652986
0.596554
0.429881
0.404478
0.425646
0.425907
0.407744
0.399289
0.368702
0.35775
0.325374
0.314441
0.284043
0.274033
0.246975
0.23831
0.215601
0.209154
0.194588
0.195921
0.217722
0.314282
0.192514
0.134559
0.120869
0.10083
0.0951005
0.082581
0.0787247
0.0691721
0.0661405
0.0583128
0.0557936
0.0491733
0.0470155
0.0412604
0.0393397
0.034081
0.0322277
0.0268626
0.0247797
0.0181344
0.0171507
0.0181548
0.0181853
0.0174177
0.0170515
0.015707
0.0152209
0.0137712
0.0132727
0.0118608
0.0113663
0.00994428
0.00937886
0.0075733
0.00660167
0.00290768
8.0344e-05
-0.0120376
-0.0246504
-0.0838127
-0.202407
-0.203048
-0.338583
-0.41282
-0.710167
-0.667318
-0.1214
-0.0240906
-0.00524604
-67.0883
53.2419
2.27709
1.63256
1.40487
1.06408
0.946083
0.768456
0.698891
0.571056
0.511955
0.380998
0.354265
0.367954
0.367932
0.353679
0.344845
0.320463
0.30898
0.283056
0.27158
0.247204
0.236693
0.214994
0.2059
0.187742
0.181024
0.169798
0.171533
0.191942
0.259847
0.16958
0.11961
0.104837
0.0882456
0.0821674
0.0720385
0.0679773
0.0602898
0.0571022
0.0508114
0.0481637
0.0428449
0.0405771
0.0359523
0.0339331
0.0297031
0.0277539
0.0234335
0.0212569
0.0160525
0.0150183
0.0156877
0.0157076
0.0151062
0.0147236
0.0136519
0.0131423
0.0119811
0.0114575
0.0103236
0.00980345
0.00865595
0.00805883
0.00658434
0.00554966
0.00247101
-0.000575307
-0.0109471
-0.0246422
-0.0759617
-0.169547
-0.183301
-0.291772
-0.368287
-0.592486
-0.548011
-0.129695
-0.0287403
-0.00649216
-67.4772
55.8691
1.84676
1.39499
1.18504
0.911818
0.799042
0.655673
0.589114
0.486377
0.43023
0.327947
0.302435
0.310811
0.310527
0.299397
0.291024
0.271708
0.260789
0.240161
0.229235
0.209812
0.199802
0.182509
0.173853
0.159426
0.153074
0.144491
0.146399
0.164263
0.211739
0.145035
0.103255
0.088878
0.0752411
0.0693971
0.0612539
0.0573757
0.0512281
0.0481887
0.0431649
0.0406413
0.036395
0.0342335
0.0305405
0.0286154
0.0252345
0.0233754
0.0199189
0.0178555
0.0138041
0.0128182
0.013247
0.0132551
0.0127862
0.0124237
0.0115748
0.0110901
0.0101658
0.00966713
0.00876214
0.00826597
0.0073459
0.00677417
0.00557805
0.00457967
0.00203331
-0.000937672
-0.00972331
-0.0231287
-0.0664197
-0.13988
-0.159765
-0.246239
-0.317846
-0.485551
-0.443656
-0.125295
-0.0302417
-0.00706145
-67.8658
58.4732
1.45766
1.14775
0.967749
0.753142
0.653226
0.539818
0.480786
0.399835
0.350351
0.271825
0.249249
0.254015
0.253556
0.245006
0.23764
0.222618
0.212987
0.196878
0.187231
0.172044
0.163202
0.149679
0.142038
0.130788
0.125214
0.118765
0.120628
0.1354
0.1682
0.119494
0.0858036
0.0728903
0.0619254
0.0567192
0.0502993
0.0468653
0.0420426
0.0393551
0.035419
0.0331882
0.0298622
0.0279517
0.0250584
0.0233564
0.0207054
0.0190612
0.016349
0.0145339
0.0114333
0.0105617
0.0108233
0.0108219
0.0104623
0.0101435
0.00948328
0.00905577
0.00833372
0.00789326
0.00718459
0.00674571
0.00602215
0.00551473
0.00456409
0.00367183
0.00161282
-0.00106722
-0.0083145
-0.0204195
-0.0556704
-0.112356
-0.133565
-0.201301
-0.263561
-0.386999
-0.35036
-0.111963
-0.0288681
-0.00693469
-68.2543
61.0569
1.10122
0.895309
0.75184
0.58988
0.507949
0.421788
0.373334
0.312035
0.271634
0.213465
0.19497
0.197429
0.196908
0.190567
0.184564
0.173313
0.165445
0.153338
0.145449
0.134022
0.12679
0.116615
0.110367
0.101923
0.0973902
0.0927063
0.0943403
0.105817
0.127922
0.0933524
0.0675222
0.0568251
0.0483798
0.0440904
0.0392258
0.0364109
0.0327721
0.0305718
0.0276052
0.0257794
0.0232732
0.0217095
0.019529
0.0181358
0.0161364
0.01479
0.0127436
0.011264
0.00897356
0.0082601
0.00841038
0.00840335
0.008137
0.00787714
0.00738274
0.00703344
0.00649063
0.00613034
0.00559647
0.00523703
0.00468996
0.00427321
0.00354798
0.00281085
0.00121736
-0.00101389
-0.00671118
-0.0167842
-0.0440634
-0.0862496
-0.105504
-0.15658
-0.206828
-0.29485
-0.265134
-0.0924178
-0.0250481
-0.00615703
-68.6425
63.6242
0.76945
0.640375
0.536671
0.423416
0.362842
0.302251
0.266396
0.223398
0.193628
0.153518
0.139854
0.140962
0.140494
0.136116
0.131697
0.123873
0.118072
0.109629
0.103808
0.0958325
0.0904957
0.0833934
0.0787846
0.0729024
0.0695722
0.0663956
0.0676596
0.075809
0.0899114
0.0668623
0.0486359
0.0406702
0.0346684
0.031485
0.0280705
0.0259899
0.0234444
0.0218196
0.0197461
0.0183981
0.0166468
0.0154923
0.0139684
0.0129396
0.0115415
0.0105471
0.00911563
0.0080268
0.00645094
0.00592413
0.00600393
0.00599534
0.00581162
0.0056204
0.00527657
0.00501904
0.00464042
0.00437453
0.00400153
0.00373603
0.00335272
0.00304418
0.00253249
0.00198427
0.000847548
-0.00082177
-0.00493266
-0.0124604
-0.0318599
-0.0610606
-0.076169
-0.111893
-0.148583
-0.20741
-0.185627
-0.068659
-0.0192888
-0.00482437
-69.0305
66.1794
0.4549
0.384427
0.321884
0.254845
0.217736
0.181723
0.159744
0.134233
0.116036
0.0925142
0.0841461
0.0845577
0.0842365
0.0816658
0.0789674
0.074352
0.0708046
0.0658151
0.0622542
0.0575379
0.0542726
0.0500726
0.0472534
0.0437797
0.0417484
0.0399075
0.0407039
0.0455635
0.0533874
0.0401797
0.0293395
0.0244371
0.0208445
0.0188891
0.0168622
0.0155877
0.0140802
0.0130855
0.0118583
0.0110332
0.00999675
0.00929013
0.00838816
0.00775843
0.00693062
0.00632185
0.00547416
0.00480919
0.00388648
0.00356401
0.00360115
0.00359446
0.00348667
0.0033699
0.00316709
0.00300961
0.00278582
0.00262313
0.00240241
0.00223985
0.00201259
0.00182339
0.00151858
0.00118133
0.000499146
-0.00053188
-0.00301735
-0.00766165
-0.0192641
-0.036435
-0.0460093
-0.0671667
-0.0894533
-0.123195
-0.109927
-0.0421962
-0.0121333
-0.00307009
-69.4184
68.7273
0.150513
0.128162
0.107277
0.0850779
0.0725858
0.0606351
0.053234
0.0447756
0.0386569
0.0309039
0.0280875
0.0281831
0.028069
0.0272211
0.0263142
0.0247884
0.0235954
0.0219444
0.0207465
0.0191855
0.018087
0.0166968
0.0157484
0.0145994
0.0139172
0.0133142
0.0135858
0.0151997
0.017705
0.0134026
0.0098057
0.00815178
0.00695532
0.00629616
0.00562396
0.00519494
0.00469557
0.00436086
0.00395445
0.00367683
0.00333364
0.00309588
0.0027972
0.0025853
0.00231112
0.00210626
0.00182547
0.00160198
0.00129809
0.00118958
0.0012002
0.0011977
0.00116216
0.00112292
0.00105587
0.00100291
0.000928855
0.000874122
0.00080104
0.000746334
0.000671009
0.000607288
0.000506017
0.000392253
0.00016476
-0.000183747
-0.00101562
-0.00258446
-0.00644548
-0.0121131
-0.0153863
-0.0223951
-0.0298648
-0.0408589
-0.0364061
-0.0142266
-0.00413783
-0.00105308
-69.8061
68.7252
0.136483
0.103567
0.0775628
0.0522765
0.0389053
0.0273721
0.0209719
0.0149024
0.0124889
0.0118202
0.0114668
0.0109129
0.0104763
0.00986717
0.00942588
0.0088512
0.00843944
0.00790521
0.00752104
0.00702062
0.00666178
0.00619706
0.00587167
0.00546558
0.00521724
0.00498583
0.00506682
0.00561683
0.00648567
0.00485539
0.00348112
0.00284345
0.00237465
0.00211562
0.00185179
0.00168496
0.00149331
0.00136674
0.00121574
0.0011143
0.000991221
0.000907382
0.000804006
0.000731993
0.00064069
0.00057419
0.000485509
0.000417335
0.000326449
0.000287703
0.000273399
0.000257154
0.000222655
0.000189079
0.000133374
8.3548e-05
4.40909e-06
-6.72869e-05
-0.000183137
-0.000292471
-0.000475487
-0.000658741
-0.000981115
-0.00133568
-0.0020106
-0.00288658
-0.00478507
-0.0079294
-0.0152757
-0.0251737
-0.0278312
-0.0349497
-0.0426998
-0.0537977
-0.0468769
-0.0182507
-0.00530235
-0.00134938
-69.1036
66.1734
0.412898
0.310425
0.23266
0.156353
0.116642
0.0819111
0.0629024
0.044561
0.0373968
0.0354479
0.0344084
0.032734
0.031436
0.0295948
0.028283
0.0265471
0.0253232
0.0237097
0.0225678
0.0210562
0.0199896
0.0185856
0.0176182
0.0163904
0.015651
0.014945
0.0151817
0.0168377
0.019557
0.0145559
0.0104139
0.00852359
0.00711556
0.00634705
0.0055515
0.00505587
0.00447732
0.00410119
0.00364525
0.00334377
0.0029721
0.00272293
0.00241076
0.00219675
0.00192108
0.00172346
0.0014557
0.00125291
0.000977262
0.00086213
0.000820274
0.000772192
0.000667929
0.000568124
0.00039989
0.000251819
1.29326e-05
-0.000200091
-0.000549667
-0.000874462
-0.00142645
-0.00197065
-0.00294205
-0.00399421
-0.00602374
-0.00861885
-0.0143054
-0.0236201
-0.0457251
-0.0758109
-0.0833153
-0.104824
-0.127965
-0.162114
-0.141499
-0.0541249
-0.0155472
-0.00393379
-67.3108
63.6153
0.699768
0.516295
0.387699
0.258966
0.19418
0.135821
0.104806
0.0737727
0.0620962
0.0590393
0.0573754
0.0545401
0.0524174
0.0493014
0.0471572
0.0442226
0.0422227
0.0394953
0.0376293
0.035074
0.0333309
0.0309567
0.0293752
0.0272958
0.0260835
0.0248665
0.0252398
0.0280161
0.0329371
0.0242222
0.0172566
0.0141845
0.0118309
0.0105796
0.00923923
0.00843012
0.00745324
0.00683884
0.00606859
0.00557604
0.00494807
0.00454099
0.00401359
0.00366397
0.00319834
0.00287553
0.0024233
0.0020914
0.00162165
0.00143362
0.0013674
0.00128948
0.00111303
0.00094991
0.000665605
0.00042373
2.04312e-05
-0.000327422
-0.000917176
-0.00144735
-0.0023777
-0.00326546
-0.00489975
-0.00661364
-0.0100143
-0.0142274
-0.0236805
-0.0387993
-0.0758552
-0.127351
-0.138239
-0.174633
-0.212791
-0.27262
-0.238791
-0.0880473
-0.0247136
-0.00618133
-65.5178
61.0467
1.00441
0.719971
0.542743
0.359021
0.271462
0.188638
0.146711
0.10221
0.086451
0.0825752
0.0803895
0.0763179
0.0734386
0.0689692
0.066063
0.0618608
0.0591513
0.0552465
0.0527185
0.0490594
0.0466975
0.0432962
0.0411522
0.0381664
0.0365162
0.0347244
0.0352019
0.0391088
0.0468628
0.0338185
0.0239437
0.0198166
0.0165022
0.0148157
0.0129057
0.0118111
0.0104147
0.00958275
0.00848084
0.00781375
0.00691522
0.00636387
0.00560931
0.00513583
0.00446988
0.00403276
0.00338607
0.00293539
0.00225477
0.00200024
0.00191499
0.0018107
0.00155759
0.00133655
0.000929633
0.000602112
2.57287e-05
-0.000445057
-0.00128705
-0.00200421
-0.00333064
-0.00453039
-0.00685423
-0.00916558
-0.0139722
-0.0196264
-0.032829
-0.0531009
-0.105408
-0.180516
-0.192143
-0.244371
-0.29675
-0.386874
-0.34076
-0.118473
-0.0320878
-0.0078884
-63.7246
58.4639
1.33468
0.919358
0.698048
0.45523
0.348554
0.239819
0.188719
0.129498
0.110331
0.106044
0.103479
0.0980482
0.0945237
0.0885746
0.0850209
0.0794394
0.0761278
0.0709428
0.0678531
0.0629929
0.0601058
0.0555854
0.0529629
0.0489837
0.0469547
0.0444916
0.0450268
0.0500476
0.0616205
0.043288
0.0304009
0.0254164
0.0211084
0.0190608
0.0165397
0.0152042
0.0133536
0.0123375
0.0108757
0.0100607
0.00886849
0.00819489
0.00719378
0.00661538
0.00573226
0.00519837
0.004341
0.00378858
0.00287083
0.00256009
0.00246334
0.00233789
0.00200088
0.00173063
0.0011905
0.000790467
2.68267e-05
-0.000547816
-0.00166188
-0.00253667
-0.00428861
-0.00575031
-0.00880918
-0.0116177
-0.0178963
-0.0247234
-0.0416948
-0.0661211
-0.134048
-0.23622
-0.244423
-0.314104
-0.379198
-0.506576
-0.449776
-0.143463
-0.0369746
-0.00888416
-61.9312
55.8635
1.69912
1.11099
0.854214
0.545993
0.425729
0.288695
0.231053
0.155184
0.133615
0.129443
0.126684
0.119702
0.115706
0.108084
0.10406
0.0969274
0.0931795
0.0865554
0.0830586
0.0768477
0.0735794
0.0677988
0.0648278
0.059723
0.0574105
0.0541388
0.0546723
0.0607244
0.0775745
0.0525399
0.036542
0.0309891
0.0256243
0.0233249
0.0201262
0.018618
0.0162592
0.0151101
0.0132447
0.0123228
0.010801
0.010039
0.00876135
0.00810711
0.00698066
0.00637691
0.00528371
0.00465637
0.0034626
0.00311136
0.00301283
0.00287353
0.00244151
0.00213553
0.00144578
0.000993393
2.03965e-05
-0.000628961
-0.00204624
-0.00303399
-0.00525814
-0.0069063
-0.0107741
-0.0139309
-0.0217984
-0.0294147
-0.0502623
-0.0774012
-0.161319
-0.295683
-0.294243
-0.38402
-0.459156
-0.633646
-0.568772
-0.16046
-0.0387256
-0.00904593
-60.1374
53.243
2.10719
1.28936
1.01244
0.62924
0.503576
0.334396
0.274116
0.178699
0.156205
0.152787
0.150058
0.141238
0.137034
0.127451
0.123224
0.11428
0.110346
0.102043
0.0983728
0.0905848
0.0871537