/*--------------------------------*- C++ -*----------------------------------*\
| =========                 |                                                 |
| \\      /  F ield         | OpenFOAM: The Open Source CFD Toolbox           |
|  \\    /   O peration     | Version:  5.x                                   |
|   \\  /    A nd           | Web:      www.OpenFOAM.org                      |
|    \\/     M anipulation  |                                                 |
\*---------------------------------------------------------------------------*/
FoamFile
{
    version     2.0;
    format      ascii;
    class       volScalarField;
    location    "3.1";
    object      gradTy;
}
// * * * * * * * * * * * * * * * * * * * * * * * * * * * * * * * * * * * * * //

dimensions      [0 -1 0 1 0 0 0];

internalField   nonuniform List<scalar> 
3200
(
18.2106
8.61462
11.7024
8.29365
9.72683
8.02356
8.77434
7.779
8.22498
7.58921
7.86232
7.5068
7.71522
7.30905
7.51913
7.13287
7.33004
6.975
7.15506
6.83404
6.99599
6.70928
6.85333
6.59982
6.7271
6.50404
6.6178
6.41889
6.53351
6.36485
6.22994
6.31691
6.19863
6.25618
6.1642
6.20875
6.13493
6.17076
6.11075
6.13991
6.09092
6.1147
6.07472
6.09407
6.06165
6.07718
6.0514
6.06342
6.04404
6.05235
6.04106
6.04733
6.0355
6.04101
6.03185
6.03556
6.03052
6.03159
6.03227
6.02954
6.03847
6.02999
6.05167
6.03364
6.07686
6.04077
6.12495
6.04662
6.22167
5.99945
6.29166
7.1056
6.41984
7.94226
6.77769
9.88694
9.11791
9.0003
8.97603
8.9708
16.9731
9.72849
11.3058
8.75643
9.52482
8.25282
8.65478
7.91072
8.14837
7.6727
7.81853
7.55316
7.66423
7.35994
7.47093
7.18157
7.28582
7.01989
7.11512
6.87468
6.96036
6.74562
6.82184
6.63197
6.69934
6.53232
6.5927
6.44394
6.50608
6.36857
6.25474
6.30253
6.21419
6.24487
6.17602
6.19965
6.14437
6.16335
6.11842
6.13386
6.09717
6.10977
6.07983
6.09007
6.06579
6.07401
6.0547
6.06106
6.04655
6.05096
6.04253
6.04586
6.03699
6.03989
6.03303
6.03498
6.0312
6.03175
6.03225
6.03079
6.03745
6.03292
6.04912
6.03947
6.07175
6.05233
6.11508
6.07221
6.20183
6.07475
6.34997
6.99054
6.62121
7.76004
7.15435
9.49447
9.09185
8.99657
8.97526
8.97059
16.0254
10.4894
11.0741
9.08647
9.40441
8.41509
8.58103
8.00315
8.10028
7.73131
7.79116
7.58444
7.62984
7.39422
7.43872
7.21452
7.2564
7.05032
7.08861
6.90227
6.93673
6.77031
6.80098
6.65383
6.68096
6.5515
6.57597
6.46055
6.48663
6.37135
6.27306
6.29358
6.22498
6.23753
6.18414
6.1937
6.15084
6.1585
6.12367
6.12989
6.10146
6.10653
6.08332
6.08745
6.06863
6.07194
6.05697
6.05953
6.04829
6.05008
6.04352
6.04487
6.03801
6.03917
6.03386
6.03463
6.03171
6.03191
6.03231
6.0317
6.03688
6.03501
6.0476
6.04362
6.06871
6.0606
6.10943
6.0909
6.19226
6.13395
6.39366
6.91587
6.76225
7.6476
7.41316
9.2117
9.0535
8.98987
8.97383
8.97019
15.2992
11.0056
10.9454
9.32429
9.33628
8.53116
8.53704
8.06859
8.07083
7.77277
7.77446
7.60564
7.6067
7.41729
7.41726
7.23683
7.23689
7.07097
7.07108
6.92103
6.92114
6.78712
6.78723
6.66871
6.66885
6.56452
6.56482
6.4715
6.47284
6.37344
6.28663
6.2882
6.23252
6.23283
6.18975
6.18984
6.1553
6.15535
6.12728
6.12731
6.1044
6.10443
6.08573
6.08575
6.07059
6.0706
6.05855
6.05855
6.04951
6.04954
6.0442
6.04422
6.03871
6.0387
6.03444
6.03443
6.03209
6.03207
6.03241
6.03238
6.03659
6.03653
6.04674
6.04661
6.06699
6.06659
6.10648
6.1048
6.18908
6.18043
6.42685
6.86823
6.86173
7.57995
7.59066
9.00719
9.01136
8.98127
8.9719
8.96964
14.7447
11.3524
10.8792
9.49679
9.30085
8.61479
8.51203
8.11519
8.0534
7.80224
7.76459
7.62005
7.59117
7.43279
7.40303
7.25192
7.22403
7.08499
7.05955
6.93379
6.91092
6.79856
6.77823
6.67885
6.66091
6.57335
6.55743
6.47866
6.46307
6.37504
6.29667
6.28511
6.23783
6.22987
6.19363
6.18738
6.15837
6.15332
6.12976
6.12565
6.10642
6.10307
6.08738
6.08466
6.07194
6.06975
6.05964
6.05794
6.05037
6.04921
6.04466
6.04378
6.03919
6.03841
6.03485
6.03432
6.03237
6.03221
6.03253
6.03289
6.03648
6.03764
6.0463
6.04877
6.06611
6.07098
6.10519
6.11525
6.18962
6.21671
6.45224
6.83851
6.93222
7.54061
7.71193
8.85919
8.97059
8.97184
8.96969
8.969
14.3259
11.5824
10.8493
9.62185
9.28503
8.6751
8.49879
8.14841
8.04356
7.82318
7.75899
7.62984
7.58083
7.44315
7.39365
7.26208
7.21562
7.09447
7.05205
6.94243
6.90428
6.80633
6.7724
6.68574
6.65576
6.57932
6.55255
6.4833
6.45621
6.37624
6.30404
6.28345
6.24157
6.22804
6.19631
6.18582
6.16048
6.15204
6.13147
6.1246
6.10782
6.10221
6.08852
6.08396
6.07287
6.06921
6.0604
6.05757
6.05097
6.04902
6.04497
6.0435
6.03952
6.03822
6.03514
6.03426
6.03259
6.03234
6.03264
6.03328
6.03646
6.03845
6.04611
6.05034
6.06573
6.07418
6.10487
6.12314
6.19204
6.24465
6.47161
6.8205
6.98212
7.51875
7.79416
8.75262
8.93423
8.96255
8.96742
8.96834
14.0169
11.7321
10.8391
9.71128
9.28014
8.71807
8.49251
8.1718
8.03833
7.83788
7.756
7.63642
7.57404
7.44999
7.38755
7.26884
7.2102
7.10079
7.04723
6.94821
6.90003
6.81154
6.76868
6.69036
6.65247
6.58331
6.54937
6.48626
6.45146
6.37714
6.30934
6.28265
6.24417
6.22694
6.19814
6.18486
6.16191
6.15124
6.13263
6.12394
6.10876
6.10168
6.08929
6.08353
6.0735
6.06888
6.06092
6.05734
6.05139
6.04891
6.04519
6.04332
6.03974
6.03811
6.03534
6.03424
6.03275
6.03244
6.03274
6.03356
6.03649
6.03903
6.04606
6.05147
6.06562
6.0765
6.10504
6.129
6.19512
6.26561
6.4861
6.80997
7.01703
7.50733
7.84907
8.67712
8.904
8.9542
8.96531
8.96772
13.7992
11.8261
10.8384
9.77286
9.28049
8.74758
8.49005
8.18771
8.03579
7.84783
7.75452
7.64072
7.56972
7.45436
7.38371
7.2732
7.20681
7.10489
7.04423
6.95197
6.89739
6.81492
6.76637
6.69336
6.65043
6.58589
6.54736
6.48808
6.44829
6.37778
6.313
6.28231
6.24592
6.2263
6.19935
6.18429
6.16286
6.15076
6.13339
6.12355
6.10938
6.10136
6.0898
6.08328
6.07392
6.06868
6.06126
6.05721
6.05167
6.04885
6.04533
6.0432
6.03989
6.03805
6.03548
6.03424
6.03286
6.03252
6.03282
6.03377
6.03653
6.03943
6.04607
6.05225
6.06564
6.07812
6.1054
6.13317
6.19803
6.28058
6.49645
6.80412
7.0406
7.50186
7.88453
8.62567
8.88084
8.94741
8.96354
8.96719
13.6605
11.8806
10.8408
9.81151
9.28248
8.76609
8.48939
8.19762
8.0347
7.85401
7.75387
7.64331
7.56717
7.45695
7.38147
7.2758
7.20485
7.10734
7.0425
6.95422
6.89588
6.81695
6.76505
6.69516
6.64926
6.58743
6.54619
6.48912
6.44636
6.37819
6.3153
6.28221
6.247
6.22596
6.20009
6.18397
6.16343
6.15049
6.13385
6.12333
6.10976
6.10118
6.09011
6.08313
6.07417
6.06857
6.06147
6.05714
6.05184
6.04883
6.04541
6.04313
6.03998
6.03801
6.03556
6.03424
6.03293
6.03257
6.03288
6.03389
6.03657
6.03969
6.0461
6.05274
6.06571
6.07914
6.10574
6.13586
6.20022
6.29021
6.50313
6.80112
7.05518
7.49954
7.90565
8.59366
8.86522
8.94265
8.96228
8.96681
13.593
11.9056
10.8428
9.83016
9.28396
8.77501
8.48933
8.20237
8.03432
7.85696
7.75363
7.64453
7.566
7.45815
7.38044
7.27701
7.20395
7.10849
7.04171
6.95527
6.89519
6.8179
6.76445
6.69601
6.64872
6.58815
6.54564
6.4896
6.44544
6.37839
6.31641
6.28219
6.24752
6.22581
6.20044
6.18383
6.1637
6.15037
6.13407
6.12323
6.10993
6.10109
6.09026
6.08307
6.07429
6.06852
6.06157
6.05711
6.05193
6.04881
6.04545
6.0431
6.04002
6.038
6.0356
6.03424
6.03297
6.0326
6.03291
6.03396
6.03659
6.03981
6.04612
6.05297
6.06575
6.07964
6.10593
6.13718
6.2014
6.29493
6.50641
6.79987
7.06215
7.49875
7.91549
8.57831
8.85737
8.94019
8.96162
8.96661
-13.6336
-11.8327
-10.6065
-9.26976
-8.46068
-7.57014
-7.00908
-6.35835
-5.94419
-5.46331
-5.17073
-4.84623
-4.60956
-4.28252
-4.04803
-3.73809
-3.52163
-3.24239
-3.04963
-2.80359
-2.63463
-2.41998
-2.27283
-2.08613
-1.95783
-1.79424
-1.6795
-1.52813
-1.40805
-1.22432
-1.05259
-0.956412
-0.856872
-0.79347
-0.717875
-0.667546
-0.605445
-0.563635
-0.511568
-0.476405
-0.432506
-0.402856
-0.365856
-0.340927
-0.30993
-0.28921
-0.263723
-0.247071
-0.227225
-0.215016
-0.201303
-0.191248
-0.177297
-0.167288
-0.154054
-0.144825
-0.13294
-0.124763
-0.114367
-0.107277
-0.0983506
-0.0923472
-0.0849334
-0.0801947
-0.0748114
-0.0723279
-0.0714936
-0.0759086
-0.0916632
-0.127148
-0.220231
-0.369923
-0.52725
-0.817788
-1.12391
-1.63814
-1.85566
-1.92029
-1.93702
-1.94091
-13.7057
-11.8098
-10.6109
-9.24868
-8.46397
-7.55699
-7.01269
-6.34892
-5.94688
-5.4558
-5.17203
-4.84273
-4.6132
-4.27884
-4.05107
-3.73437
-3.52416
-3.23895
-3.05178
-2.80053
-2.63647
-2.4173
-2.27443
-2.08382
-1.95925
-1.7923
-1.68098
-1.5269
-1.41061
-1.22385
-1.04959
-0.956559
-0.855438
-0.79397
-0.716875
-0.668028
-0.604644
-0.564055
-0.510901
-0.476763
-0.431944
-0.403158
-0.36538
-0.341177
-0.309526
-0.289407
-0.263375
-0.247204
-0.226925
-0.215081
-0.201162
-0.191409
-0.177144
-0.167421
-0.153897
-0.144934
-0.132795
-0.124855
-0.114238
-0.107353
-0.0982361
-0.0924059
-0.0848285
-0.0802223
-0.0746971
-0.0722635
-0.0712849
-0.0754561
-0.0908748
-0.124845
-0.217966
-0.369618
-0.521921
-0.817163
-1.11558
-1.65001
-1.86177
-1.9222
-1.93753
-1.94106
-13.8536
-11.7589
-10.6219
-9.20452
-8.47217
-7.52935
-7.0211
-6.32903
-5.95316
-5.44003
-5.17517
-4.83527
-4.62105
-4.27092
-4.05769
-3.72641
-3.52971
-3.23161
-3.05652
-2.794
-2.64055
-2.41158
-2.27796
-2.07887
-1.96239
-1.78816
-1.68419
-1.52417
-1.41601
-1.2229
-1.04334
-0.957043
-0.852431
-0.795106
-0.714757
-0.669101
-0.602941
-0.564987
-0.509483
-0.477557
-0.43075
-0.403828
-0.364369
-0.341732
-0.308667
-0.289847
-0.262639
-0.247507
-0.226294
-0.215234
-0.200859
-0.191754
-0.176813
-0.167711
-0.153563
-0.145175
-0.132485
-0.125057
-0.113962
-0.107522
-0.0979928
-0.0925369
-0.0846068
-0.0802887
-0.0744609
-0.0721423
-0.0708715
-0.0745549
-0.0893454
-0.120176
-0.213361
-0.369286
-0.510874
-0.81641
-1.09782
-1.67478
-1.87393
-1.92592
-1.93851
-1.94135
-14.0853
-11.6698
-10.6442
-9.13299
-8.48881
-7.48436
-7.03689
-6.29652
-5.96495
-5.41434
-5.18134
-4.82281
-4.63436
-4.25755
-4.06906
-3.7131
-3.53934
-3.21937
-3.06477
-2.78313
-2.64766
-2.40207
-2.28413
-2.07065
-1.96787
-1.78122
-1.68966
-1.51938
-1.42482
-1.22143
-1.03338
-0.958274
-0.847546
-0.797176
-0.711263
-0.671007
-0.600121
-0.566632
-0.507132
-0.478956
-0.42877
-0.405008
-0.362694
-0.342712
-0.307246
-0.29063
-0.261427
-0.248061
-0.225261
-0.215526
-0.20035
-0.192339
-0.176254
-0.168207
-0.153002
-0.145592
-0.131969
-0.12541
-0.113504
-0.107817
-0.0975893
-0.0927693
-0.084243
-0.0804176
-0.0740861
-0.071981
-0.0702615
-0.0732106
-0.0871752
-0.113014
-0.206247
-0.369527
-0.493268
-0.816621
-1.06822
-1.71466
-1.89198
-1.9312
-1.93988
-1.94176
-14.4137
-11.5252
-10.6859
-9.0268
-8.51989
-7.41711
-7.06443
-6.24769
-5.98553
-5.37598
-5.19255
-4.80357
-4.65523
-4.23666
-4.08714
-3.69252
-3.55485
-3.20054
-3.07812
-2.76643
-2.65919
-2.38748
-2.29414
-2.05801
-1.97671
-1.7705
-1.69829
-1.51158
-1.438
-1.21935
-1.01892
-0.960943
-0.840259
-0.800681
-0.705955
-0.67415
-0.595816
-0.569328
-0.503538
-0.481246
-0.425741
-0.406938
-0.360134
-0.34432
-0.305078
-0.291923
-0.259589
-0.248997
-0.223713
-0.216041
-0.199561
-0.193251
-0.175379
-0.168993
-0.152134
-0.146262
-0.131174
-0.125979
-0.1128
-0.108296
-0.0969722
-0.0931526
-0.0836935
-0.0806487
-0.0735442
-0.0718058
-0.0694661
-0.0714269
-0.0845311
-0.103156
-0.19633
-0.371349
-0.467676
-0.8197
-1.02283
-1.77331
-1.91554
-1.93771
-1.94151
-1.94223
-14.8576
-11.2986
-10.7604
-8.87455
-8.57483
-7.31989
-7.11055
-6.1767
-6.02003
-5.3206
-5.21201
-4.77473
-4.68694
-4.20504
-4.11506
-3.66168
-3.57904
-3.17246
-3.09907
-2.74157
-2.67733
-2.36577
-2.30988
-2.0392
-1.99057
-1.75443
-1.71152
-1.49927
-1.457
-1.21656
-0.998771
-0.966134
-0.829742
-0.806404
-0.698142
-0.679165
-0.589448
-0.573607
-0.498214
-0.484873
-0.421254
-0.409997
-0.356342
-0.346872
-0.301874
-0.29399
-0.256886
-0.250528
-0.221465
-0.216914
-0.19837
-0.194631
-0.174048
-0.170204
-0.15083
-0.147304
-0.129988
-0.126872
-0.111752
-0.109052
-0.0960576
-0.0937639
-0.0828895
-0.0810443
-0.0727893
-0.0716563
-0.0685
-0.0691986
-0.081667
-0.0903176
-0.18314
-0.376318
-0.431856
-0.828734
-0.955551
-1.85628
-1.94391
-1.94495
-1.94327
-1.94273
-15.4439
-10.9512
-10.8889
-8.65888
-8.66801
-7.18086
-7.18568
-6.07465
-6.07626
-5.24161
-5.24465
-4.73194
-4.73443
-4.15777
-4.15753
-3.61603
-3.61621
-3.13107
-3.13141
-2.70501
-2.70538
-2.33386
-2.33423
-2.01153
-2.01195
-1.73066
-1.73155
-1.48018
-1.48394
-1.21288
-0.971232
-0.97549
-0.814715
-0.815537
-0.68677
-0.687022
-0.580137
-0.580278
-0.490418
-0.490521
-0.414681
-0.414761
-0.350791
-0.350853
-0.297192
-0.297233
-0.252961
-0.252972
-0.218243
-0.218352
-0.196592
-0.19669
-0.172053
-0.17204
-0.148897
-0.148902
-0.128236
-0.128248
-0.11021
-0.110222
-0.0947177
-0.0947209
-0.0817267
-0.0816984
-0.0717514
-0.0715894
-0.0673811
-0.0665008
-0.0789566
-0.0741127
-0.165936
-0.386793
-0.382381
-0.848569
-0.857309
-1.97177
-1.97573
-1.95229
-1.94498
-1.94321
-16.2099
-10.4266
-11.1041
-8.35368
-8.82107
-6.98219
-7.30547
-5.92811
-6.16597
-5.12913
-5.29793
-4.66856
-4.80511
-4.08746
-4.22168
-3.54875
-3.67281
-3.07028
-3.18083
-2.65139
-2.74833
-2.28708
-2.37152
-1.97095
-2.04461
-1.69561
-1.76168
-1.4509
-1.52189
-1.20804
-0.933871
-0.99146
-0.793237
-0.829865
-0.670249
-0.699175
-0.566554
-0.59056
-0.479033
-0.499216
-0.405079
-0.422095
-0.342686
-0.35699
-0.29037
-0.302255
-0.24727
-0.256813
-0.213633
-0.22067
-0.193945
-0.199743
-0.169078
-0.174806
-0.146042
-0.15133
-0.125662
-0.13035
-0.10795
-0.112015
-0.0927601
-0.0962003
-0.0800473
-0.0827512
-0.0703239
-0.0716859
-0.0661305
-0.0632707
-0.0769391
-0.0540419
-0.143572
-0.406277
-0.314081
-0.8867
-0.714836
-2.13167
-2.00865
-1.95898
-1.94646
-1.94361
-17.2073
-9.64364
-11.4564
-7.91978
-9.0664
-6.69705
-7.4933
-5.71699
-6.3067
-4.96845
-5.38317
-4.57456
-4.90998
-3.9831
-4.31813
-3.4496
-3.7585
-2.98099
-3.25588
-2.57274
-2.81362
-2.2185
-2.42823
-1.91142
-2.0942
-1.64398
-1.8069
-1.40636
-1.57525
-1.20163
-0.883253
-1.01768
-0.762377
-0.852056
-0.646198
-0.717801
-0.546718
-0.606273
-0.46239
-0.512493
-0.391041
-0.433295
-0.330841
-0.366372
-0.280414
-0.309958
-0.239005
-0.262769
-0.20702
-0.224345
-0.190002
-0.20426
-0.164652
-0.178956
-0.141829
-0.155001
-0.121876
-0.133539
-0.104634
-0.114745
-0.0898973
-0.0984659
-0.0776159
-0.0844113
-0.0683465
-0.0720607
-0.0647734
-0.0593807
-0.0763851
-0.0294748
-0.11428
-0.439958
-0.219188
-0.954609
-0.508813
-2.35317
-2.03864
-1.96419
-1.94755
-1.9439
-18.5072
-8.48548
-12.0227
-7.29846
-9.45227
-6.28519
-7.78395
-5.41114
-6.52445
-4.73757
-5.51725
-4.43472
-5.06526
-3.82818
-4.46264
-3.30327
-3.88757
-2.84952
-3.36917
-2.45705
-2.91228
-2.11766
-2.51393
-1.82384
-2.16904
-1.56776
-1.8746
-1.33899
-1.65026
-1.19295
-0.814472
-1.05943
-0.717672
-0.886022
-0.611004
-0.746092
-0.517616
-0.630085
-0.43795
-0.532598
-0.370422
-0.450251
-0.313447
-0.380585
-0.265812
-0.321656
-0.226927
-0.271882
-0.197463
-0.230065
-0.184095
-0.210913
-0.158051
-0.185146
-0.135588
-0.160509
-0.116286
-0.138338
-0.0997455
-0.118861
-0.0856881
-0.101899
-0.0740705
-0.086978
-0.0655714
-0.0728694
-0.0633355
-0.0545901
-0.0783843
0.000363997
-0.0753517
-0.495497
-0.08605
-1.06977
-0.21119
-2.66104
-2.05903
-1.9671
-1.94813
-1.94406
18.5072
8.4855
12.0227
7.29847
9.45229
6.2852
7.78396
5.41115
6.52446
4.73757
5.51726
4.43472
5.06527
3.82818
4.46265
3.30327
3.88757
2.84953
3.36917
2.45705
2.91228
2.11766
2.51394
1.82384
2.16904
1.56776
1.8746
1.33899
1.65026
1.19295
0.814468
1.05943
0.717669
0.886023
0.611002
0.746093
0.517613
0.630086
0.437948
0.532598
0.37042
0.450252
0.313445
0.380585
0.265811
0.321657
0.226926
0.271882
0.197462
0.230066
0.184095
0.210914
0.158051
0.185147
0.135588
0.16051
0.116286
0.138339
0.0997457
0.118863
0.0856884
0.1019
0.0740708
0.0869797
0.0655714
0.0728713
0.0633345
0.0545932
0.07838
-0.000354316
0.0753463
0.495433
0.0860401
1.06964
0.211153
2.66075
2.0588
1.96688
1.94791
1.94384
17.2074
9.64367
11.4565
7.91982
9.06644
6.69708
7.49334
5.71702
6.30673
4.96848
5.3832
4.57459
4.91001
3.98312
4.31816
3.44962
3.75853
2.98101
3.2559
2.57276
2.81364
2.21852
2.42825
1.91144
2.09422
1.644
1.80692
1.40638
1.57527
1.20164
0.883263
1.01769
0.762387
0.852067
0.646206
0.717811
0.546725
0.606282
0.462396
0.512502
0.391047
0.433303
0.330846
0.366379
0.280419
0.309964
0.239009
0.262774
0.207025
0.22435
0.190006
0.204265
0.164656
0.17896
0.141832
0.155006
0.12188
0.133543
0.104637
0.114749
0.0899001
0.0984693
0.0776182
0.0844143
0.0683482
0.0720634
0.0647739
0.0593834
0.0763823
0.0294798
0.114269
0.439901
0.21916
0.954488
0.508742
2.35291
2.03841
1.96397
1.94733
1.94369
16.21
10.4267
11.1041
8.35373
8.82112
6.98224
7.30552
5.92816
6.16602
5.12918
5.29798
4.6686
4.80515
4.0875
4.22172
3.54878
3.67285
3.07032
3.18087
2.65143
2.74836
2.28712
2.37155
1.97098
2.04464
1.69564
1.76171
1.45092
1.52192
1.20807
0.933892
0.991481
0.793256
0.829885
0.670266
0.699192
0.56657
0.590576
0.479048
0.499231
0.405092
0.422109
0.342698
0.357002
0.29038
0.302266
0.24728
0.256823
0.213642
0.220679
0.193953
0.199752
0.169086
0.174814
0.146049
0.151338
0.125668
0.130357
0.107955
0.112021
0.092765
0.0962053
0.0800514
0.0827554
0.0703271
0.0716894
0.0661323
0.0632733
0.0769372
0.0540435
0.143557
0.406225
0.314041
0.886587
0.714742
2.13143
2.00843
1.95876
1.94624
1.9434
15.4439
10.9513
10.889
8.65894
8.66807
7.18092
7.18574
6.0747
6.07632
5.24166
5.2447
4.73199
4.73448
4.15781
4.15758
3.61608
3.61625
3.13111
3.13145
2.70505
2.70542
2.33389
2.33427
2.01156
2.01198
1.73069
1.73158
1.48021
1.48397
1.21291
0.971257
0.975514
0.814737
0.815559
0.686791
0.687042
0.580155
0.580297
0.490435
0.490538
0.414696
0.414776
0.350805
0.350866
0.297205
0.297245
0.252972
0.252984
0.218254
0.218362
0.196602
0.1967
0.172063
0.172049
0.148905
0.14891
0.128244
0.128256
0.110217
0.110228
0.0947234
0.0947265
0.0817315
0.0817031
0.0717553
0.0715931
0.0673834
0.066503
0.078955
0.0741115
0.16592
0.386744
0.382332
0.848461
0.8572
1.97154
1.97551
1.95207
1.94475
1.94299
14.8576
11.2987
10.7605
8.87461
8.5749
7.31995
7.11061
6.17676
6.02008
5.32065
5.21207
4.77478
4.68699
4.20509
4.11511
3.66173
3.57908
3.1725
3.09912
2.74161
2.67737
2.36581
2.30992
2.03924
1.99061
1.75447
1.71156
1.4993
1.45703
1.21659
0.998798
0.966161
0.829766
0.806428
0.698164
0.679187
0.589469
0.573627
0.498232
0.484891
0.42127
0.410013
0.356357
0.346886
0.301887
0.294003
0.256899
0.25054
0.221476
0.216925
0.19838
0.194642
0.174058
0.170213
0.150839
0.147313
0.129996
0.12688
0.111759
0.109058
0.0960637
0.0937698
0.0828947
0.0810493
0.0727935
0.0716602
0.0685025
0.0692006
0.0816654
0.0903142
0.183122
0.376272
0.431802
0.82863
0.955432
1.85606
1.94369
1.94473
1.94305
1.94251
14.4137
11.5253
10.686
9.02686
8.51995
7.41717
7.06449
6.24775
5.98558
5.37603
5.19261
4.80363
4.65528
4.23671
4.08719
3.69256
3.55489
3.20059
3.07817
2.76647
2.65924
2.38752
2.29418
2.05805
1.97675
1.77053
1.69833
1.51161
1.43803
1.21938
1.01895
0.96097
0.840284
0.800705
0.705978
0.674172
0.595837
0.569348
0.503557
0.481264
0.425758
0.406955
0.360149
0.344334
0.305092
0.291936
0.259601
0.249009
0.223724
0.216052
0.199572
0.193262
0.175389
0.169003
0.152143
0.146271
0.131183
0.125987
0.112807
0.108303
0.0969785
0.0931586
0.0836988
0.0806538
0.0735485
0.0718097
0.0694687
0.0714286
0.0845294
0.103151
0.196311
0.371304
0.467618
0.819599
1.02271
1.7731
1.91532
1.93749
1.94129
1.94201
14.0853
11.6699
10.6443
9.13305
8.48887
7.48442
7.03695
6.29658
5.96501
5.4144
5.18139
4.82286
4.63441
4.2576
4.06911
3.71314
3.53939
3.21942
3.06481
2.78317
2.6477
2.40211
2.28417
2.07068
1.9679
1.78126
1.68969
1.51941
1.42485
1.22146
1.03341
0.9583
0.847571
0.7972
0.711286
0.671029
0.600142
0.566652
0.507151
0.478974
0.428787
0.405024
0.36271
0.342727
0.30726
0.290643
0.26144
0.248073
0.225273
0.215537
0.200361
0.192349
0.176265
0.168216
0.153011
0.145601
0.131978
0.125417
0.113511
0.107824
0.0975957
0.0927754
0.0842485
0.0804227
0.0740905
0.0719848
0.0702642
0.0732121
0.0871734
0.113007
0.206226
0.369482
0.493207
0.81652
1.06809
1.71447
1.89176
1.93098
1.93966
1.94153
13.8536
11.759
10.622
9.20458
8.47223
7.52941
7.02116
6.32909
5.95321
5.44008
5.17522
4.83532
4.6211
4.27097
4.05774
3.72646
3.52976
3.23165
3.05656
2.79404
2.64059
2.41162
2.278
2.07891
1.96243
1.78819
1.68422
1.5242
1.41604
1.22293
1.04337
0.957069
0.852455
0.79513
0.714779
0.669123
0.602961
0.565007
0.509502
0.477575
0.430767
0.403844
0.364385
0.341747
0.308681
0.28986
0.262652
0.247519
0.226305
0.215245
0.20087
0.191765
0.176823
0.16772
0.153572
0.145184
0.132494
0.125065
0.113969
0.107529
0.0979992
0.0925429
0.0846123
0.0802938
0.0744653
0.0721462
0.0708743
0.0745562
0.0893434
0.120169
0.21334
0.369242
0.510812
0.816311
1.09768
1.67459
1.87372
1.9257
1.93829
1.94113
13.7057
11.8098
10.611
9.24874
8.46402
7.55704
7.01274
6.34897
5.94693
5.45585
5.17207
4.84278
4.61324
4.27889
4.05112
3.73441
3.5242
3.23899
3.05182
2.80057
2.63651
2.41734
2.27447
2.08385
1.95929
1.79234
1.68101
1.52693
1.41064
1.22388
1.04961
0.956585
0.855462
0.793992
0.716896
0.668048
0.604663
0.564073
0.510919
0.47678
0.431961
0.403173
0.365395
0.341191
0.309539
0.28942
0.263387
0.247215
0.226936
0.215091
0.201172
0.191419
0.177153
0.16743
0.153906
0.144943
0.132803
0.124862
0.114245
0.10736
0.0982424
0.0924118
0.0848339
0.0802273
0.0747015
0.0722672
0.0712875
0.0754573
0.0908727
0.124837
0.217945
0.369575
0.521858
0.817064
1.11545
1.64982
1.86156
1.92198
1.93731
1.94084
13.6336
11.8328
10.6065
9.26981
8.46074
7.5702
7.00913
6.3584
5.94424
5.46336
5.17077
4.84627
4.6096
4.28257
4.04808
3.73813
3.52167
3.24243
3.04967
2.80363
2.63467
2.42001
2.27287
2.08617
1.95786
1.79427
1.67953
1.52816
1.40808
1.22435
1.05262
0.956436
0.856894
0.793492
0.717895
0.667566
0.605464
0.563653
0.511585
0.476421
0.432521
0.402871
0.36587
0.340941
0.309943
0.289222
0.263734
0.247081
0.227236
0.215026
0.201313
0.191258
0.177306
0.167297
0.154062
0.144833
0.132947
0.12477
0.114374
0.107284
0.0983566
0.0923529
0.0849386
0.0801995
0.0748157
0.0723316
0.0714961
0.0759097
0.091661
0.12714
0.220209
0.369881
0.527187
0.817689
1.12378
1.63796
1.85544
1.92007
1.9368
1.94069
-13.5965
-11.9106
-10.8496
-9.8406
-9.29851
-8.79745
-8.52077
-8.25103
-8.1014
-7.95372
-7.85197
-7.71738
-7.62259
-7.49914
-7.41303
-7.30183
-7.22449
-7.12484
-7.05567
-6.96677
-6.90523
-6.82638
-6.77197
-6.70247
-6.65452
-6.59319
-6.55018
-6.49353
-6.44894
-6.38126
-6.31872
-6.2842
-6.24925
-6.22737
-6.2018
-6.18506
-6.16478
-6.15135
-6.13493
-6.12401
-6.11062
-6.10172
-6.09081
-6.08357
-6.07473
-6.06893
-6.06192
-6.05744
-6.05222
-6.04909
-6.0457
-6.04334
-6.04023
-6.03819
-6.03578
-6.03441
-6.03311
-6.03273
-6.03303
-6.03407
-6.03669
-6.0399
-6.0462
-6.05305
-6.06582
-6.0797
-6.10599
-6.13722
-6.20144
-6.29497
-6.50644
-6.79989
-7.06218
-7.49876
-7.9155
-8.57832
-8.85738
-8.9402
-8.96163
-8.96661
-13.664
-11.8856
-10.8475
-9.82193
-9.29687
-8.78848
-8.52049
-8.24623
-8.10132
-7.95188
-7.85329
-7.71579
-7.62374
-7.49765
-7.41404
-7.30048
-7.22538
-7.12362
-7.05646
-6.96567
-6.90592
-6.82541
-6.77258
-6.70161
-6.65506
-6.59246
-6.55073
-6.49305
-6.44986
-6.38106
-6.31761
-6.28422
-6.24873
-6.22752
-6.20145
-6.1852
-6.16451
-6.15147
-6.13471
-6.12411
-6.11045
-6.1018
-6.09066
-6.08363
-6.07461
-6.06897
-6.06182
-6.05747
-6.05214
-6.0491
-6.04566
-6.04337
-6.04019
-6.03821
-6.03574
-6.0344
-6.03308
-6.0327
-6.033
-6.034
-6.03667
-6.03978
-6.04618
-6.05281
-6.06577
-6.0792
-6.10579
-6.1359
-6.20027
-6.29025
-6.50316
-6.80114
-7.0552
-7.49956
-7.90566
-8.59367
-8.86523
-8.94265
-8.96229
-8.96681
-13.8026
-11.831
-10.845
-9.78324
-9.29458
-8.7699
-8.52048
-8.23627
-8.10143
-7.94802
-7.85616
-7.71238
-7.62626
-7.49447
-7.41624
-7.29759
-7.22734
-7.12102
-7.0582
-6.96334
-6.90745
-6.82332
-6.77391
-6.69977
-6.65624
-6.59089
-6.55191
-6.492
-6.45181
-6.38064
-6.31528
-6.28433
-6.24764
-6.22786
-6.2007
-6.18552
-6.16393
-6.15174
-6.13424
-6.12433
-6.11007
-6.10198
-6.09035
-6.08378
-6.07436
-6.06908
-6.06161
-6.05754
-6.05196
-6.04913
-6.04557
-6.04344
-6.0401
-6.03824
-6.03565
-6.0344
-6.033
-6.03265
-6.03294
-6.03387
-6.03663
-6.03952
-6.04615
-6.05232
-6.06571
-6.07818
-6.10545
-6.13322
-6.19807
-6.28062
-6.49648
-6.80415
-7.04062
-7.50188
-7.88454
-8.62568
-8.88085
-8.94742
-8.96355
-8.9672
-14.02
-11.737
-10.8455
-9.72164
-9.29373
-8.74032
-8.52186
-8.22033
-8.1023
-7.9417
-7.86112
-7.70668
-7.6306
-7.48914
-7.42007
-7.29277
-7.23075
-7.11669
-7.06123
-6.95945
-6.91011
-6.81986
-6.77623
-6.69671
-6.6583
-6.58827
-6.55394
-6.49015
-6.45501
-6.37999
-6.31159
-6.28466
-6.24587
-6.2285
-6.19948
-6.1861
-6.16298
-6.15223
-6.13348
-6.12473
-6.10944
-6.10231
-6.08984
-6.08404
-6.07394
-6.06928
-6.06127
-6.05767
-6.05168
-6.04918
-6.04543
-6.04355
-6.03995
-6.03831
-6.03551
-6.0344
-6.03289
-6.03257
-6.03286
-6.03367
-6.03658
-6.03912
-6.04614
-6.05154
-6.06568
-6.07656
-6.10509
-6.12904
-6.19516
-6.26565
-6.48613
-6.81
-7.01705
-7.50735
-7.84908
-8.67713
-8.90401
-8.95421
-8.96531
-8.96772
-14.3288
-11.5873
-10.8553
-9.63221
-9.29791
-8.69734
-8.52657
-8.19706
-8.10486
-7.93219
-7.86904
-7.69785
-7.63757
-7.48092
-7.42623
-7.28535
-7.23625
-7.11001
-7.06611
-6.95347
-6.91441
-6.81453
-6.78
-6.69201
-6.66162
-6.58423
-6.55715
-6.48716
-6.45979
-6.37908
-6.30624
-6.28547
-6.24324
-6.22961
-6.19763
-6.18706
-6.16153
-6.15303
-6.13231
-6.12539
-6.10849
-6.10285
-6.08906
-6.08447
-6.0733
-6.06962
-6.06075
-6.0579
-6.05126
-6.04929
-6.04522
-6.04374
-6.03973
-6.03842
-6.03531
-6.03443
-6.03273
-6.03247
-6.03276
-6.03339
-6.03655
-6.03854
-6.04619
-6.05042
-6.06579
-6.07424
-6.10492
-6.12319
-6.19209
-6.24469
-6.47164
-6.82052
-6.98214
-7.51876
-7.79418
-8.75263
-8.93424
-8.96256
-8.96743
-8.96835
-14.7473
-11.3572
-10.8847
-9.50723
-9.31275
-8.63718
-8.53764
-8.1643
-8.11066
-7.9183
-7.88129
-7.68458
-7.64839
-7.46863
-7.43584
-7.27425
-7.24483
-7.10005
-7.07374
-6.94454
-6.92114
-6.80658
-6.7859
-6.68501
-6.66682
-6.57818
-6.56207
-6.48247
-6.46672
-6.37786
-6.2988
-6.28714
-6.23948
-6.23145
-6.19493
-6.18863
-6.1594
-6.15432
-6.13059
-6.12646
-6.10709
-6.10371
-6.08792
-6.08517
-6.07236
-6.07016
-6.05998
-6.05828
-6.05065
-6.04948
-6.0449
-6.04402
-6.0394
-6.03861
-6.03502
-6.03448
-6.03251
-6.03235
-6.03264
-6.03301
-6.03657
-6.03773
-6.04638
-6.04885
-6.06617
-6.07104
-6.10524
-6.1153
-6.18966
-6.21675
-6.45228
-6.83854
-6.93224
-7.54062
-7.71195
-8.8592
-8.9706
-8.97185
-8.9697
-8.96901
-15.3014
-11.0105
-10.9503
-9.33495
-9.34683
-8.55399
-8.55966
-8.11876
-8.122
-7.89819
-7.89993
-7.66489
-7.66497
-7.45046
-7.45061
-7.25787
-7.25803
-7.08534
-7.08548
-6.93139
-6.93152
-6.79489
-6.79501
-6.6747
-6.67485
-6.56922
-6.56954
-6.47522
-6.47657
-6.37624
-6.28867
-6.29026
-6.23413
-6.23444
-6.19102
-6.19112
-6.15631
-6.15637
-6.12809
-6.12813
-6.10505
-6.10508
-6.08625
-6.08627
-6.07101
-6.07102
-6.05889
-6.05889
-6.04979
-6.04981
-6.04444
-6.04446
-6.03892
-6.03891
-6.0346
-6.03459
-6.03222
-6.03221
-6.03252
-6.03249
-6.03669
-6.03662
-6.04682
-6.04668
-6.06705
-6.06666
-6.10653
-6.10485
-6.18912
-6.18047
-6.42688
-6.86826
-6.86175
-7.57997
-7.59068
-9.0072
-9.01137
-8.98128
-8.97191
-8.96965
-16.0271
-10.4946
-11.0782
-9.09758
-9.41312
-8.43886
-8.59955
-8.05546
-8.14244
-7.86908
-7.92804
-7.63581
-7.69012
-7.42371
-7.4731
-7.23378
-7.27815
-7.06373
-7.10341
-6.91207
-6.94737
-6.77773
-6.80894
-6.65958
-6.6871
-6.55603
-6.58079
-6.46415
-6.49049
-6.37412
-6.27498
-6.29568
-6.22652
-6.23917
-6.18537
-6.195
-6.15183
-6.15954
-6.12445
-6.13072
-6.10209
-6.1072
-6.08383
-6.08798
-6.06904
-6.07237
-6.0573
-6.05987
-6.04856
-6.05036
-6.04376
-6.04512
-6.03821
-6.03938
-6.03402
-6.0348
-6.03184
-6.03206
-6.03242
-6.03181
-6.03697
-6.03511
-6.04767
-6.0437
-6.06877
-6.06066
-6.10948
-6.09095
-6.1923
-6.13399
-6.39369
-6.91589
-6.76227
-7.64761
-7.41318
-9.2117
-9.0535
-8.98988
-8.97384
-8.97019
-16.9741
-9.73399
-11.3086
-8.76837
-9.531
-8.27834
-8.66764
-7.96692
-8.17729
-7.82667
-7.9702
-7.59287
-7.72812
-7.38433
-7.50714
-7.19834
-7.30862
-7.03195
-7.13057
-6.88369
-6.97142
-6.75253
-6.8301
-6.63738
-6.7057
-6.53661
-6.5977
-6.44736
-6.51012
-6.3713
-6.25649
-6.3047
-6.21564
-6.24657
-6.17719
-6.201
-6.14531
-6.16443
-6.11917
-6.13472
-6.09777
-6.11045
-6.08031
-6.09062
-6.06617
-6.07445
-6.05501
-6.06141
-6.0468
-6.05125
-6.04276
-6.04611
-6.03718
-6.04011
-6.03319
-6.03516
-6.03133
-6.0319
-6.03236
-6.0309
-6.03754
-6.03302
-6.04919
-6.03955
-6.07181
-6.0524
-6.11513
-6.07227
-6.20187
-6.07479
-6.35
-6.99056
-6.62123
-7.76005
-7.15436
-9.49447
-9.09186
-8.99658
-8.97527
-8.97059
-18.2107
-8.62078
-11.7036
-8.30702
-9.72947
-8.05212
-8.77931
-7.84191
-8.23456
-7.76448
-8.03319
-7.5294
-7.78526
-7.32628
-7.55843
-7.14613
-7.35455
-6.98515
-7.17154
-6.84191
-7.00773
-6.71547
-6.86206
-6.60474
-6.73379
-6.50798
-6.62306
-6.42204
-6.53781
-6.36753
-6.23148
-6.3192
-6.19996
-6.25797
-6.16527
-6.21017
-6.13579
-6.17189
-6.11145
-6.14081
-6.09147
-6.11542
-6.07517
-6.09464
-6.062
-6.07764
-6.05169
-6.06379
-6.04429
-6.05265
-6.04129
-6.04759
-6.03568
-6.04123
-6.032
-6.03575
-6.03065
-6.03174
-6.03237
-6.02967
-6.03855
-6.03009
-6.05173
-6.03373
-6.07691
-6.04084
-6.125
-6.04668
-6.22171
-5.9995
-6.29169
-7.10562
-6.41987
-7.94227
-6.77771
-9.88695
-9.11792
-9.00031
-8.97603
-8.97081
)
;

boundaryField
{
    F1_1
    {
        type            calculated;
        value           nonuniform List<scalar> 
80
(
18.9116
7.95356
11.9514
8.02299
9.85261
7.88906
8.84798
7.70148
8.27188
7.54008
7.88919
7.4791
7.74566
7.27863
7.54802
7.10381
7.35658
6.94824
7.17904
6.80982
7.01741
6.68764
6.87226
6.58067
6.74378
6.48718
6.63285
6.40384
6.54956
6.3627
6.21568
6.32575
6.18944
6.26303
6.15718
6.21425
6.12932
6.17523
6.1062
6.14355
6.0872
6.11768
6.07169
6.09648
6.05918
6.07909
6.04944
6.06485
6.04257
6.0532
6.04019
6.0482
6.03461
6.04168
6.03116
6.03592
6.03013
6.03151
6.0323
6.02883
6.03911
6.02828
6.05325
6.03023
6.08004
6.03402
6.13117
6.03178
6.23473
5.9573
6.25823
7.17521
6.30127
8.05457
6.5545
10.1153
9.12655
9.00131
8.97622
8.97085
)
;
    }
    F1_2
    {
        type            calculated;
        value           nonuniform List<scalar> 
80
(
-19.2431
-7.7954
-12.3708
-6.93213
-9.68756
-6.04154
-7.96016
-5.23001
-6.65646
-4.60127
-5.59903
-4.35103
-5.15791
-3.73559
-4.54926
-3.21601
-3.96507
-2.77119
-3.43725
-2.38814
-2.97159
-2.0576
-2.56546
-1.77166
-2.21401
-1.5223
-1.91516
-1.29845
-1.69408
-1.18793
-0.774816
-1.08497
-0.691181
-0.906528
-0.590076
-0.763126
-0.500293
-0.64441
-0.423398
-0.544688