/*--------------------------------*- C++ -*----------------------------------*\
| =========                 |                                                 |
| \\      /  F ield         | OpenFOAM: The Open Source CFD Toolbox           |
|  \\    /   O peration     | Version:  5.x                                   |
|   \\  /    A nd           | Web:      www.OpenFOAM.org                      |
|    \\/     M anipulation  |                                                 |
\*---------------------------------------------------------------------------*/
FoamFile
{
    version     2.0;
    format      ascii;
    class       volScalarField;
    location    "3.1";
    object      T;
}
// * * * * * * * * * * * * * * * * * * * * * * * * * * * * * * * * * * * * * //

dimensions      [0 0 0 1 0 0 0];

internalField   nonuniform List<scalar> 
3200
(
2.08807
2.43859
2.45858
2.60306
2.61221
2.68425
2.68905
2.73066
2.73351
2.75982
2.76157
2.77675
2.77808
2.79463
2.79598
2.81177
2.81304
2.82757
2.82872
2.84187
2.84291
2.85465
2.85558
2.86597
2.86678
2.87594
2.87667
2.88492
2.88565
2.8944
2.90209
2.90264
2.9076
2.90797
2.91177
2.91205
2.91508
2.91531
2.91778
2.91797
2.91998
2.92013
2.92177
2.92189
2.92322
2.92332
2.92438
2.92446
2.92525
2.9253
2.92578
2.92582
2.9263
2.92633
2.9267
2.92673
2.92693
2.92694
2.9269
2.92689
2.92651
2.92646
2.92555
2.92543
2.92361
2.92338
2.91977
2.91928
2.91136
2.90997
2.88751
2.84833
2.84396
2.78031
2.77281
2.65371
2.64876
2.64814
2.64801
2.64799
2.26317
2.53135
2.57312
2.68871
2.70822
2.76583
2.77605
2.80923
2.81529
2.8362
2.83992
2.85209
2.85493
2.86803
2.87088
2.88339
2.88607
2.89759
2.90003
2.91045
2.91265
2.92196
2.92392
2.93216
2.93389
2.94115
2.94269
2.94926
2.95082
2.95807
2.96453
2.96572
2.96968
2.97047
2.97348
2.97408
2.97649
2.97698
2.97893
2.97933
2.98092
2.98125
2.98255
2.98281
2.98386
2.98407
2.98491
2.98508
2.9857
2.98582
2.9862
2.98628
2.98666
2.98674
2.98703
2.98708
2.98724
2.98725
2.98723
2.98719
2.98689
2.98677
2.98605
2.9858
2.98435
2.98386
2.98096
2.97989
2.97345
2.97039
2.95076
2.91869
2.90935
2.85861
2.84281
2.75029
2.73986
2.73813
2.73777
2.73769
2.42753
2.63316
2.6847
2.77819
2.80271
2.84931
2.86214
2.88888
2.89648
2.91327
2.91794
2.92781
2.93136
2.94183
2.9454
2.9554
2.95875
2.96797
2.97103
2.97936
2.98212
2.98957
2.99201
2.9986
3.00077
3.00658
3.00852
3.0138
3.01577
3.02178
3.02718
3.02869
3.03189
3.03287
3.03529
3.03604
3.03797
3.03858
3.04015
3.04064
3.04192
3.04232
3.04337
3.04369
3.04454
3.0448
3.04547
3.04568
3.04618
3.04632
3.04663
3.04674
3.04704
3.04713
3.04736
3.04743
3.04755
3.04757
3.04755
3.0475
3.04726
3.04711
3.04653
3.04622
3.04505
3.04443
3.04208
3.04072
3.0354
3.03147
3.01451
2.98814
2.97639
2.93551
2.91589
2.8436
2.8306
2.82807
2.82752
2.8274
2.58368
2.74114
2.7946
2.87043
2.89631
2.93413
2.94767
2.96929
2.9773
2.99083
2.99574
3.00378
3.00752
3.01591
3.01966
3.02768
3.0312
3.03859
3.04181
3.0485
3.05139
3.05737
3.05994
3.06523
3.0675
3.07218
3.07421
3.07847
3.08056
3.0855
3.08999
3.09159
3.09418
3.09522
3.09716
3.09796
3.09951
3.10015
3.1014
3.10193
3.10295
3.10338
3.10421
3.10456
3.10524
3.10551
3.10605
3.10627
3.10667
3.10682
3.10707
3.10718
3.10742
3.10752
3.10771
3.10777
3.10787
3.10789
3.10787
3.10782
3.10763
3.10747
3.107
3.10668
3.10572
3.10507
3.10315
3.10171
3.09729
3.09307
3.07863
3.05701
3.04459
3.01156
2.99108
2.93453
2.92093
2.91793
2.91725
2.9171
2.73352
2.85328
2.90361
2.96468
2.98943
3.01993
3.03288
3.05025
3.0579
3.06873
3.07342
3.07992
3.0835
3.09018
3.09375
3.10014
3.10349
3.10939
3.11245
3.11778
3.12054
3.12531
3.12776
3.13198
3.13414
3.13787
3.13982
3.14323
3.14523
3.14924
3.15291
3.15445
3.15654
3.15753
3.15908
3.15984
3.16108
3.16169
3.16269
3.16319
3.16401
3.16441
3.16508
3.16541
3.16595
3.16621
3.16664
3.16685
3.16717
3.16731
3.16751
3.16762
3.16781
3.1679
3.16805
3.16812
3.1682
3.16821
3.1682
3.16815
3.16799
3.16785
3.16746
3.16715
3.16639
3.16576
3.16421
3.16282
3.15918
3.15508
3.14305
3.12551
3.11362
3.08711
3.06771
3.02374
3.01083
3.00769
3.00696
3.00679
2.87857
2.96819
3.01218
3.06037
3.08233
3.10643
3.11792
3.13159
3.13837
3.14687
3.15103
3.15618
3.15935
3.16457
3.16772
3.17272
3.17568
3.18029
3.183
3.18717
3.18961
3.19334
3.1955
3.19881
3.20072
3.20364
3.20536
3.20804
3.20982
3.213
3.21592
3.21729
3.21894
3.21981
3.22103
3.2217
3.22267
3.22321
3.224
3.22444
3.22508
3.22544
3.22596
3.22625
3.22667
3.22691
3.22724
3.22742
3.22768
3.2278
3.22796
3.22806
3.22821
3.22829
3.2284
3.22846
3.22852
3.22854
3.22852
3.22848
3.22836
3.22823
3.22793
3.22765
3.22704
3.22649
3.22525
3.22402
3.22108
3.2174
3.20768
3.19378
3.18324
3.16237
3.14532
3.11171
3.10034
3.09737
3.09664
3.09648
3.02004
3.08492
3.12059
3.15711
3.17513
3.19343
3.20286
3.21322
3.21877
3.22519
3.2286
3.23252
3.23511
3.23904
3.24162
3.24538
3.2478
3.25128
3.25349
3.25663
3.25862
3.26143
3.26321
3.26569
3.26726
3.26946
3.27087
3.2729
3.27435
3.27677
3.279
3.28012
3.28137
3.28209
3.28301
3.28356
3.28429
3.28473
3.28532
3.28568
3.28616
3.28646
3.28685
3.28709
3.28741
3.2876
3.28785
3.288
3.28819
3.28829
3.28841
3.28849
3.2886
3.28867
3.28876
3.2888
3.28885
3.28886
3.28885
3.28882
3.28872
3.28861
3.28839
3.28816
3.2877
3.28724
3.2863
3.28528
3.28302
3.27997
3.27248
3.26192
3.25326
3.23748
3.22359
3.19879
3.18951
3.18695
3.1863
3.18616
3.15891
3.20283
3.22897
3.2546
3.26793
3.28079
3.28777
3.29503
3.29913
3.30363
3.30615
3.30891
3.31083
3.31357
3.31547
3.3181
3.31988
3.32231
3.32394
3.32614
3.32761
3.32957
3.33088
3.33262
3.33377
3.33531
3.33635
3.33777
3.33885
3.34054
3.34211
3.34294
3.34382
3.34435
3.345
3.3454
3.34591
3.34624
3.34665
3.34692
3.34725
3.34747
3.34775
3.34792
3.34814
3.34829
3.34846
3.34857
3.3487
3.34878
3.34886
3.34892
3.349
3.34905
3.34911
3.34914
3.34918
3.34919
3.34918
3.34915
3.34909
3.34901
3.34885
3.34868
3.34836
3.34802
3.34736
3.3466
3.34499
3.34272
3.3374
3.32998
3.32358
3.31252
3.3023
3.28525
3.27842
3.27645
3.27595
3.27583
3.29602
3.32145
3.33736
3.35257
3.36074
3.36839
3.37266
3.37697
3.37948
3.38215
3.3837
3.38533
3.38651
3.38813
3.38929
3.39085
3.39194
3.39337
3.39437
3.39567
3.39657
3.39773
3.39853
3.39956
3.40027
3.40118
3.40181
3.40266
3.40332
3.40432
3.40526
3.40577
3.40629
3.40661
3.40699
3.40724
3.40754
3.40774
3.40799
3.40815
3.40835
3.40848
3.40865
3.40875
3.40889
3.40897
3.40908
3.40914
3.40922
3.40927
3.40932
3.40935
3.4094
3.40943
3.40947
3.40949
3.40951
3.40951
3.40951
3.40949
3.40945
3.4094
3.40931
3.40921
3.40901
3.40881
3.40841
3.40794
3.40698
3.40558
3.40241
3.398
3.39408
3.38752
3.38128
3.37131
3.36713
3.36589
3.36557
3.3655
3.43212
3.44044
3.44578
3.45083
3.45358
3.45611
3.45755
3.45898
3.45983
3.46071
3.46123
3.46178
3.46217
3.46271
3.4631
3.46361
3.46398
3.46446
3.46479
3.46522
3.46552
3.46591
3.46618
3.46652
3.46676
3.46706
3.46727
3.46755
3.46777
3.46811
3.46842
3.46859
3.46876
3.46887
3.469
3.46908
3.46918
3.46925
3.46933
3.46938
3.46945
3.46949
3.46955
3.46958
3.46963
3.46966
3.46969
3.46971
3.46974
3.46976
3.46977
3.46978
3.4698
3.46981
3.46982
3.46983
3.46984
3.46984
3.46984
3.46983
3.46982
3.4698
3.46977
3.46973
3.46967
3.4696
3.46947
3.46931
3.46899
3.46852
3.46746
3.466
3.46468
3.46251
3.46041
3.45713
3.45572
3.4553
3.45519
3.45517
3.43192
3.44081
3.44697
3.45363
3.4577
3.46213
3.46496
3.4682
3.47028
3.47267
3.47415
3.47576
3.47696
3.47858
3.47976
3.48131
3.48239
3.48378
3.48475
3.48598
3.48683
3.4879
3.48864
3.48957
3.49021
3.49103
3.4916
3.49236
3.49296
3.49388
3.49473
3.49522
3.49571
3.49603
3.49641
3.49666
3.49697
3.49718
3.49744
3.49762
3.49784
3.49799
3.49817
3.4983
3.49845
3.49855
3.49868
3.49876
3.49886
3.49892
3.49899
3.49904
3.49911
3.49916
3.49923
3.49928
3.49934
3.49938
3.49943
3.49946
3.49951
3.49954
3.49958
3.4996
3.49963
3.49964
3.49964
3.49962
3.49954
3.49936
3.4989
3.49815
3.49736
3.49591
3.49437
3.49182
3.49073
3.4904
3.49032
3.4903
3.29541
3.32254
3.3409
3.36098
3.37309
3.38646
3.39486
3.40464
3.41083
3.41806
3.42244
3.42731
3.43085
3.43577
3.43928
3.44393
3.44717
3.45137
3.45425
3.45795
3.46048
3.4637
3.46591
3.46871
3.47063
3.47309
3.47481
3.47708
3.47888
3.48164
3.48421
3.48565
3.48715
3.4881
3.48923
3.48999
3.49092
3.49154
3.49233
3.49285
3.49351
3.49396
3.49451
3.49489
3.49535
3.49566
3.49604
3.49629
3.49659
3.49677
3.49698
3.49713
3.49734
3.49749
3.49769
3.49783
3.49801
3.49813
3.49828
3.49839
3.49852
3.49861
3.49873
3.4988
3.49888
3.49892
3.49893
3.49886
3.49863
3.4981
3.4967
3.49445
3.4921
3.48773
3.48315
3.47541
3.47216
3.47119
3.47094
3.47089
3.15781
3.20461
3.23475
3.26865
3.28842
3.31099
3.3247
3.34122
3.35134
3.36356
3.37071
3.37891
3.38469
3.39301
3.39874
3.40662
3.41191
3.419
3.42372
3.42997
3.4341
3.43955
3.44315
3.44789
3.45103
3.45518
3.45798
3.46182
3.46475
3.4694
3.47374
3.47609
3.47861
3.48015
3.48207
3.4833
3.48488
3.4859
3.48722
3.48808
3.4892
3.48992
3.49086
3.49147
3.49226
3.49277
3.49341
3.49382
3.49432
3.49462
3.49497
3.49522
3.49557
3.49582
3.49615
3.49638
3.49668
3.49688
3.49714
3.49732
3.49754
3.49769
3.49788
3.49799
3.49813
3.49819
3.49822
3.49811
3.49772
3.49686
3.49454
3.49076
3.48692
3.47957
3.47206
3.45882
3.45349
3.45196
3.45156
3.45147
3.01834
3.08736
3.12846
3.17689
3.20364
3.23588
3.25444
3.27806
3.29177
3.30926
3.31893
3.33061
3.33843
3.35035
3.35812
3.3694
3.37658
3.38674
3.39312
3.40207
3.40767
3.41547
3.42035
3.42713
3.43138
3.43733
3.44112
3.4466
3.45056
3.45718
3.46335
3.46651
3.4701
3.4722
3.47494
3.4766
3.47886
3.48025
3.48214
3.4833
3.4849
3.48588
3.48723
3.48805
3.48918
3.48986
3.49079
3.49134
3.49207
3.49247
3.49296
3.4933
3.4938
3.49414
3.49462
3.49492
3.49536
3.49563
3.49601
3.49624
3.49657
3.49676
3.49703
3.49719
3.49739
3.49747
3.49751
3.49737
3.49684
3.49569
3.49243
3.48707
3.48188
3.47141
3.4612
3.44192
3.43468
3.43267
3.43217
3.43206
2.8761
2.97122
3.02187
3.08599
3.11864
3.16131
3.18397
3.21529
3.23205
3.25527
3.26708
3.28245
3.29201
3.30786
3.31736
3.33236
3.34112
3.35462
3.36242
3.37431
3.38115
3.39151
3.39747
3.40648
3.41167
3.41956
3.42419
3.43143
3.43625
3.44497
3.45307
3.45692
3.46165
3.46421
3.46785
3.46988
3.47288
3.47457
3.47708
3.4785
3.48062
3.48182
3.48361
3.48462
3.48611
3.48695
3.48818
3.48886
3.48982
3.49031
3.49096
3.49137
3.49205
3.49245
3.49309
3.49347
3.49404
3.49437
3.49487
3.49516
3.49559
3.49583
3.49619
3.49639
3.49665
3.49675
3.49681
3.49665
3.49598
3.4946
3.49041
3.48337
3.47705
3.46323
3.45069
3.42453
3.41565
3.41333
3.41277
3.41264
2.73006
2.85685
2.91474
2.99635
3.03324
3.08753
3.11315
3.1531
3.17206
3.20174
3.21508
3.23453
3.24533
3.26561
3.27638
3.29555
3.30548
3.32273
3.33156
3.34674
3.35448
3.36772
3.37446
3.38597
3.39185
3.40192
3.40716
3.41636
3.4218
3.43279
3.44297
3.44729
3.45329
3.45618
3.46082
3.46312
3.46694
3.46886
3.47207
3.47368
3.47638
3.47774
3.48002
3.48116
3.48308
3.48403
3.4856
3.48636
3.48759
3.48815
3.48897
3.48943
3.4903
3.49076
3.49158
3.492
3.49273
3.49311
3.49375
3.49407
3.49463
3.4949
3.49536
3.49558
3.49592
3.49604
3.49612
3.49594
3.49515
3.49363
3.48851
3.47964
3.47253
3.45501
3.44074
3.40645
3.39637
3.39392
3.39334
3.39321
2.57895
2.74525
2.80666
2.9085
2.94715
3.01491
3.04176
3.09175
3.11164
3.14886
3.16284
3.18696
3.19827
3.22375
3.23506
3.25912
3.26954
3.29117
3.30044
3.31947
3.3276
3.34419
3.35127
3.36569
3.37186
3.38447
3.38996
3.40145
3.40711
3.42064
3.4331
3.4376
3.44506
3.44808
3.45388
3.4563
3.46109
3.4631
3.46712
3.46881
3.4722
3.47362
3.47648
3.47768
3.48008
3.48107
3.48305
3.48385
3.48539
3.48597
3.487
3.48748
3.48856
3.48905
3.49007
3.49052
3.49144
3.49183
3.49264
3.49298
3.49367
3.49396
3.49454
3.49477
3.49519
3.49532
3.49544
3.49526
3.49435
3.4928
3.48675
3.47584
3.46842
3.44666
3.43158
3.3874
3.37678
3.37443
3.3739
3.37378
2.42118
2.63783
2.69696
2.82318
2.85988
2.94392
2.96944
3.03161
3.05054
3.09691
3.11019
3.1399
3.15064
3.18246
3.19323
3.22323
3.23316
3.2601
3.26893
3.29264
3.30038
3.32105
3.32778
3.34574
3.35161
3.3673
3.37253
3.38676
3.39212
3.40853
3.42354
3.42778
3.437
3.43987
3.44708
3.44938
3.45534
3.45725
3.46226
3.46387
3.46809
3.46945
3.47301
3.47415
3.47713
3.47808
3.48054
3.4813
3.48323
3.48378
3.48504
3.4855
3.48686
3.48732
3.4886
3.48902
3.49017
3.49054
3.49155
3.49187
3.49273
3.49301
3.49373
3.49394
3.49448
3.4946
3.49477
3.49461
3.49357
3.49215
3.48519
3.4719
3.46488
3.43804
3.42359
3.36702
3.35685
3.35487
3.35444
3.35435
2.25475
2.53671
2.58458
2.74143
2.77073
2.87526
2.89565
2.97319
2.98833
3.04628
3.05688
3.09359
3.10216
3.14201
3.15063
3.18815
3.19609
3.22976
3.23683
3.26645
3.27263
3.29845
3.30384
3.32627
3.33097
3.35056
3.35473
3.37243
3.37668
3.39648
3.41442
3.41777
3.42919
3.43148
3.44048
3.44232
3.44976
3.45129
3.45754
3.45882
3.4641
3.46518
3.46963
3.47054
3.47427
3.47503
3.4781
3.47871
3.48112
3.48156
3.48312
3.48348
3.48518
3.48555
3.48715
3.48749
3.48893
3.48923
3.49048
3.49074
3.49182
3.49204
3.49294
3.49311
3.49379
3.49389
3.49412
3.494
3.49281
3.49172
3.48388
3.46772
3.46213
3.42893
3.41729
3.34477
3.3366
3.33525
3.33497
3.33491
2.07704
2.44496
2.46783
2.66478
2.67856
2.80998
2.81957
2.91727
2.9244
2.99754
3.00253
3.0484
3.05244
3.1028
3.10687
3.15424
3.15799
3.20048
3.20381
3.24119
3.2441
3.27668
3.27921
3.30751
3.30973
3.33442
3.33639
3.35863
3.36061
3.3845
3.40588
3.40743
3.42175
3.42283
3.43416
3.43502
3.44441
3.44513
3.45301
3.45362
3.46027
3.46078
3.46639
3.46682
3.47152
3.47188
3.47576
3.47605
3.47909
3.4793
3.48124
3.48141
3.48356
3.48374
3.48576
3.48592
3.48773
3.48787
3.48945
3.48958
3.49093
3.49104
3.49217
3.49226
3.49312
3.49316
3.49348
3.49342
3.49204
3.49156
3.4829
3.4631
3.4605
3.41895
3.41342
3.31995
3.31608
3.31559
3.31549
3.31547
2.07703
2.44495
2.46783
2.66477
2.67855
2.80997
2.81956
2.91726
2.9244
2.99753
3.00252
3.0484
3.05243
3.10279
3.10686
3.15424
3.15798
3.20048
3.20381
3.24118
3.2441
3.27667
3.27921
3.30751
3.30972
3.33442
3.33638
3.35863
3.36061
3.3845
3.40588
3.40743
3.42175
3.42283
3.43416
3.43502
3.44441
3.44513
3.45301
3.45362
3.46027
3.46078
3.46639
3.46682
3.47152
3.47188
3.47576
3.47605
3.47909
3.47929
3.48124
3.48141
3.48356
3.48374
3.48576
3.48592
3.48773
3.48787
3.48945
3.48957
3.49093
3.49104
3.49217
3.49226
3.49312
3.49316
3.49348
3.49342
3.49204
3.49156
3.4829
3.46311
3.4605
3.41896
3.41343
3.31997
3.3161
3.31561
3.31551
3.31549
2.25475
2.53671
2.58457
2.74142
2.77072
2.87526
2.89564
2.97319
2.98832
3.04627
3.05688
3.09358
3.10216
3.142
3.15062
3.18814
3.19608
3.22976
3.23682
3.26644
3.27263
3.29845
3.30384
3.32627
3.33096
3.35055
3.35472
3.37243
3.37667
3.39648
3.41442
3.41777
3.42919
3.43148
3.44048
3.44231
3.44975
3.45128
3.45753
3.45882
3.46409
3.46518
3.46963
3.47054
3.47427
3.47503
3.4781
3.47871
3.48112
3.48156
3.48312
3.48348
3.48518
3.48555
3.48715
3.48749
3.48893
3.48923
3.49048
3.49074
3.49181
3.49204
3.49293
3.49311
3.49379
3.49389
3.49412
3.494
3.49281
3.49172
3.48388
3.46772
3.46214
3.42893
3.4173
3.34479
3.33662
3.33527
3.33499
3.33493
2.42118
2.63783
2.69696
2.82317
2.85988
2.94391
2.96943
3.0316
3.05053
3.0969
3.11019
3.13989
3.15063
3.18246
3.19323
3.22323
3.23315
3.2601
3.26893
3.29264
3.30037
3.32104
3.32778
3.34574
3.35161
3.3673
3.37252
3.38676
3.39211
3.40853
3.42354
3.42778
3.437
3.43987
3.44708
3.44938
3.45534
3.45725
3.46226
3.46387
3.46809
3.46945
3.47301
3.47415
3.47713
3.47808
3.48054
3.4813
3.48323
3.48378
3.48504
3.4855
3.48686
3.48731
3.4886
3.48902
3.49017
3.49054
3.49154
3.49187
3.49273
3.49301
3.49373
3.49394
3.49448
3.4946
3.49477
3.49461
3.49357
3.49215
3.48519
3.47191
3.46488
3.43805
3.4236
3.36703
3.35687
3.35489
3.35446
3.35437
2.57895
2.74524
2.80666
2.9085
2.94714
3.0149
3.04175
3.09175
3.11164
3.14886
3.16284
3.18696
3.19826
3.22375
3.23506
3.25912
3.26954
3.29117
3.30044
3.31947
3.3276
3.34419
3.35127
3.36569
3.37186
3.38447
3.38996
3.40144
3.40711
3.42064
3.4331
3.4376
3.44506
3.44808
3.45388
3.4563
3.46109
3.4631
3.46712
3.46881
3.4722
3.47362
3.47648
3.47768
3.48008
3.48107
3.48305
3.48385
3.48539
3.48597
3.48699
3.48748
3.48856
3.48905
3.49007
3.49052
3.49144
3.49183
3.49264
3.49298
3.49367
3.49396
3.49454
3.49477
3.49519
3.49532
3.49544
3.49526
3.49435
3.4928
3.48675
3.47584
3.46842
3.44667
3.43159
3.38742
3.37679
3.37445
3.37392
3.3738
2.73006
2.85685
2.91474
2.99635
3.03324
3.08753
3.11315
3.1531
3.17206
3.20174
3.21508
3.23453
3.24532
3.26561
3.27638
3.29555
3.30548
3.32272
3.33156
3.34674
3.35448
3.36772
3.37446
3.38597
3.39185
3.40191
3.40715
3.41636
3.42179
3.43279
3.44297
3.44729
3.45329
3.45618
3.46082
3.46312
3.46694
3.46886
3.47207
3.47368
3.47638
3.47774
3.48002
3.48116
3.48308
3.48403
3.4856
3.48636
3.48759
3.48815
3.48897
3.48943
3.4903
3.49076
3.49157
3.492
3.49273
3.49311
3.49375
3.49407
3.49463
3.4949
3.49536
3.49558
3.49592
3.49604
3.49612
3.49594
3.49515
3.49363
3.48851
3.47964
3.47253
3.45502
3.44075
3.40646
3.39638
3.39393
3.39336
3.39323
2.8761
2.97121
3.02187
3.08599
3.11864
3.1613
3.18396
3.21529
3.23204
3.25527
3.26708
3.28245
3.292
3.30785
3.31736
3.33235
3.34112
3.35462
3.36242
3.3743
3.38114
3.39151
3.39746
3.40648
3.41167
3.41955
3.42419
3.43143
3.43625
3.44497
3.45307
3.45692
3.46165
3.46421
3.46785
3.46988
3.47288
3.47457
3.47708
3.4785
3.48062
3.48182
3.48361
3.48462
3.48611
3.48695
3.48818
3.48886
3.48982
3.49031
3.49096
3.49137
3.49204
3.49245
3.49309
3.49347
3.49404
3.49437
3.49487
3.49516
3.49559
3.49583
3.49619
3.49639
3.49665
3.49675
3.49681
3.49665
3.49598
3.4946
3.49041
3.48337
3.47706
3.46324
3.4507
3.42454
3.41566
3.41334
3.41278
3.41265
3.01833
3.08736
3.12846
3.17689
3.20364
3.23587
3.25444
3.27805
3.29177
3.30926
3.31893
3.3306
3.33843
3.35035
3.35812
3.3694
3.37658
3.38673
3.39312
3.40207
3.40767
3.41547
3.42035
3.42713
3.43138
3.43732
3.44112
3.4466
3.45055
3.45718
3.46335
3.46651
3.4701
3.47219
3.47494
3.4766
3.47886
3.48024
3.48214
3.4833
3.4849
3.48588
3.48722
3.48805
3.48918
3.48986
3.49079
3.49134
3.49207
3.49247
3.49296
3.4933
3.4938
3.49414
3.49462
3.49492
3.49536
3.49563
3.49601
3.49624
3.49656
3.49676
3.49703
3.49719
3.49739
3.49747
3.49751
3.49737
3.49684
3.49569
3.49243
3.48707
3.48188
3.47141
3.4612
3.44192
3.43469
3.43268
3.43218
3.43207
3.15781
3.20461
3.23475
3.26865
3.28842
3.31099
3.3247
3.34122
3.35134
3.36356
3.37071
3.37891
3.38469
3.393
3.39874
3.40662
3.41191
3.419
3.42372
3.42997
3.4341
3.43955
3.44315
3.44789
3.45103
3.45518
3.45798
3.46182
3.46475
3.4694
3.47374
3.47609
3.4786
3.48015
3.48207
3.4833
3.48488
3.4859
3.48722
3.48808
3.4892
3.48992
3.49086
3.49147
3.49226
3.49277
3.49341
3.49382
3.49432
3.49462
3.49497
3.49522
3.49557
3.49582
3.49615
3.49638
3.49668
3.49688
3.49714
3.49732
3.49754
3.49769
3.49788
3.49799
3.49813
3.49819
3.49822
3.49811
3.49772
3.49686
3.49454
3.49076
3.48692
3.47957
3.47206
3.45883
3.4535
3.45196
3.45157
3.45148
3.29541
3.32254
3.3409
3.36098
3.37309
3.38646
3.39486
3.40464
3.41083
3.41806
3.42244
3.42731
3.43085
3.43577
3.43928
3.44393
3.44717
3.45137
3.45425
3.45795
3.46048
3.4637
3.46591
3.46871
3.47063
3.47309
3.47481
3.47708
3.47888
3.48164
3.48421
3.48565
3.48715
3.4881
3.48923
3.48999
3.49092
3.49154
3.49233
3.49285
3.49351
3.49396
3.49451
3.49489
3.49535
3.49566
3.49604
3.49629
3.49659
3.49677
3.49698
3.49713
3.49734
3.49749
3.49769
3.49783
3.49801
3.49813
3.49828
3.49839
3.49852
3.49861
3.49873
3.4988
3.49888
3.49892
3.49893
3.49886
3.49863
3.4981
3.4967
3.49445
3.4921
3.48774
3.48315
3.47542
3.47216
3.4712
3.47095
3.47089
3.43192
3.44081
3.44697
3.45363
3.4577
3.46213
3.46496
3.4682
3.47028
3.47267
3.47415
3.47576
3.47696
3.47858
3.47976
3.4813
3.48239
3.48378
3.48475
3.48598
3.48683
3.4879
3.48864
3.48957
3.49021
3.49103
3.4916
3.49236
3.49296
3.49388
3.49473
3.49522
3.49571
3.49603
3.49641
3.49666
3.49697
3.49718
3.49744
3.49762
3.49784
3.49799
3.49817
3.4983
3.49845
3.49855
3.49868
3.49876
3.49886
3.49892
3.49899
3.49904
3.49911
3.49916
3.49923
3.49928
3.49934
3.49938
3.49943
3.49946
3.49951
3.49954
3.49958
3.4996
3.49963
3.49964
3.49964
3.49962
3.49954
3.49936
3.4989
3.49815
3.49736
3.49591
3.49437
3.49182
3.49073
3.4904
3.49032
3.4903
3.4321
3.44042
3.44575
3.45077
3.45351
3.456
3.4574
3.45874
3.45949
3.46023
3.46074
3.46141
3.46189
3.4625
3.46294
3.46349
3.46388
3.46437
3.46472
3.46516
3.46547
3.46587
3.46614
3.46649
3.46673
3.46703
3.46725
3.46753
3.46776
3.46809
3.46841
3.46858
3.46875
3.46886
3.46899
3.46907
3.46918
3.46924
3.46933
3.46938
3.46945
3.46949
3.46955
3.46958
3.46963
3.46966
3.46969
3.46971
3.46974
3.46975
3.46977
3.46978
3.4698
3.46981
3.46982
3.46983
3.46983
3.46984
3.46983
3.46983
3.46982
3.4698
3.46977
3.46973
3.46967
3.4696
3.46947
3.46931
3.46899
3.46852
3.46746
3.466
3.46468
3.46251
3.46041
3.45713
3.45572
3.4553
3.45519
3.45517
3.29597
3.32137
3.33726
3.35241
3.36052
3.36805
3.37219
3.37624
3.37848
3.3807
3.38222
3.38424
3.38566
3.38751
3.3888
3.39047
3.39163
3.39313
3.39416
3.3955
3.39642
3.39761
3.39842
3.39946
3.40018
3.4011
3.40175
3.4026
3.40326
3.40428
3.40522
3.40574
3.40626
3.40659
3.40697
3.40722
3.40753
3.40773
3.40798
3.40814
3.40834
3.40847
3.40864
3.40875
3.40888
3.40897
3.40907
3.40914
3.40922
3.40926
3.40931
3.40935
3.4094
3.40943
3.40946
3.40948
3.4095
3.40951
3.4095
3.40949
3.40945
3.4094
3.40931
3.4092
3.40901
3.40881
3.40841
3.40794
3.40698
3.40558
3.40241
3.398
3.39408
3.38752
3.38128
3.37131
3.36713
3.36589
3.36557
3.3655
3.15882
3.20271
3.2288
3.25434
3.26757
3.28023
3.28699
3.29381
3.29747
3.30119
3.30368
3.3071
3.30941
3.31255
3.31466
3.31748
3.31937
3.3219
3.32359
3.32585
3.32736
3.32936
3.33069
3.33245
3.33363
3.33518
3.33624
3.33767
3.33876
3.34047
3.34205
3.34289
3.34378
3.34431
3.34496
3.34537
3.34589
3.34621
3.34663
3.3469
3.34724
3.34746
3.34773
3.34791
3.34813
3.34828
3.34845
3.34856
3.3487
3.34877
3.34886
3.34892
3.34899
3.34904
3.34911
3.34914
3.34917
3.34918
3.34917
3.34915
3.34908
3.349
3.34885
3.34868
3.34836
3.34802
3.34735
3.34659
3.34499
3.34271
3.3374
3.32998
3.32358
3.31252
3.3023
3.28525
3.27842
3.27645
3.27595
3.27583
3.01992
3.08475
3.12036
3.15675
3.17463
3.19265
3.20178
3.21152
3.21645
3.22174
3.2251
3.22999
3.23313
3.23763
3.24048
3.24452
3.24708
3.25071
3.253
3.25623
3.25827
3.26114
3.26294
3.26547
3.26706
3.26929
3.27071
3.27276
3.27423
3.27667
3.27891
3.28005
3.28131
3.28203
3.28296
3.28351
3.28425
3.28469
3.28529
3.28565
3.28614
3.28643
3.28683
3.28707
3.28739
3.28758
3.28784
3.28799
3.28818
3.28828
3.2884
3.28848
3.28859
3.28866
3.28875
3.2888
3.28884
3.28886
3.28885
3.28881
3.28872
3.28861
3.28838
3.28816
3.2877
3.28724
3.2863
3.28528
3.28302
3.27997
3.27248
3.26192
3.25326
3.23748
3.22359
3.19879
3.18951
3.18695
3.1863
3.18616
2.87842
2.96797
3.01189
3.0599
3.08169
3.10543
3.11655
3.12941
3.13542
3.14236
3.14645
3.15296
3.1568
3.16277
3.16625
3.17162
3.17476
3.17957
3.18237
3.18666
3.18915
3.19296
3.19516
3.19852
3.20046
3.20342
3.20516
3.20787
3.20966
3.21287
3.21582
3.2172
3.21886
3.21974
3.22097
3.22165
3.22263
3.22317
3.22396
3.2244
3.22505
3.22541
3.22594
3.22623
3.22666
3.22689
3.22723
3.22741
3.22766
3.22779
3.22795
3.22804
3.2282
3.22828
3.2284
3.22845
3.22852
3.22853
3.22852
3.22848
3.22835
3.22822
3.22792
3.22765
3.22704
3.22649
3.22525
3.22401
3.22108
3.2174
3.20768
3.19378
3.18324
3.16237
3.14532
3.11171
3.10034
3.09736
3.09664
3.09648
2.73334
2.85301
2.90325
2.96411
2.98868
3.0187
3.03125
3.04757
3.05435
3.06309
3.06771
3.07604
3.08038
3.08801
3.09195
3.09882
3.10236
3.10851
3.11168
3.11716
3.11998
3.12485
3.12734
3.13163
3.13382
3.1376
3.13957
3.14301
3.14503
3.14909
3.15279
3.15434
3.15644
3.15744
3.15901
3.15977
3.16102
3.16163
3.16265
3.16315
3.16397
3.16438
3.16505
3.16538
3.16593
3.16619
3.16662
3.16683
3.16715
3.1673
3.1675
3.16761
3.1678
3.16789
3.16804
3.16811
3.16819
3.16821
3.16819
3.16814
3.16799
3.16784
3.16746
3.16715
3.16638
3.16576
3.1642
3.16282
3.15918
3.15508
3.14304
3.12551
3.11362
3.0871
3.06771
3.02374
3.01083
3.00769
3.00696
3.00679
2.58347
2.74082
2.79419
2.86976
2.89544
2.93268
2.9458
2.96612
2.97321
2.98399
2.98883
2.99927
3.00383
3.01339
3.01754
3.02614
3.02986
3.03757
3.04089
3.04777
3.05073
3.05683
3.05945
3.06482
3.06712
3.07186
3.07391
3.07822
3.08032
3.08532
3.08985
3.09146
3.09407
3.09511
3.09707
3.09788
3.09944
3.10008
3.10135
3.10187
3.10291
3.10333
3.10418
3.10453
3.10521
3.10549
3.10603
3.10624
3.10665
3.1068
3.10705
3.10716
3.10741
3.10751
3.1077
3.10776
3.10786
3.10788
3.10786
3.10782
3.10762
3.10747
3.107
3.10667
3.10572
3.10506
3.10315
3.10171
3.09729
3.09307
3.07863
3.05701
3.04459
3.01156
2.99108
2.93453
2.92093
2.91793
2.91725
2.9171
2.42731
2.6328
2.68425
2.77741
2.80174
2.84762
2.86005
2.8852
2.89191
2.90513
2.90972
2.92274
2.92708
2.939
2.94294
2.95366
2.9572
2.9668
2.96997
2.97854
2.98135
2.98895
2.99144
2.99813
3.00033
3.00622
3.00817
3.01351
3.0155
3.02156
3.02702
3.02854
3.03176
3.03275
3.03519
3.03595
3.03789
3.03851
3.04008
3.04058
3.04187
3.04228
3.04332
3.04366
3.04451
3.04477
3.04545
3.04565
3.04616
3.0463
3.04661
3.04672
3.04702
3.04712
3.04735
3.04742
3.04754
3.04756
3.04754
3.04749
3.04725
3.04711
3.04652
3.04622
3.04504
3.04442
3.04207
3.04072
3.03539
3.03147
3.01451
2.98814
2.97639
2.93551
2.91589
2.8436
2.8306
2.82807
2.82752
2.8274
2.26293
2.53093
2.57263
2.68781
2.70718
2.7639
2.7738
2.80501
2.81036
2.82661
2.83027
2.84655
2.85003
2.86492
2.86808
2.88146
2.8843
2.89629
2.89883
2.90953
2.91178
2.92128
2.92327
2.93163
2.93338
2.94073
2.9423
2.94894
2.95051
2.95783
2.96435
2.96554
2.96954
2.97033
2.97337
2.97398
2.9764
2.97689
2.97886
2.97926
2.98087
2.98119
2.9825
2.98277
2.98383
2.98404
2.98488
2.98505
2.98568
2.98579
2.98618
2.98626
2.98664
2.98672
2.98702
2.98707
2.98723
2.98724
2.98722
2.98718
2.98688
2.98677
2.98604
2.9858
2.98434
2.98385
2.98096
2.97989
2.97344
2.97039
2.95076
2.91869
2.90935
2.8586
2.84281
2.75029
2.73986
2.73813
2.73777
2.73769
2.08783
2.43812
2.45807
2.60204
2.61112
2.68206
2.6867
2.72586
2.72837
2.7486
2.75031
2.77088
2.77252
2.79131
2.7928
2.80969
2.81103
2.82616
2.82736
2.84086
2.84192
2.8539
2.85484
2.86539
2.86621
2.87548
2.87622
2.88456
2.8853
2.89414
2.90189
2.90244
2.90745
2.90782
2.91164
2.91193
2.91499
2.91522
2.9177
2.91789
2.91991
2.92007
2.92172
2.92184
2.92318
2.92328
2.92435
2.92442
2.92522
2.92527
2.92575
2.9258
2.92628
2.92631
2.92669
2.92671
2.92692
2.92692
2.92689
2.92688
2.9265
2.92645
2.92554
2.92543
2.92361
2.92338
2.91977
2.91927
2.91136
2.90997
2.88751
2.84833
2.84396
2.7803
2.7728
2.65371
2.64876
2.64814
2.64801
2.64798
)
;

boundaryField
{
    F1_1
    {
        type            fixedValue;
        value           nonuniform List<scalar> 
80
(
1.99351
2.39882
2.39882
2.56294
2.56294
2.6448
2.6448
2.69215
2.69215
2.72212
2.72212
2.73935
2.73935
2.75824
2.75824
2.77625
2.77625
2.79283
2.79283
2.80782
2.80782
2.82121
2.82121
2.83306
2.83306
2.8435
2.8435
2.8529
2.8529
2.86259
2.87101
2.87101
2.87666
2.87666
2.88098
2.88098
2.88444
2.88444
2.88725
2.88725
2.88954
2.88954
2.89141
2.89141
2.89293
2.89293
2.89413
2.89413
2.89503
2.89503
2.89558
2.89558
2.89612
2.89612
2.89655
2.89655
2.89678
2.89678
2.89674
2.89674
2.89631
2.89631
2.89528
2.89528
2.89321
2.89321
2.88912
2.88912
2.88019
2.88019
2.85622
2.81246
2.81246
2.74003
2.74003
2.60313
2.60313
2.60313
2.60313
2.60313
)
;
    }
    F1_2
    {
        type            fixedValue;
        value           nonuniform List<scalar> 
80
(
1.9808
2.40596
2.40596
2.6301
2.6301
2.77975
2.77975
2.8911
2.8911
2.97452
2.97452
3.02663
3.02663
3.0841
3.0841
3.13815
3.13815
3.18661
3.18661
3.22923
3.22923
3.26637
3.26637
3.29864
3.29864
3.3268
3.3268
3.35213
3.35213
3.37855
3.402
3.402
3.41829
3.41829
3.4312
3.4312
3.4419
3.4419
3.45089
3.45089
3.45847
3.45847
3.46487
3.46487
3.47023
3.47023
3.47466
3.47466
3.47812
3.47812
3.48033
3.48033
3.48279
3.48279
3.4851
3.4851
3.48716
3.48716
3.48897
3.48897
3.49052
3.49052
3.49181
3.49181
3.4928
3.4928
3.49316
3.49316
3.49164
3.49164
3.48264
3.46045
3.46045
3.41324
3.41324
3.30575
3.30575
3.30575
3.30575
3.30575
)
;
    }
    F1_3
    {
        type            fixedValue;
        value           nonuniform List<scalar> 
80
(
1.9808
2.40596
2.40596
2.6301
2.6301
2.77975
2.77975
2.8911
2.8911
2.97451
2.97451
3.02663
3.02663
3.0841
3.0841
3.13814
3.13814
3.18661
3.18661
3.22923
3.22923
3.26637
3.26637
3.29864
3.29864
3.3268
3.3268
3.35213
3.35213
3.37855
3.40199
3.40199
3.41829
3.41829
3.4312
3.4312
3.4419
3.4419
3.45089
3.45089
3.45847
3.45847
3.46487
3.46487
3.47023
3.47023
3.47466
3.47466
3.47812
3.47812
3.48033
3.48033
3.48279
3.48279
3.4851
3.4851
3.48716
3.48716
3.48897
3.48897
3.49052
3.49052
3.49181
3.49181
3.49279
3.49279
3.49316
3.49316
3.49164
3.49164
3.48264
3.46046
3.46046
3.41325
3.41325
3.30578
3.30578
3.30578
3.30578
3.30578
)
;
    }
    F1_4
    {
        type            fixedValue;
        value           nonuniform List<scalar> 
80
(
1.99327
2.39831
2.39831
2.56185
2.56185
2.64246
2.64246
2.68701
2.68701
2.70995
2.70995
2.73342
2.73342
2.75485
2.75485
2.77411
2.77411
2.79137
2.79137
2.80678
2.80678
2.82043
2.82043
2.83246
2.83246
2.84303
2.84303
2.85253
2.85253
2.86231
2.8708
2.8708
2.87649
2.87649
2.88085
2.88085
2.88434
2.88434
2.88717
2.88717
2.88947
2.88947
2.89136
2.89136
2.89288
2.89288
2.8941
2.8941
2.89501
2.89501
2.89555
2.89555
2.8961
2.8961
2.89653
2.89653
2.89677
2.89677
2.89673
2.89673
2.89631
2.89631
2.89527
2.89527
2.89321
2.89321
2.88911
2.88911
2.88018
2.88018
2.85622
2.81245
2.81245
2.74003
2.74003
2.60313
2.60313
2.60313
2.60313
2.60313
)
;
    }
    F2_1
    {
        type            fixedValue;
        value           uniform 3.5;
    }
    F2_2
    {
        type            fixedValue;
        value           uniform 3.5;
    }
    F2_3
    {
        type            fixedValue;
        value           uniform 3.5;
    }
    F2_4
    {
        type            fixedValue;
        value           uniform 3.5;
    }
    defaultFaces
    {
        type            empty;
    }
}


// ************************************************************************* //
