/*--------------------------------*- C++ -*----------------------------------*\
| =========                 |                                                 |
| \\      /  F ield         | OpenFOAM: The Open Source CFD Toolbox           |
|  \\    /   O peration     | Version:  5.x                                   |
|   \\  /    A nd           | Web:      www.OpenFOAM.org                      |
|    \\/     M anipulation  |                                                 |
\*---------------------------------------------------------------------------*/
FoamFile
{
    version     2.0;
    format      ascii;
    class       volScalarField;
    location    "9.2";
    object      gradTy;
}
// * * * * * * * * * * * * * * * * * * * * * * * * * * * * * * * * * * * * * //

dimensions      [0 -1 0 1 0 0 0];

internalField   nonuniform List<scalar> 
3200
(
18.2484
8.6356
11.7295
8.3122
9.74955
8.03963
8.79379
7.79258
8.24147
7.60064
7.87604
7.51716
7.72762
7.3173
7.52954
7.13929
7.33845
6.97991
7.16167
6.83778
7.00109
6.71218
6.85724
6.60215
6.73014
6.50602
6.62026
6.42067
6.53562
6.36654
6.23144
6.31856
6.20013
6.25776
6.16566
6.21028
6.13634
6.17223
6.11214
6.14132
6.09232
6.11609
6.07619
6.09547
6.06322
6.07864
6.05311
6.06499
6.04591
6.05408
6.04302
6.04915
6.03761
6.04298
6.03408
6.03768
6.03281
6.03382
6.03452
6.03183
6.04061
6.03226
6.05363
6.0358
6.0786
6.04273
6.12649
6.0483
6.22313
6.0007
6.29312
7.10894
6.42159
7.94783
6.78063
9.89662
9.12591
9.00805
8.98372
8.97848
17.0089
9.75151
11.3319
8.77619
9.54681
8.26982
8.67358
7.92512
8.16431
7.68485
7.8319
7.56402
7.67618
7.36878
7.4809
7.18856
7.29386
7.0253
7.12144
6.87885
6.96524
6.74886
6.82561
6.63456
6.70231
6.53449
6.59513
6.44586
6.50818
6.37034
6.25632
6.30419
6.21574
6.24647
6.17753
6.20119
6.14583
6.16484
6.11985
6.1353
6.09861
6.11119
6.08131
6.09151
6.06736
6.07553
6.05641
6.06269
6.04839
6.05273
6.04448
6.04773
6.03909
6.04191
6.03524
6.03714
6.03348
6.034
6.03452
6.03307
6.03963
6.03516
6.05113
6.04158
6.07355
6.05425
6.11668
6.07388
6.20334
6.07611
6.35161
6.99363
6.62345
7.76514
7.15807
9.50324
9.09975
9.00427
8.98291
8.97823
16.0596
10.5139
11.0997
9.10707
9.42591
8.43273
8.5994
8.01811
8.11585
7.74395
7.8043
7.59563
7.64147
7.40344
7.44839
7.22188
7.26418
7.05606
7.09472
6.90672
6.94146
6.77376
6.80465
6.65658
6.68387
6.55379
6.57836
6.46255
6.4887
6.37314
6.27469
6.29525
6.22656
6.23913
6.18567
6.19524
6.15232
6.15999
6.12511
6.13134
6.1029
6.10797
6.08481
6.08892
6.0702
6.07348
6.05867
6.06119
6.05012
6.05188
6.04546
6.04678
6.04009
6.04121
6.03605
6.0368
6.03397
6.03417
6.03458
6.03397
6.03907
6.03723
6.04964
6.0457
6.07055
6.06249
6.11107
6.09257
6.1938
6.13541
6.39544
6.91881
6.76484
7.65241
7.41744
9.21986
9.06132
8.99755
8.98148
8.97782
15.3321
11.0309
10.9707
9.34549
9.3575
8.54925
8.55514
8.08393
8.08618
7.78576
7.78746
7.61705
7.61811
7.42677
7.42674
7.24444
7.24451
7.07695
7.07706
6.92567
6.92578
6.79073
6.79084
6.67158
6.67172
6.56689
6.5672
6.47355
6.4749
6.37527
6.2883
6.28988
6.23413
6.23444
6.1913
6.19139
6.15679
6.15685
6.12874
6.12877
6.10585
6.10588
6.08721
6.08724
6.07215
6.07217
6.06023
6.06024
6.05133
6.05136
6.04613
6.04615
6.04078
6.04077
6.03662
6.03661
6.03435
6.03433
6.03468
6.03465
6.03879
6.03873
6.04881
6.04867
6.06886
6.06846
6.10815
6.10646
6.19065
6.18198
6.42874
6.87109
6.86457
7.58459
7.59532
9.01492
9.01909
8.98894
8.97954
8.97728
14.7767
11.3784
10.9042
9.51841
9.32189
8.6332
8.52996
8.13081
8.06861
7.81548
7.77751
7.63161
7.60245
7.44245
7.41238
7.25971
7.23155
7.09113
7.06546
6.93856
6.9155
6.80229
6.78181
6.68181
6.66376
6.57579
6.5598
6.48076
6.46513
6.37688
6.29837
6.2868
6.23945
6.23148
6.19519
6.18893
6.15987
6.15482
6.13123
6.12712
6.10789
6.10454
6.08887
6.08616
6.07351
6.07133
6.06132
6.05964
6.05218
6.05104
6.04658
6.04573
6.04125
6.04049
6.03703
6.03651
6.03463
6.03448
6.0348
6.03516
6.03868
6.03983
6.04838
6.05082
6.068
6.07283
6.10688
6.11692
6.19122
6.21833
6.45422
6.84132
6.93524
7.54514
7.71685
8.86659
8.97823
8.97949
8.97733
8.97664
14.3572
11.6088
10.8742
9.64377
9.30597
8.69373
8.51662
8.16422
8.05868
7.83659
7.77187
7.6415
7.59202
7.45294
7.40292
7.27
7.22307
7.10072
7.0579
6.9473
6.90883
6.81013
6.77596
6.68875
6.65861
6.58181
6.55492
6.48543
6.45826
6.37811
6.30577
6.28514
6.2432
6.22966
6.19788
6.18738
6.16199
6.15354
6.13295
6.12607
6.10928
6.10369
6.09002
6.08548
6.07444
6.0708
6.06208
6.05928
6.05278
6.05086
6.0469
6.04546
6.04158
6.04031
6.03731
6.03646
6.03484
6.0346
6.03491
6.03554
6.03867
6.04063
6.0482
6.05238
6.06763
6.07603
6.10658
6.12481
6.19367
6.24632
6.47364
6.82327
6.98527
7.52321
7.79925
8.75978
8.94179
8.97018
8.97505
8.97598
14.0476
11.7588
10.864
9.73342
9.30103
8.73685
8.51028
8.18775
8.05341
7.85141
7.76885
7.64816
7.58517
7.45986
7.39678
7.27685
7.21761
7.10713
7.05306
6.95316
6.90457
6.8154
6.77223
6.69342
6.65532
6.58583
6.55175
6.48841
6.45351
6.37902
6.31109
6.28435
6.24581
6.22856
6.19972
6.18642
6.16344
6.15275
6.13411
6.12542
6.11023
6.10316
6.09079
6.08505
6.07507
6.07048
6.0626
6.05906
6.0532
6.05076
6.04711
6.04528
6.0418
6.04021
6.03752
6.03645
6.035
6.03471
6.03501
6.03583
6.0387
6.04121
6.04815
6.0535
6.06753
6.07835
6.10676
6.13067
6.19677
6.26733
6.48818
6.81273
7.02026
7.51176
7.85427
8.68412
8.9115
8.96181
8.97293
8.97535
13.8296
11.8529
10.8633
9.79514
9.30136
8.76647
8.50779
8.20375
8.05085
7.86145
7.76736
7.65251
7.58082
7.46429
7.39291
7.28126
7.21421
7.11128
7.05005
6.95696
6.90193
6.81882
6.76992
6.69645
6.65328
6.58843
6.54974
6.49025
6.45035
6.37967
6.31476
6.28402
6.24757
6.22793
6.20094
6.18585
6.16439
6.15227
6.13488
6.12503
6.11086
6.10284
6.09131
6.0848
6.07549
6.07029
6.06294
6.05894
6.05348
6.05071
6.04725
6.04518
6.04195
6.04015
6.03765
6.03645
6.03511
6.03478
6.03509
6.03603
6.03875
6.04161
6.04816
6.05428
6.06756
6.07996
6.10713
6.13485
6.19969
6.28233
6.49856
6.80688
7.0439
7.50627
7.8898
8.63256
8.88828
8.955
8.97117
8.97482
13.6907
11.9076
10.8657
9.83388
9.30333
8.78504
8.50711
8.21371
8.04974
7.86768
7.76671
7.65513
7.57825
7.46691
7.39066
7.2839
7.21223
7.11376
7.04831
6.95923
6.90041
6.82087
6.7686
6.69827
6.65211
6.58999
6.54857
6.4913
6.44842
6.38009
6.31707
6.28392
6.24866
6.22759
6.20168
6.18553
6.16497
6.15201
6.13534
6.12481
6.11124
6.10266
6.09162
6.08466
6.07575
6.07019
6.06315
6.05888
6.05365
6.05069
6.04734
6.04511
6.04203
6.04012
6.03774
6.03645
6.03519
6.03484
6.03515
6.03615
6.03879
6.04186
6.04819
6.05476
6.06762
6.08098
6.10747
6.13754
6.20189
6.29199
6.50527
6.80387
7.05852
7.50394
7.91097
8.60048
8.87263
8.95023
8.9699
8.97444
13.6231
11.9326
10.8677
9.85258
9.30481
8.794
8.50704
8.21849
8.04936
7.87066
7.76647
7.65637
7.57707
7.46813
7.38962
7.28513
7.21133
7.11492
7.04752
6.9603
6.89972
6.82184
6.768
6.69913
6.65158
6.59071
6.54802
6.49178
6.4475
6.38029
6.31819
6.2839
6.24918
6.22744
6.20203
6.18539
6.16524
6.15189
6.13556
6.12471
6.11142
6.10258
6.09176
6.0846
6.07587
6.07014
6.06325
6.05885
6.05374
6.05068
6.04738
6.04509
6.04208
6.0401
6.03778
6.03646
6.03522
6.03487
6.03518
6.03622
6.03881
6.04199
6.04822
6.055
6.06767
6.08148
6.10767
6.13886
6.20307
6.29672
6.50855
6.80262
7.06551
7.50314
7.92083
8.5851
8.86477
8.94776
8.96924
8.97424
-13.7632
-11.9577
-10.7287
-9.38948
-8.57908
-7.68724
-7.12529
-6.47341
-6.05837
-5.57627
-5.28282
-4.95717
-4.71954
-4.39099
-4.15528
-3.84353
-3.62567
-3.34442
-3.15012
-2.90193
-2.73134
-2.51443
-2.36559
-2.17656
-2.04651
-1.8805
-1.7639
-1.60985
-1.48738
-1.29964
-1.12385
-1.02519
-0.922794
-0.857422
-0.779269
-0.727113
-0.662585
-0.619028
-0.564632
-0.527793
-0.481662
-0.450411
-0.411284
-0.384839
-0.351842
-0.329713
-0.302396
-0.284491
-0.263078
-0.249861
-0.234958
-0.223982
-0.208692
-0.197676
-0.183046
-0.172796
-0.15953
-0.150356
-0.138627
-0.130578
-0.120375
-0.113456
-0.104822
-0.0992027
-0.0926372
-0.0892793
-0.087233
-0.0906716
-0.104919
-0.138825
-0.228891
-0.374966
-0.529519
-0.81596
-1.1186
-1.62769
-1.84305
-1.90705
-1.92362
-1.92747
-13.8354
-11.9346
-10.7331
-9.36834
-8.58234
-7.67405
-7.12889
-6.46394
-6.06106
-5.56873
-5.28411
-4.95365
-4.72318
-4.38728
-4.15833
-3.83978
-3.62821
-3.34094
-3.15228
-2.89883
-2.7332
-2.51171
-2.36721
-2.1742
-2.04795
-1.87853
-1.7654
-1.60859
-1.49
-1.29917
-1.12076
-1.02534
-0.921316
-0.857936
-0.778232
-0.72761
-0.661748
-0.619463
-0.563932
-0.528167
-0.481069
-0.450728
-0.410779
-0.385103
-0.351409
-0.329922
-0.302021
-0.284633
-0.262751
-0.24993
-0.234803
-0.224156
-0.208523
-0.197821
-0.182872
-0.172917
-0.159368
-0.150459
-0.13848
-0.130665
-0.120245
-0.113525
-0.104702
-0.0992412
-0.0925096
-0.0892275
-0.0870142
-0.0902399
-0.104133
-0.136579
-0.226651
-0.374628
-0.524243
-0.815313
-1.11034
-1.63944
-1.84911
-1.90895
-1.92413
-1.92763
-13.9837
-11.8836
-10.744
-9.32405
-8.5905
-7.64633
-7.13729
-6.44399
-6.06733
-5.55289
-5.28725
-4.94614
-4.73104
-4.3793
-4.16496
-3.83176
-3.63378
-3.33353
-3.15704
-2.89222
-2.73729
-2.50592
-2.37076
-2.16918
-2.05112
-1.87431
-1.76866
-1.60581
-1.4955
-1.2982
-1.11437
-1.02584
-0.918215
-0.859105
-0.776034
-0.728719
-0.659971
-0.620431
-0.562443
-0.528996
-0.479808
-0.451431
-0.409704
-0.385689
-0.350489
-0.330389
-0.301227
-0.284956
-0.262063
-0.250093
-0.234469
-0.22453
-0.208157
-0.198138
-0.182499
-0.173184
-0.159021
-0.150686
-0.138169
-0.130858
-0.119967
-0.11368
-0.104449
-0.0993314
-0.0922448
-0.0891337
-0.0865786
-0.089382
-0.102606
-0.132029
-0.222095
-0.374223
-0.51331
-0.814506
-1.09272
-1.66397
-1.86116
-1.91263
-1.9251
-1.92792
-14.2159
-11.7942
-10.7662
-9.2523
-8.60708
-7.60122
-7.15306
-6.41139
-6.07911
-5.5271
-5.2934
-4.9336
-4.74437
-4.36582
-4.17636
-3.81833
-3.64345
-3.32117
-3.16534
-2.88122
-2.74445
-2.49628
-2.37698
-2.16083
-2.05665
-1.86724
-1.7742
-1.60092
-1.50449
-1.29669
-1.10416
-1.0271
-0.913176
-0.861236
-0.772408
-0.730688
-0.657027
-0.622139
-0.559975
-0.530457
-0.477716
-0.45267
-0.407923
-0.386725
-0.348967
-0.331221
-0.299919
-0.285546
-0.26094
-0.250403
-0.233909
-0.225164
-0.207538
-0.198681
-0.181874
-0.173645
-0.158441
-0.151082
-0.137649
-0.131194
-0.119507
-0.113952
-0.104032
-0.0995012
-0.0918217
-0.0890183
-0.0859293
-0.0881081
-0.100431
-0.125053
-0.215057
-0.374341
-0.495892
-0.814619
-1.06338
-1.70346
-1.87903
-1.91787
-1.92646
-1.92832
-14.5451
-11.649
-10.8078
-9.14582
-8.6381
-7.53381
-7.18058
-6.36241
-6.0997
-5.48858
-5.3046
-4.91424
-4.76529
-4.34479
-4.1945
-3.79758
-3.65902
-3.30216
-3.17877
-2.86433
-2.75607
-2.48149
-2.38707
-2.14799
-2.06559
-1.85633
-1.78296
-1.59297
-1.51794
-1.29458
-1.08933
-1.02985
-0.90566
-0.864845
-0.7669
-0.733938
-0.652535
-0.624941
-0.556203
-0.532849
-0.474518
-0.454699
-0.405201
-0.388424
-0.346646
-0.332596
-0.297935
-0.286546
-0.259256
-0.250952
-0.233041
-0.226153
-0.20657
-0.199543
-0.180908
-0.174387
-0.157549
-0.151721
-0.136852
-0.131741
-0.118801
-0.114401
-0.1034
-0.0997977
-0.0912044
-0.0889152
-0.08507
-0.086429
-0.097765
-0.115463
-0.205248
-0.375969
-0.470587
-0.817531
-1.01838
-1.76153
-1.90237
-1.92432
-1.92809
-1.9288
-14.9901
-11.4217
-10.8822
-8.99317
-8.69299
-7.43636
-7.22671
-6.29122
-6.13422
-5.43298
-5.32407
-4.88522
-4.79706
-4.31296
-4.22251
-3.7665
-3.68332
-3.27381
-3.19984
-2.8392
-2.77434
-2.4595
-2.40296
-2.1289
-2.07961
-1.83999
-1.79639
-1.58042
-1.53733
-1.29175
-1.06868
-1.03518
-0.894813
-0.870742
-0.758796
-0.739128
-0.645894
-0.62939
-0.550619
-0.536642
-0.469782
-0.457917
-0.401173
-0.391126
-0.343218
-0.334798
-0.295022
-0.288184
-0.256814
-0.251888
-0.231733
-0.227652
-0.205101
-0.200871
-0.179458
-0.175543
-0.156218
-0.152723
-0.135666
-0.132601
-0.117756
-0.115114
-0.102473
-0.100295
-0.0903357
-0.088875
-0.0840033
-0.0843515
-0.0948451
-0.10299
-0.192202
-0.380641
-0.435189
-0.826287
-0.951691
-1.84369
-1.93047
-1.9315
-1.92984
-1.92931
-15.5778
-11.0731
-11.0107
-8.77697
-8.78614
-7.29703
-7.30187
-6.1889
-6.19051
-5.35369
-5.35674
-4.84218
-4.84469
-4.26538
-4.26515
-3.72051
-3.72069
-3.23205
-3.23239
-2.80224
-2.80262
-2.42718
-2.42755
-2.10081
-2.10124
-1.8158
-1.81671
-1.56096
-1.56482
-1.28802
-1.04045
-1.0448
-0.879316
-0.880156
-0.747003
-0.747262
-0.636185
-0.636333
-0.542444
-0.542552
-0.462848
-0.462933
-0.395278
-0.395344
-0.338212
-0.338255
-0.290793
-0.290805
-0.253315
-0.253433
-0.229784
-0.229891
-0.2029
-0.202887
-0.17731
-0.177316
-0.154255
-0.154269
-0.13392
-0.133934
-0.116223
-0.116229
-0.101129
-0.101104
-0.0891278
-0.088972
-0.0827284
-0.0818688
-0.0920197
-0.0872742
-0.175188
-0.390668
-0.38633
-0.845671
-0.854338
-1.95805
-1.962
-1.93879
-1.93155
-1.9298
-16.3457
-10.5469
-11.226
-8.47105
-8.93923
-7.09795
-7.42175
-6.04199
-6.28035
-5.24082
-5.41012
-4.77847
-4.91558
-4.19465
-4.32957
-3.65274
-3.77761
-3.17073
-3.28217
-2.74807
-2.84594
-2.37983
-2.46523
-2.05965
-2.13431
-1.78017
-1.84731
-1.53112
-1.60354
-1.28312
-1.00215
-1.06121
-0.857169
-0.894934
-0.729877
-0.759853
-0.62203
-0.647039
-0.530513
-0.551657
-0.452725
-0.47066
-0.386677
-0.401851
-0.330921
-0.343614
-0.284666
-0.294927
-0.248314
-0.255931
-0.226886
-0.233216
-0.199622
-0.205927
-0.174139
-0.180013
-0.151369
-0.15663
-0.131361
-0.135977
-0.113982
-0.117948
-0.0991817
-0.102392
-0.0874478
-0.0893133
-0.0812389
-0.0789464
-0.0897908
-0.067853
-0.153072
-0.409489
-0.318924
-0.883081
-0.713184
-2.11641
-1.99462
-1.94544
-1.93303
-1.93022
-17.3456
-9.76163
-11.5786
-8.03623
-9.1847
-6.81228
-7.60977
-5.83037
-6.42132
-5.07959
-5.49554
-4.68401
-5.02081
-4.08969
-4.42646
-3.5529
-3.8638
-3.08069
-3.35776
-2.66862
-2.91182
-2.31042
-2.52256
-1.99928
-2.18454
-1.72769
-1.89324
-1.48574
-1.65798
-1.27665
-0.950244
-1.08814
-0.825352
-0.917826
-0.704951
-0.779158
-0.601365
-0.663409
-0.513076
-0.565568
-0.437928
-0.482465
-0.374111
-0.411805
-0.320287
-0.351841
-0.275773
-0.301325
-0.241145
-0.259897
-0.222574
-0.238138
-0.194749
-0.210492
-0.169463
-0.184092
-0.147129
-0.160214
-0.127608
-0.139086
-0.110703
-0.120578
-0.0963567
-0.104406
-0.0850963
-0.0900528
-0.0795187
-0.0754991
-0.0888737
-0.044146
-0.124107
-0.442189
-0.225328
-0.949853
-0.509105
-2.33577
-2.02433
-1.95061
-1.93413
-1.93052
-18.6491
-8.60059
-12.1459
-7.41407
-9.57131
-6.40012
-7.90119
-5.52425
-6.6399
-4.84837
-5.63037
-4.54393
-5.17706
-3.93432
-4.57208
-3.40597
-3.99405
-2.94852
-3.4723
-2.55215
-3.01175
-2.20874
-2.60956
-1.91081
-2.2607
-1.65055
-1.96233
-1.41738
-1.73477
-1.26819
-0.87995
-1.13129
-0.779492
-0.9531
-0.668697
-0.808698
-0.571247
-0.688416
-0.487657
-0.586814
-0.416365
-0.500507
-0.355814
-0.427037
-0.304831
-0.364473
-0.262908
-0.311246
-0.230905
-0.266192
-0.216227
-0.245501
-0.187586
-0.217403
-0.16263
-0.190305
-0.140951
-0.16569
-0.122151
-0.143848
-0.105949
-0.124625
-0.0922905
-0.107565
-0.0818192
-0.0914573
-0.0775786
-0.0713968
-0.0903157
-0.0154865
-0.0856434
-0.496297
-0.0940882
-1.06323
-0.214322
-2.64063
-2.0445
-1.95347
-1.93469
-1.93065
18.6491
8.60059
12.1459
7.41407
9.57131
6.40012
7.90118
5.52425
6.6399
4.84837
5.63037
4.54393
5.17706
3.93431
4.57207
3.40597
3.99405
2.94852
3.47229
2.55215
3.01175
2.20874
2.60956
1.91081
2.2607
1.65055
1.96233
1.41738
1.73477
1.26818
0.879949
1.13129
0.779491
0.9531
0.668696
0.808697
0.571246
0.688415
0.487656
0.586814
0.416364
0.500506
0.355813
0.427037
0.30483
0.364473
0.262907
0.311246
0.230904
0.266192
0.216227
0.2455
0.187586
0.217403
0.16263
0.190304
0.140951
0.16569
0.12215
0.143848
0.105949
0.124625
0.0922903
0.107565
0.0818191
0.0914573
0.0775785
0.0713968
0.0903155
0.0154866
0.0856431
0.496296
0.0940881
1.06323
0.214321
2.64063
2.0445
1.95347
1.93469
1.93065
17.3456
9.76163
11.5786
8.03623
9.1847
6.81228
7.60978
5.83037
6.42132
5.07959
5.49554
4.68401
5.02081
4.08969
4.42647
3.5529
3.86381
3.08069
3.35777
2.66862
2.91182
2.31043
2.52256
1.99928
2.18455
1.72769
1.89324
1.48574
1.65798
1.27665
0.950245
1.08814
0.825354
0.917828
0.704953
0.77916
0.601366
0.66341
0.513077
0.565569
0.437929
0.482467
0.374112
0.411806
0.320288
0.351842
0.275774
0.301326
0.241146
0.259898
0.222574
0.238139
0.19475
0.210493
0.169464
0.184093
0.14713
0.160215
0.127609
0.139087
0.110704
0.120578
0.0963573
0.104407
0.0850968
0.0900535
0.0795192
0.0754997
0.0888741
0.0441465
0.124108
0.442189
0.225329
0.949853
0.509105
2.33577
2.02432
1.95061
1.93413
1.93052
16.3457
10.5469
11.226
8.47106
8.93924
7.09796
7.42175
6.042
6.28036
5.24082
5.41012
4.77848
4.91559
4.19466
4.32958
3.65274
3.77761
3.17074
3.28217
2.74808
2.84594
2.37983
2.46524
2.05966
2.13432
1.78018
1.84731
1.53112
1.60354
1.28313
1.00215
1.06121
0.857172
0.894937
0.72988
0.759856
0.622033
0.647042
0.530515
0.55166
0.452727
0.470662
0.38668
0.401854
0.330924
0.343617
0.284668
0.294929
0.248316
0.255933
0.226887
0.233218
0.199624
0.205929
0.174141
0.180015
0.151371
0.156632
0.131363
0.135979
0.113983
0.117949
0.099183
0.102393
0.087449
0.0893144
0.0812399
0.0789474
0.0897916
0.0678538
0.153072
0.409489
0.318924
0.883081
0.713184
2.11641
1.99461
1.94544
1.93303
1.93021
15.5778
11.0731
11.0107
8.77697
8.78615
7.29704
7.30188
6.1889
6.19052
5.3537
5.35675
4.84219
4.84469
4.26539
4.26516
3.72052
3.72069
3.23206
3.2324
2.80225
2.80263
2.42718
2.42756
2.10082
2.10125
1.81581
1.81672
1.56097
1.56483
1.28802
1.04046
1.0448
0.87932
0.880161
0.747007
0.747266
0.636189
0.636336
0.542448
0.542556
0.462851
0.462936
0.395281
0.395347
0.338215
0.338258
0.290795
0.290807
0.253318
0.253436
0.229786
0.229894
0.202903
0.202889
0.177312
0.177318
0.154257
0.154271
0.133922
0.133936
0.116224
0.11623
0.10113
0.101105
0.0891291
0.0889733
0.0827296
0.08187
0.0920207
0.0872752
0.175189
0.390669
0.38633
0.845671
0.854338
1.95805
1.962
1.93879
1.93154
1.9298
14.9901
11.4217
10.8822
8.99318
8.693
7.43637
7.22671
6.29123
6.13423
5.43299
5.32408
4.88523
4.79707
4.31297
4.22252
3.76651
3.68333
3.27382
3.19985
2.83921
2.77435
2.4595
2.40297
2.1289
2.07961
1.83999
1.79639
1.58043
1.53734
1.29175
1.06869
1.03519
0.894817
0.870746
0.7588
0.739132
0.645898
0.629394
0.550622
0.536645
0.469785
0.457921
0.401176
0.391129
0.343221
0.334801
0.295024
0.288186
0.256816
0.25189
0.231736
0.227655
0.205103
0.200873
0.17946
0.175545
0.15622
0.152725
0.135667
0.132603
0.117757
0.115116
0.102475
0.100296
0.0903371
0.0888764
0.0840046
0.0843527
0.0948462
0.102991
0.192203
0.380641
0.43519
0.826287
0.951691
1.84368
1.93047
1.9315
1.92984
1.92931
14.5451
11.649
10.8078
9.14583
8.63811
7.53382
7.18059
6.36242
6.0997
5.48859
5.30461
4.91424
4.76529
4.3448
4.19451
3.79759
3.65902
3.30217
3.17877
2.86434
2.75607
2.4815
2.38708
2.148
2.06559
1.85634
1.78297
1.59298
1.51795
1.29459
1.08934
1.02985
0.905665
0.86485
0.766905
0.733942
0.65254
0.624944
0.556207
0.532852
0.474521
0.454702
0.405204
0.388428
0.346649
0.332599
0.297938
0.286549
0.259259
0.250955
0.233043
0.226156
0.206572
0.199545
0.18091
0.174389
0.157551
0.151723
0.136854
0.131743
0.118803
0.114403
0.103402
0.0997993
0.0912059
0.0889166
0.0850714
0.0864303
0.0977662
0.115464
0.205249
0.37597
0.470588
0.817532
1.01838
1.76152
1.90237
1.92432
1.92809
1.9288
14.216
11.7942
10.7662
9.25231
8.60709
7.60123
7.15307
6.4114
6.07912
5.52711
5.29341
4.93361
4.74438
4.36583
4.17636
3.81834
3.64346
3.32118
3.16534
2.88123
2.74446
2.49628
2.37699
2.16083
2.05666
1.86725
1.77421
1.60093
1.5045
1.2967
1.10416
1.02711
0.913181
0.861241
0.772412
0.730693
0.657031
0.622143
0.559979
0.53046
0.477719
0.452673
0.407926
0.386728
0.34897
0.331224
0.299921
0.285548
0.260943
0.250405
0.233912
0.225166
0.207541
0.198683
0.181877
0.173648
0.158443
0.151084
0.137651
0.131196
0.119508
0.113954
0.104033
0.0995027
0.0918232
0.0890198
0.0859307
0.0881094
0.100432
0.125054
0.215058
0.374342
0.495893
0.81462
1.06338
1.70346
1.87903
1.91787
1.92646
1.92832
13.9837
11.8836
10.744
9.32405
8.5905
7.64634
7.1373
6.444
6.06734
5.5529
5.28725
4.94615
4.73105
4.37931
4.16497
3.83176
3.63379
3.33354
3.15705
2.89223
2.7373
2.50592
2.37077
2.16919
2.05113
1.87431
1.76866
1.60581
1.49551
1.2982
1.11437
1.02584
0.91822
0.85911
0.776038
0.728723
0.659975
0.620435
0.562447
0.528999
0.479811
0.451434
0.409707
0.385692
0.350492
0.330392
0.301229
0.284959
0.262066
0.250095
0.234471
0.224533
0.208159
0.19814
0.182501
0.173186
0.159023
0.150688
0.13817
0.130859
0.119969
0.113681
0.104451
0.0993329
0.0922462
0.0891351
0.0865799
0.0893833
0.102607
0.13203
0.222096
0.374224
0.513311
0.814507
1.09272
1.66397
1.86115
1.91263
1.9251
1.92792
13.8354
11.9347
10.7331
9.36835
8.58235
7.67405
7.1289
6.46395
6.06107
5.56874
5.28412
4.95366
4.72319
4.38729
4.15833
3.83979
3.62822
3.34095
3.15229
2.89884
2.7332
2.51172
2.36721
2.17421
2.04796
1.87854
1.76541
1.6086
1.49
1.29917
1.12077
1.02534
0.921321
0.85794
0.778236
0.727614
0.661752
0.619467
0.563935
0.52817
0.481072
0.450731
0.410781
0.385106
0.351412
0.329925
0.302023
0.284636
0.262753
0.249932
0.234805
0.224158
0.208525
0.197823
0.182874
0.172919
0.15937
0.150461
0.138482
0.130667
0.120247
0.113527
0.104704
0.0992427
0.092511
0.0892288
0.0870155
0.0902411
0.104134
0.13658
0.226652
0.374629
0.524244
0.815313
1.11034
1.63944
1.84911
1.90895
1.92412
1.92762
13.7632
11.9577
10.7287
9.38949
8.57908
7.68724
7.1253
6.47342
6.05838
5.57628
5.28283
4.95718
4.71954
4.391
4.15529
3.84354
3.62567
3.34442
3.15013
2.90194
2.73135
2.51443
2.3656
2.17657
2.04651
1.88051
1.76391
1.60986
1.48739
1.29965
1.12385
1.02519
0.922799
0.857426
0.779273
0.727117
0.662588
0.619031
0.564635
0.527796
0.481665
0.450414
0.411287
0.384842
0.351845
0.329716
0.302398
0.284494
0.26308
0.249864
0.234961
0.223984
0.208694
0.197678
0.183048
0.172798
0.159532
0.150358
0.138628
0.13058
0.120377
0.113457
0.104824
0.099204
0.0926385
0.0892806
0.0872342
0.0906728
0.10492
0.138826
0.228892
0.374968
0.52952
0.815961
1.1186
1.62769
1.84305
1.90705
1.92362
1.92747
-13.6266
-11.9376
-10.8745
-9.86311
-9.3195
-8.81666
-8.53881
-8.26764
-8.11709
-7.96833
-7.86575
-7.72994
-7.63425
-7.50956
-7.42258
-7.31024
-7.23211
-7.13148
-7.06166
-6.97195
-6.9099
-6.83043
-6.77564
-6.70569
-6.65747
-6.59583
-6.55264
-6.49579
-6.45107
-6.38323
-6.32056
-6.28598
-6.25097
-6.22905
-6.20345
-6.18668
-6.16637
-6.15292
-6.13648
-6.12555
-6.11216
-6.10326
-6.09237
-6.08515
-6.07636
-6.07059
-6.06365
-6.05922
-6.05407
-6.05099
-6.04767
-6.04536
-6.04232
-6.04033
-6.03799
-6.03665
-6.0354
-6.03503
-6.03532
-6.03635
-6.03893
-6.0421
-6.04831
-6.05509
-6.06775
-6.08155
-6.10774
-6.13893
-6.20313
-6.29677
-6.5086
-6.80266
-7.06554
-7.50317
-7.92085
-8.58512
-8.86479
-8.94779
-8.96926
-8.97426
-13.6941
-11.9125
-10.8725
-9.8444
-9.31787
-8.80766
-8.53854
-8.26282
-8.11702
-7.96649
-7.86707
-7.72833
-7.6354
-7.50805
-7.42359
-7.30887
-7.23301
-7.13025
-7.06246
-6.97085
-6.91059
-6.82945
-6.77624
-6.70482
-6.65801
-6.59509
-6.55319
-6.49531
-6.45199
-6.38302
-6.31944
-6.28599
-6.25044
-6.2292
-6.20309
-6.18682
-6.1661
-6.15304
-6.13626
-6.12565
-6.11198
-6.10334
-6.09222
-6.08521
-6.07624
-6.07064
-6.06355
-6.05925
-6.05399
-6.051
-6.04763
-6.04539
-6.04228
-6.04035
-6.03794
-6.03665
-6.03536
-6.035
-6.0353
-6.03629
-6.03891
-6.04197
-6.04829
-6.05486
-6.06771
-6.08106
-6.10754
-6.13761
-6.20195
-6.29204
-6.50531
-6.80391
-7.05855
-7.50397
-7.91099
-8.60051
-8.87266
-8.95025
-8.96992
-8.97446
-13.8329
-11.8578
-10.8699
-9.80562
-9.31558
-8.78902
-8.53853
-8.2528
-8.11714
-7.96259
-7.86998
-7.72489
-7.63794
-7.50483
-7.42581
-7.30595
-7.23499
-7.12762
-7.0642
-6.96848
-6.91212
-6.82734
-6.77757
-6.70296
-6.65918
-6.59351
-6.55437
-6.49424
-6.45394
-6.38259
-6.31711
-6.28609
-6.24935
-6.22954
-6.20234
-6.18714
-6.16552
-6.15331
-6.13579
-6.12587
-6.1116
-6.10352
-6.09191
-6.08536
-6.07598
-6.07074
-6.06334
-6.05931
-6.05382
-6.05102
-6.04754
-6.04545
-6.04219
-6.04038
-6.03786
-6.03664
-6.03529
-6.03495
-6.03524
-6.03616
-6.03887
-6.04172
-6.04826
-6.05437
-6.06764
-6.08004
-6.1072
-6.13491
-6.19974
-6.28238
-6.49861
-6.80691
-7.04393
-7.5063
-7.88983
-8.63259
-8.88831
-8.95503
-8.97119
-8.97484
-14.0508
-11.7637
-10.8704
-9.74387
-9.31475
-8.75933
-8.53994
-8.23677
-8.11801
-7.95622
-7.87497
-7.71913
-7.64232
-7.49944
-7.42967
-7.30106
-7.23842
-7.12323
-7.06724
-6.96455
-6.91479
-6.82383
-6.7799
-6.69987
-6.66124
-6.59087
-6.55639
-6.49238
-6.45713
-6.38194
-6.3134
-6.28642
-6.24757
-6.23018
-6.20112
-6.18771
-6.16456
-6.15379
-6.13502
-6.12626
-6.11097
-6.10384
-6.09139
-6.08561
-6.07556
-6.07093
-6.06299
-6.05944
-6.05353
-6.05108
-6.0474
-6.04556
-6.04205
-6.04044
-6.03772
-6.03664
-6.03517
-6.03487
-6.03516
-6.03596
-6.03882
-6.04132
-6.04824
-6.0536
-6.06761
-6.07842
-6.10683
-6.13074
-6.19682
-6.26738
-6.48822
-6.81277
-7.0203
-7.51179
-7.8543
-8.68415
-8.91152
-8.96183
-8.97296
-8.97537
-14.3601
-11.6137
-10.8802
-9.65423
-9.31898
-8.7162
-8.54469
-8.21336
-8.1206
-7.94663
-7.88296
-7.7102
-7.64934
-7.49112
-7.43588
-7.29354
-7.24395
-7.11647
-7.07214
-6.95849
-6.9191
-6.81845
-6.78367
-6.69513
-6.66456
-6.5868
-6.5596
-6.48936
-6.46192
-6.38101
-6.30802
-6.28722
-6.24494
-6.23128
-6.19926
-6.18868
-6.1631
-6.15459
-6.13384
-6.12692
-6.11001
-6.10437
-6.09061
-6.08603
-6.07492
-6.07126
-6.06247
-6.05965
-6.05311
-6.05118
-6.04718
-6.04573
-6.04182
-6.04055
-6.03752
-6.03666
-6.03501
-6.03476
-6.03505
-6.03568
-6.03879
-6.04074
-6.04829
-6.05247
-6.06771
-6.07611
-6.10664
-6.12487
-6.19372
-6.24637
-6.47369
-6.82331
-6.9853
-7.52324
-7.79928
-8.75981
-8.94181
-8.9702
-8.97507
-8.976
-14.7792
-11.3832
-10.9098
-9.52895
-9.33391
-8.65582
-8.55584
-8.18042
-8.12644
-7.93262
-7.8953
-7.69679
-7.66026
-7.47869
-7.44557
-7.28231
-7.25259
-7.10638
-7.07982
-6.94947
-6.92586
-6.81042
-6.78959
-6.68806
-6.66977
-6.5807
-6.56452
-6.48464
-6.46884
-6.37977
-6.30056
-6.28889
-6.24116
-6.23312
-6.19655
-6.19024
-6.16097
-6.15588
-6.13211
-6.12798
-6.1086
-6.10523
-6.08946
-6.08672
-6.07398
-6.07179
-6.06171
-6.06002
-6.05251
-6.05136
-6.04687
-6.04601
-6.04149
-6.04072
-6.03723
-6.03671
-6.0348
-6.03464
-6.03494
-6.03529
-6.0388
-6.03994
-6.04847
-6.05091
-6.06807
-6.07291
-6.10695
-6.11699
-6.19127
-6.21838
-6.45426
-6.84135
-6.93527
-7.54516
-7.71687
-8.86661
-8.97825
-8.97951
-8.97735
-8.97666
-15.3342
-11.0359
-10.9756
-9.35625
-9.36815
-8.57232
-8.578
-8.13461
-8.13787
-7.91235
-7.91409
-7.67691
-7.67698
-7.46031
-7.46046
-7.26574
-7.2659
-7.09151
-7.09165
-6.93617
-6.9363
-6.79861
-6.79873
-6.67767
-6.67781
-6.57168
-6.57199
-6.47735
-6.4787
-6.37813
-6.2904
-6.29199
-6.23579
-6.2361
-6.19263
-6.19272
-6.15786
-6.15792
-6.1296
-6.12964
-6.10655
-6.10658
-6.08778
-6.08781
-6.07262
-6.07263
-6.06061
-6.06062
-6.05165
-6.05168
-6.0464
-6.04643
-6.04102
-6.04101
-6.03682
-6.03681
-6.03451
-6.0345
-6.03482
-6.03479
-6.03891
-6.03885
-6.0489
-6.04876
-6.06894
-6.06854
-6.10821
-6.10653
-6.1907
-6.18203
-6.42878
-6.87112
-6.8646
-7.58461
-7.59535
-9.01494
-9.01911
-8.98896
-8.97957
-8.9773
-16.0611
-10.519
-11.1038
-9.11829
-9.43471
-8.45675
-8.61812
-8.07094
-8.15845
-7.88299
-7.94244
-7.64753
-7.70237
-7.43327
-7.48315
-7.24137
-7.28619
-7.06965
-7.1097
-6.91665
-6.95225
-6.78129
-6.81273
-6.66242
-6.6901
-6.5584
-6.58326
-6.46621
-6.49263
-6.37598
-6.27667
-6.29741
-6.22816
-6.24083
-6.18696
-6.1966
-6.15336
-6.16109
-6.12595
-6.13223
-6.10358
-6.10869
-6.08536
-6.0895
-6.07065
-6.07396
-6.05904
-6.06158
-6.05043
-6.0522
-6.04573
-6.04706
-6.04032
-6.04146
-6.03624
-6.03701
-6.03413
-6.03434
-6.03471
-6.03411
-6.03918
-6.03735
-6.04973
-6.0458
-6.07062
-6.06257
-6.11114
-6.09263
-6.19385
-6.13547
-6.39549
-6.91884
-6.76487
-7.65244
-7.41747
-9.21988
-9.06134
-8.99758
-8.9815
-8.97785
-17.0098
-9.75704
-11.3348
-8.78825
-9.55303
-8.29561
-8.68658
-7.98188
-8.19355
-7.84024
-7.98496
-7.60416
-7.74071
-7.39346
-7.51751
-7.20553
-7.31693
-7.03753
-7.13708
-6.88798
-6.97646
-6.75587
-6.83399
-6.64006
-6.70877
-6.53886
-6.60021
-6.44934
-6.51229
-6.37313
-6.25813
-6.30642
-6.21725
-6.24822
-6.17875
-6.20259
-6.14682
-6.16597
-6.12065
-6.13621
-6.09925
-6.11193
-6.08183
-6.09211
-6.06779
-6.07601
-6.05676
-6.06309
-6.04869
-6.05306
-6.04474
-6.04802
-6.03931
-6.04216
-6.03543
-6.03735
-6.03363
-6.03418
-6.03464
-6.03321
-6.03973
-6.03528
-6.05122
-6.04168
-6.07362
-6.05433
-6.11674
-6.07395
-6.20339
-6.07617
-6.35165
-6.99366
-6.62348
-7.76516
-7.1581
-9.50327
-9.09978
-9.00429
-8.98293
-8.97825
-18.2484
-8.64179
-11.7307
-8.3257
-9.75219
-8.06848
-8.79882
-7.85611
-8.25119
-7.77751
-8.04845
-7.54005
-7.79835
-7.33475
-7.56926
-7.15271
-7.36325
-6.9902
-7.17835
-6.84576
-7.01298
-6.71845
-6.86609
-6.60715
-6.73693
-6.51003
-6.6256
-6.42388
-6.53999
-6.36928
-6.23303
-6.3209
-6.20151
-6.2596
-6.16678
-6.21175
-6.13726
-6.17341
-6.11289
-6.14228
-6.09293
-6.11686
-6.07668
-6.09609
-6.06362
-6.07915
-6.05344
-6.06541
-6.04619
-6.05441
-6.04328
-6.04945
-6.03783
-6.04324
-6.03426
-6.0379
-6.03295
-6.03401
-6.03464
-6.03198
-6.04071
-6.03238
-6.05371
-6.0359
-6.07867
-6.04282
-6.12654
-6.04837
-6.22318
-6.00075
-6.29316
-7.10897
-6.42163
-7.94786
-6.78066
-9.89664
-9.12594
-9.00808
-8.98374
-8.9785
)
;

boundaryField
{
    F1_1
    {
        type            calculated;
        value           nonuniform List<scalar> 
80
(
18.9506
7.9733
11.9791
8.04082
9.87578
7.90457
8.86782
7.71455
8.2887
7.55109
7.90311
7.48916
7.75832
7.28652
7.55868
7.10988
7.3652
6.95283
7.18581
6.81329
7.02261
6.69032
6.87624
6.58283
6.74685
6.48904
6.63532
6.40553
6.55167
6.36435
6.21711
6.32737
6.19089
6.26459
6.1586
6.21576
6.1307
6.17668
6.10756
6.14495
6.08858
6.11904
6.07314
6.09785
6.06075
6.08052
6.05116
6.06638
6.04444
6.05489
6.04215
6.04999
6.03673
6.04362
6.03339
6.03802
6.03242
6.03373
6.03455
6.03112
6.04124
6.03056
6.05519
6.03241
6.08174
6.036
6.13267
6.03347
6.23617
5.95847
6.25958
7.17871
6.30273
8.06045
6.55697
10.1255
9.13461
9.0091
8.98396
8.97858
)
;
    }
    F1_2
    {
        type            calculated;
        value           nonuniform List<scalar> 
80
(
-19.3873
-7.90898
-12.4949
-7.04744
-9.80724
-6.15647
-8.07804
-5.34313
-6.77259
-4.71206
-5.71277
-4.46027
-5.27047
-3.84164
-4.65952
-3.31852
-4.07243
-2.86992
-3.54128
-2.48293
-3.07198
-2.14832
-2.662
-1.85825
-2.3066
-1.60466
-2.00386
-1.37637
-1.77976
-1.26341
-0.839523
-1.15778
-0.752412
-0.974487
-0.647224
-0.826568
-0.5534
-0.703538
-0.472594
-0.599663
-0.40359
-0.511421
-0.344979
-0.436258
-0.295686
-0.372131