/*--------------------------------*- C++ -*----------------------------------*\
| =========                 |                                                 |
| \\      /  F ield         | OpenFOAM: The Open Source CFD Toolbox           |
|  \\    /   O peration     | Version:  5.x                                   |
|   \\  /    A nd           | Web:      www.OpenFOAM.org                      |
|    \\/     M anipulation  |                                                 |
\*---------------------------------------------------------------------------*/
FoamFile
{
    version     2.0;
    format      ascii;
    class       volScalarField;
    location    "9.1";
    object      gradTy;
}
// * * * * * * * * * * * * * * * * * * * * * * * * * * * * * * * * * * * * * //

dimensions      [0 -1 0 1 0 0 0];

internalField   nonuniform List<scalar> 
2048
(
-26.4237
-26.3961
-26.3417
-26.262
-26.1593
-26.0358
-25.8946
-25.7383
-25.5698
-25.3916
-25.2061
-25.0154
-24.8216
-24.6263
-24.4309
-24.2369
-24.0453
-23.857
-23.6728
-23.4933
-23.3189
-23.15
-22.9868
-22.8295
-22.6785
-22.5339
-22.396
-22.2652
-22.1418
-22.0264
-21.9194
-21.8215
-21.7334
-21.6561
-21.5903
-21.5373
-21.498
-21.4736
-21.4653
-21.4745
-21.5023
-21.55
-21.6189
-21.71
-21.8244
-21.9629
-22.1257
-22.3128
-22.5236
-22.7566
-23.0096
-23.2793
-23.5613
-23.8504
-24.1406
-24.4252
-24.6976
-24.9511
-25.1795
-25.3777
-25.5412
-25.6666
-25.7515
-25.7943
-26.446
-26.4177
-26.3621
-26.2808
-26.1759
-26.0503
-25.9067
-25.7482
-25.5776
-25.3974
-25.2102
-25.018
-24.8228
-24.6263
-24.4299
-24.2349
-24.0426
-23.8537
-23.669
-23.4891
-23.3145
-23.1453
-22.9819
-22.8245
-22.6733
-22.5285
-22.3903
-22.2592
-22.1354
-22.0195
-21.912
-21.8135
-21.7248
-21.6467
-21.5801
-21.5261
-21.4859
-21.4605
-21.4513
-21.4594
-21.4862
-21.5329
-21.6009
-21.6912
-21.805
-21.9431
-22.106
-22.2937
-22.5056
-22.7405
-22.9962
-23.2693
-23.5555
-23.8495
-24.145
-24.4352
-24.7129
-24.9713
-25.2041
-25.4058
-25.572
-25.6994
-25.7855
-25.8289
-26.4887
-26.4592
-26.4011
-26.3165
-26.2076
-26.0777
-25.9297
-25.7669
-25.5923
-25.4085
-25.2179
-25.0228
-24.825
-24.6262
-24.4278
-24.2311
-24.0373
-23.8473
-23.6618
-23.4812
-23.3061
-23.1365
-22.9728
-22.8151
-22.6635
-22.5182
-22.3796
-22.2478
-22.1234
-22.0066
-21.8981
-21.7985
-21.7085
-21.6289
-21.5608
-21.5051
-21.4631
-21.4358
-21.4247
-21.4308
-21.4556
-21.5005
-21.5667
-21.6555
-21.7681
-21.9055
-22.0684
-22.257
-22.471
-22.7094
-22.9701
-23.2498
-23.5442
-23.8476
-24.1534
-24.4541
-24.7421
-25.01
-25.251
-25.4595
-25.6308
-25.7619
-25.8504
-25.8949
-26.5499
-26.5185
-26.4569
-26.3673
-26.2526
-26.1163
-25.9619
-25.793
-25.6126
-25.4237
-25.2285
-25.0293
-24.8278
-24.6258
-24.4246
-24.2255
-24.0298
-23.8382
-23.6514
-23.47
-23.2941
-23.1241
-22.9599
-22.8018
-22.6497
-22.5038
-22.3645
-22.2319
-22.1065
-21.9886
-21.8787
-21.7775
-21.6856
-21.604
-21.5337
-21.4756
-21.431
-21.4011
-21.3872
-21.3906
-21.4126
-21.4547
-21.5183
-21.6048
-21.7156
-21.8519
-22.0146
-22.2043
-22.4212
-22.6643
-22.9319
-23.221
-23.5271
-23.8441
-24.1648
-24.481
-24.784
-25.0656
-25.3184
-25.5364
-25.715
-25.8512
-25.9428
-25.9889
-26.6284
-26.5944
-26.528
-26.4317
-26.3092
-26.1646
-26.002
-25.8252
-25.6376
-25.4421
-25.2412
-25.0369
-24.8309
-24.6248
-24.4201
-24.2181
-24.0199
-23.8263
-23.6381
-23.4556
-23.2791
-23.1085
-22.9439
-22.7852
-22.6325
-22.486
-22.3458
-22.2122
-22.0856
-21.9662
-21.8546
-21.7514
-21.6573
-21.5731
-21.5
-21.4389
-21.3911
-21.3578
-21.3404
-21.3403
-21.3587
-21.3973
-21.4576
-21.5411
-21.6493
-21.7839
-21.9461
-22.1369
-22.3568
-22.6056
-22.8819
-23.1828
-23.5038
-23.8385
-24.1787
-24.515
-24.8376
-25.137
-25.4049
-25.6349
-25.8224
-25.9646
-26.06
-26.1078
-26.723
-26.6857
-26.6131
-26.5085
-26.3762
-26.2213
-26.0485
-25.8622
-25.666
-25.463
-25.2554
-25.0451
-24.8339
-24.6231
-24.4143
-24.2088
-24.0077
-23.8119
-23.6221
-23.4385
-23.2612
-23.0901
-22.925
-22.7658
-22.6125
-22.4652
-22.3241
-22.1894
-22.0614
-21.9404
-21.8268
-21.7213
-21.6244
-21.5372
-21.4607
-21.396
-21.3444
-21.3072
-21.2857
-21.2814
-21.2956
-21.3299
-21.3861
-21.4657
-21.5707
-21.7029
-21.864
-22.0556
-22.2787
-22.5337
-22.8199
-23.1347
-23.4737
-23.8299
-24.1942
-24.5555
-24.9023
-25.2234
-25.5095
-25.7536
-25.9513
-26.1002
-26.1996
-26.2493
-26.8331
-26.7918
-26.7115
-26.5965
-26.4523
-26.285
-26.1001
-25.9028
-25.6968
-25.4853
-25.2703
-25.0535
-24.8365
-24.6205
-24.4071
-24.1976
-23.9933
-23.795
-23.6035
-23.4188
-23.2409
-23.0694
-22.9039
-22.7442
-22.5903
-22.4421
-22.2999
-22.164
-22.0345
-21.9117
-21.796
-21.6878
-21.5879
-21.4972
-21.4169
-21.3481
-21.2922
-21.2505
-21.2244
-21.2152
-21.2245
-21.2539
-21.3052
-21.3803
-21.4812
-21.6102
-21.7694
-21.9611
-22.187
-22.4485
-22.7454
-23.076
-23.4358
-23.8175
-24.2105
-24.6019
-24.9776
-25.3245
-25.6317
-25.8916
-26.1003
-26.2561
-26.3594
-26.4108
-26.9584
-26.912
-26.8223
-26.6947
-26.5363
-26.3543
-26.1556
-25.9458
-25.7291
-25.5083
-25.2854
-25.0617
-24.8384
-24.6168
-24.3983
-24.1844
-23.9765
-23.7756
-23.5824
-23.3967
-23.2183
-23.0466
-22.8809
-22.7208
-22.5662
-22.4171
-22.2738
-22.1366
-22.0055
-21.8808
-21.7628
-21.6518
-21.5485
-21.454
-21.3694
-21.2961
-21.2354
-21.1887
-21.1575
-21.143
-21.1468
-21.1707
-21.2164
-21.286
-21.382
-21.5068
-21.6633
-21.8542
-22.0823
-22.3499
-22.658
-23.0057
-23.3891
-23.8002
-24.2269
-24.6538
-25.0637
-25.4404
-25.7713
-26.0484
-26.2682
-26.4307
-26.5373
-26.5901
-27.0986
-27.0461
-26.945
-26.8024
-26.627
-26.428
-26.2136
-25.99
-25.7617
-25.5313
-25.3003
-25.0694
-24.8396
-24.6119
-24.3878
-24.1691
-23.9574
-23.7537
-23.5588
-23.3724
-23.1938
-23.0221
-22.8564
-22.696
-22.5407
-22.3907
-22.2462
-22.1076
-21.975
-21.8484
-21.7279
-21.6139
-21.507
-21.4083
-21.319
-21.2407
-21.1748
-21.1228
-21.086
-21.0658
-21.0637
-21.0814
-21.1208
-21.1843
-21.2744
-21.3941
-21.5466
-21.7355
-21.9647
-22.2376
-22.5569
-22.9229
-23.3322
-23.7768
-24.2426
-24.711
-25.1606
-25.5714
-25.9286
-26.2236
-26.4542
-26.6222
-26.7313
-26.7849
-27.254
-27.194
-27.0791
-26.9185
-26.7233
-26.5048
-26.2727
-26.0342
-25.7937
-25.5536
-25.3144
-25.0764
-24.8398
-24.6057
-24.3756
-24.1517
-23.9358
-23.7293
-23.5328
-23.346
-23.1676
-22.9963
-22.8308
-22.6701
-22.5142
-22.3631
-22.2174
-22.0774
-21.9433
-21.8149
-21.692
-21.5748
-21.464
-21.3607
-21.2664
-21.1827
-21.1113
-21.0536
-21.011
-20.9847
-20.9762
-20.9872
-21.0197
-21.0762
-21.1595
-21.2729
-21.4202
-21.6058
-21.8346
-22.1116
-22.4414
-22.8261
-23.2637
-23.7458
-24.2566
-24.7732
-25.2689
-25.7184
-26.104
-26.4171
-26.6573
-26.8293
-26.9393
-26.9928
-27.4246
-27.3556
-27.2243
-27.0424
-26.824
-26.5833
-26.3317
-26.0772
-25.8243
-25.5745
-25.3275
-25.0825
-24.8391
-24.5983
-24.3617
-24.132
-23.9116
-23.7023
-23.5045
-23.3176
-23.14
-22.9696
-22.8045
-22.6437
-22.487
-22.3347
-22.1877
-22.0465
-21.911
-21.7808
-21.6555
-21.535
-21.42
-21.3118
-21.2121
-21.1227
-21.0455
-20.9819
-20.9332
-20.9006
-20.8853
-20.8891
-20.9141
-20.9629
-21.0385
-21.1445
-21.2852
-21.4658
-21.6923
-21.9717
-22.3107
-22.7141
-23.1818
-23.7057
-24.2679
-24.8405
-25.3894
-25.8826
-26.2986
-26.629
-26.8767
-27.0502
-27.1591
-27.2114
-27.6111
-27.5313
-27.3802
-27.1731
-26.9279
-26.6621
-26.3891
-26.1178
-25.8525
-25.5936
-25.3394
-25.0877
-24.8376
-24.5897
-24.3461
-24.1101
-23.8848
-23.6725
-23.4736
-23.2873
-23.1111
-22.9421
-22.7779
-22.6171
-22.4595
-22.3059
-22.1574
-22.0149
-21.8782
-21.7465
-21.6189
-21.4951
-21.3757
-21.2622
-21.1567
-21.0613
-20.978
-20.9083
-20.8534
-20.8142
-20.792
-20.7882
-20.8051
-20.8455
-20.9125
-21.01
-21.1427
-21.3163
-21.5384
-21.8177
-22.1639
-22.5853
-23.0844
-23.6544
-24.2752
-24.9128
-25.5234
-26.0656
-26.5134
-26.8597
-27.1117
-27.2832
-27.3885
-27.4382
-27.8141
-27.7212
-27.5467
-27.3098
-27.0337
-26.7397
-26.4435
-26.1548
-25.8775
-25.6105
-25.35
-25.0922
-24.8355
-24.5802
-24.3289
-24.0858
-23.8552
-23.6398
-23.4403
-23.2551
-23.0812
-22.9144
-22.7514
-22.5906
-22.4319
-22.2766
-22.1265
-21.9829
-21.8454
-21.7125
-21.5827
-21.4556
-21.3316
-21.2124
-21.1005
-20.9988
-20.9092
-20.8333
-20.7722
-20.7264
-20.697
-20.6853
-20.6936
-20.7249
-20.7826
-20.8705
-20.9937
-21.1585
-21.3735
-21.6497
-22.0005
-22.4382
-22.9696
-23.5897
-24.277
-24.9903
-25.6726
-26.2698
-26.7501
-27.1093
-27.3612
-27.5266
-27.625
-27.6706
-28.0343
-27.9258
-27.7234
-27.4517
-27.14
-26.8146
-26.4934
-26.1869
-25.8985
-25.6248
-25.3593
-25.0963
-24.833
-24.57
-24.31
-24.059
-23.8227
-23.6042
-23.4043
-23.2213
-23.0506
-22.8868
-22.7254
-22.5646
-22.4047
-22.2472
-22.0952
-21.9505
-21.8126
-21.6791
-21.5474
-21.4168
-21.2879
-21.1626
-21.044
-20.9355
-20.8395
-20.7574
-20.6901
-20.6379
-20.6011
-20.5812
-20.5805
-20.6021
-20.6498
-20.7272
-20.8394
-20.9933
-21.1985
-21.4681
-21.8196
-22.2711
-22.8348
-23.509
-24.2715
-25.073
-25.8394
-26.4979
-27.0107
-27.3783
-27.6243
-27.7783
-27.8662
-27.9056
-28.273
-28.1457
-27.9104
-27.5978
-27.2452
-26.8851
-26.5374
-26.2131
-25.9148
-25.6363
-25.3676
-25.1002
-24.8306
-24.5594
-24.2897
-24.0296
-23.7869
-23.5653
-23.3655
-23.1857
-23.0196
-22.8597
-22.7004
-22.5395
-22.3779
-22.2177
-22.0632
-21.9178
-21.7802
-21.6466
-21.5133
-21.3793
-21.2453
-21.1132
-20.9872
-20.8718
-20.7693
-20.6811
-20.6078
-20.5491
-20.5051
-20.4767
-20.4665
-20.478
-20.515
-20.5811
-20.6811
-20.8221
-21.0145
-21.2733
-21.6209
-22.0823
-22.6773
-23.4091
-24.2562
-25.1613
-26.0265
-26.7536
-27.2973
-27.667
-27.8996
-28.0361
-28.1093
-28.1407
-28.5312
-28.3815
-28.1074
-27.7469
-27.3475
-26.9496
-26.574
-26.232
-25.9256
-25.645
-25.3753
-25.1044
-24.8287
-24.5489
-24.2681
-23.9973
-23.7477
-23.5229
-23.3238
-23.1484
-22.9884
-22.8338
-22.6768
-22.5158
-22.352
-22.1881
-22.0306
-21.8847
-21.7482
-21.6154
-21.4809
-21.3435
-21.204
-21.0645
-20.9305
-20.8079
-20.6988
-20.6045
-20.5255
-20.4608
-20.4096
-20.3724
-20.3523
-20.3533
-20.3793
-20.4334
-20.5199
-20.6463
-20.8227
-21.066
-21.404
-21.8703
-22.4946
-23.2864
-24.2279
-25.2551
-26.238
-27.0413
-27.6124
-27.9753
-28.1857
-28.2977
-28.3518
-28.373
-28.8104
-28.6339
-28.3144
-27.8979
-27.4452
-27.0065
-26.6019
-26.2424
-25.9305
-25.6509
-25.3829
-25.1094
-24.8277
-24.539
-24.2452
-23.9619
-23.7049
-23.4768
-23.2787
-23.1094
-22.9574
-22.8094
-22.655
-22.4936
-22.3273
-22.1584
-21.9969
-21.851
-21.7169
-21.586
-21.4505
-21.3096
-21.1646
-21.0167
-20.8738
-20.7437
-20.6281
-20.528
-20.4438
-20.3735
-20.3152
-20.269
-20.2385
-20.2286
-20.2434
-20.2851
-20.3572
-20.4673
-20.625
-20.8473
-21.1688
-21.6336
-22.2838
-23.1369
-24.1825
-25.3544
-26.4789
-27.3664
-27.9586
-28.3032
-28.4805
-28.5604
-28.5908
-28.5998
-29.1122
-28.9035
-28.5316
-28.0495
-27.5359
-27.0542
-26.6196
-26.2429
-25.9289
-25.6543
-25.3912
-25.1159
-24.8282
-24.5305
-24.2212
-23.9228
-23.6583
-23.4268
-23.23
-23.0686
-22.927
-22.7874
-22.6356
-22.4733
-22.3041
-22.1285
-21.9616
-21.8164
-21.6862
-21.5587
-21.4225
-21.278
-21.1274
-20.97
-20.8171
-20.6796
-20.5575
-20.4516
-20.3629
-20.2875
-20.2225
-20.167
-20.1256
-20.1045
-20.1081
-20.1374
-20.194
-20.2867
-20.423
-20.6185
-20.9156
-21.3706
-22.0421
-22.956
-24.1143
-25.4588
-26.7559
-27.7355
-28.3384
-28.6497
-28.7817
-28.8214
-28.8237
-28.8184
-29.4384
-29.1907
-28.7591
-28.2001
-27.6169
-27.0914
-26.6261
-26.2322
-25.9202
-25.6554
-25.4013
-25.1242
-24.8305
-24.5245
-24.1963
-23.8794
-23.6077
-23.3727
-23.177
-23.0261
-22.8975
-22.7685
-22.6189
-22.4552
-22.283
-22.0983
-21.9239
-21.7806
-21.6564
-21.5342
-21.3971
-21.249
-21.093
-20.9246
-20.76
-20.6154
-20.4871
-20.3755
-20.2831
-20.2035
-20.1321
-20.0669
-20.014
-19.9814
-19.9741
-19.991
-20.0315
-20.1061
-20.2191
-20.3814
-20.645
-21.08
-21.7674
-22.739
-24.0157
-25.5671
-27.0778
-28.1562
-28.7543
-29.0136
-29.0864
-29.0779
-29.0478
-29.0267
-29.7912
-29.4956
-28.9977
-28.3482
-27.685
-27.117
-26.6205
-26.2084
-25.9041
-25.6548
-25.4148
-25.135
-24.8346
-24.5224
-24.1706
-23.8304
-23.5533
-23.3145
-23.1189
-22.9817
-22.8693
-22.7538
-22.6052
-22.4393
-22.265
-22.0677
-21.8828
-21.7431
-21.6275
-21.5132
-21.3747
-21.2224
-21.0621
-20.8805
-20.7022
-20.5514
-20.4169
-20.2996
-20.2047
-20.1217
-20.0446
-19.9691
-19.904
-19.8594
-19.8419
-19.8472
-19.8703
-19.927
-20.016
-20.1379
-20.3579
-20.7605
-21.4578
-22.4812
-23.8763
-25.6775
-27.4568
-28.6377
-29.2079
-29.3923
-29.3914
-29.3268
-29.2608
-29.2223
-30.1732
-29.8178
-29.2487
-28.492
-27.7358
-27.1307
-26.6025
-26.1695
-25.8804
-25.6527
-25.4336
-25.1483
-24.8404
-24.5262
-24.1443
-23.7742
-23.4954
-23.2523
-23.0547
-22.9354
-22.8429
-22.7447
-22.5948
-22.4253
-22.2511
-22.0367
-21.8367
-21.7037
-21.5997
-21.4968
-21.3552
-21.1983
-21.0358
-20.8379
-20.6427
-20.4876
-20.3473
-20.2236
-20.1279
-20.0427
-19.9606
-19.8741
-19.7956
-19.7387
-19.7121
-19.707
-19.7112
-19.7509
-19.8166
-19.8901
-20.0558
-20.4106
-21.1125
-22.1786
-23.6821
-25.7864
-27.909
-29.19
-29.6998
-29.7826
-29.6928
-29.565
-29.4603
-29.4037
-30.5874
-30.1555
-29.5146
-28.6294
-27.7637
-27.1332
-26.5721
-26.1125
-25.8492
-25.6495
-25.4606
-25.1642
-24.8469
-24.5392
-24.1174
-23.7078
-23.4351
-23.1866
-22.9824
-22.8875
-22.8184
-22.7431
-22.5875
-22.4126
-22.2433
-22.005
-21.7834
-21.662
-21.573
-21.4863
-21.3388
-21.176
-21.0154
-20.7967
-20.5804
-20.4246
-20.2784
-20.147
-20.053
-19.9666
-19.8809
-19.7821
-19.6889
-19.6191
-19.585
-19.5715
-19.5541
-19.5788
-19.6248
-19.6404
-19.7407
-20.0281
-20.7319
-21.829
-23.414
-25.8882
-28.4571
-29.8243
-30.2293
-30.1797
-29.9863
-29.7898
-29.6445
-29.5693
-31.0379
-30.505
-29.7995
-28.7584
-27.761
-27.1267
-26.5301
-26.0333
-25.8113
-25.6452
-25.4999
-25.1821
-24.8519
-24.5659
-24.0902
-23.6271
-23.3744
-23.1181
-22.8995
-22.8385
-22.7957
-22.7516
-22.5829
-22.3998
-22.2445
-21.9725
-21.7198
-21.6181
-21.5471
-21.4839
-21.3249
-21.1543
-21.0032
-20.757
-20.5132
-20.3631
-20.2106
-20.0691
-19.9803
-19.8938
-19.8064
-19.6934
-19.584
-19.5002
-19.4608
-19.4424
-19.3985
-19.4116
-19.4452
-19.3908
-19.4157
-19.6098
-20.3184
-21.4329
-23.046
-25.9739
-29.1321
-30.5521
-30.7931
-30.5777
-30.2675
-29.9982
-29.8119
-29.7182
-31.5301
-30.8592
-30.1106
-28.8768
-27.7167
-27.116
-26.4785
-25.9259
-25.7686
-25.6386
-25.5572
-25.2006
-24.8516
-24.6131
-24.0628
-23.5259
-23.3166
-23.0482
-22.8022
-22.7894
-22.7742
-22.774
-22.5803
-22.3843
-22.259
-21.9393
-21.6417
-21.5725
-21.5215
-21.4926
-21.3131
-21.1315
-21.0025
-20.7187
-20.4382
-20.3046
-20.1444
-19.9886
-19.9106
-19.8243
-19.738
-19.6081
-19.4808
-19.3814
-19.3396
-19.3219
-19.2433
-19.2493
-19.2833
-19.143
-19.0853
-19.1506
-19.8759
-20.9965
-22.5432
-26.0296
-29.977
-31.3839
-31.3851
-30.9695
-30.5318
-30.1881
-29.9613
-29.8498
-32.0714
-31.2065
-30.4589
-28.9822
-27.6157
-27.1095
-26.4201
-25.7818
-25.7248
-25.6274
-25.6408
-25.2177
-24.8399
-24.6908
-24.0351
-23.3948
-23.2674
-22.979
-22.6847
-22.7427
-22.7521
-22.8157
-22.578
-22.3621
-22.2931
-21.9051
-21.5431
-21.527
-21.4948
-21.5167
-21.302
-21.1041
-21.0179
-20.6818
-20.3511
-20.2513
-20.0807
-19.9034
-19.8448
-19.7578
-19.6772
-19.5263
-19.3791
-19.2618
-19.2211
-19.2129
-19.0859
-19.0911
-19.1468
-18.8973
-18.7562
-18.642
-19.4109
-20.5338
-21.8589
-26.0347
-31.0517
-32.3275
-31.9955
-31.3467
-30.7747
-30.3574
-30.092
-29.9639
-32.6723
-31.5278
-30.862
-29.0725
-27.4366
-27.1205
-26.3592
-25.5883
-25.6866
-25.606
-25.7626
-25.2297
-24.8069
-24.8137
-24.0071
-23.2203
-23.2356
-22.9132
-22.5386
-22.7027
-22.7259
-22.8845
-22.5738
-22.3269
-22.3563
-21.87
-21.4157
-21.485
-21.4641
-21.5625
-21.2899
-21.0673
-21.0566
-20.646
-20.2457
-20.2071
-20.0204
-19.8106
-19.7845
-19.6936
-19.6258
-19.4477
-19.279
-19.14
-19.1047
-19.1201
-18.9227
-18.9351
-19.0455
-18.652
-18.4385
-18.0708
-18.9318
-20.071
-20.9309
-25.9593
-32.4383
-33.3851
-32.6102
-31.7001
-30.9921
-30.5046
-30.2037
-30.0606
-33.3475
-31.7937
-31.3459
-29.1454
-27.1496
-27.1699
-26.3016
-25.327
-25.6656
-25.565
-25.9396
-25.2315
-24.7377
-25.0024
-23.9786
-22.9831
-23.2348
-22.8549
-22.3517
-22.6766
-22.6891
-22.9914
-22.5642
-22.269
-22.4618
-21.8335
-21.2479
-21.4528
-21.4245
-21.6389
-21.274
-21.0136
-21.1286
-20.6108
-20.1132
-20.1778
-19.9648
-19.7057
-19.7326
-19.6303
-19.5864
-19.3717
-19.1807
-19.0145
-18.989
-19.05
-18.7483
-18.7773
-18.9927
-18.4017
-18.148
-17.4167
-18.449
-19.6519
-19.6777
-25.7602
-34.2496
-34.5488
-33.2104
-32.0205
-31.1806
-30.6289
-30.2967
-30.1405
-34.118
-31.9598
-31.9491
-29.1986
-26.7136
-27.2879
-26.255
-24.9718
-25.6805
-25.4879
-26.1955
-25.2162
-24.6109
-25.2861
-23.9491
-22.6563
-23.2845
-22.8091
-22.1067
-22.6767
-22.6309
-23.1522
-22.5445
-22.1745
-22.6283
-21.7952
-21.0242
-21.4407
-21.3674
-21.7585
-21.2505
-20.9323
-21.2482
-20.5756
-19.9414
-20.1719
-19.9153
-19.5825
-19.6933
-19.5651
-19.5624
-19.2972
-19.0848
-18.8832
-18.8715
-19.012
-18.5551
-18.6116
-19.0068
-18.1354
-17.9081
-16.6496
-17.9732
-19.3443
-17.9932
-25.3771
-36.6388
-35.7944
-33.7728
-32.2988
-31.3377
-30.7301
-30.3713
-30.2042
-35.0134
-31.9619
-32.7266
-29.23
-26.0723
-27.5184
-26.2287
-24.4862
-25.7606
-25.3485
-26.5639
-25.1742
-24.396
-25.7048
-23.9176
-22.2031
-23.4128
-22.7819
-21.7792
-22.7219
-22.534
-23.3887
-22.5083
-22.0237
-22.8817
-21.7539
-20.7232
-21.465
-21.2792
-21.9389
-21.2144
-20.8081
-21.435
-20.5391
-19.7137
-20.202
-19.8737
-19.4323
-19.6732
-19.4937
-19.5588
-19.2223
-18.9923
-18.7438
-18.7482
-19.0193
-18.3326
-18.4284
-19.1131
-17.8338
-17.7538
-15.7267
-17.5145
-19.2485
-15.7411
-24.7268
-39.8116
-37.0738
-34.2709
-32.5273
-31.4618
-30.8084
-30.4284
-30.2527
-36.0745
-31.7087
-33.7558
-29.2372
-25.1503
-27.9218
-26.2339
-23.8196
-25.9498
-25.1065
-27.0909
-25.0932
-24.0506
-26.3127
-23.8826
-21.5736
-23.6588
-22.781
-21.3358
-22.8408
-22.3719
-23.7314
-22.4472
-21.7894
-23.2569
-21.7079
-20.3167
-21.5507
-21.1387
-22.2046
-21.1588
-20.6203
-21.7158
-20.4995
-19.408
-20.2855
-19.8415
-19.243
-19.6821
-19.4092
-19.5824
-19.1436
-18.9052
-18.5936
-18.6125
-19.0906
-18.0674
-18.2138
-19.3465
-17.4653
-17.7365
-14.5882
-17.0795
-19.507
-12.7486
-23.6962
-44.0416
-38.3038
-34.6763
-32.7
-31.5526
-30.8648
-30.4691
-30.2872
-37.3573
-31.0741
-35.1425
-29.2175
-23.8479
-28.5808
-26.2835
-22.9035
-26.3128
-24.7023
-27.8392
-24.9571
-23.5177
-27.1817
-23.8417
-20.7021
-24.0757
-22.8152
-20.7312
-23.0756
-22.1054
-24.2213
-22.3505
-21.4348
-23.8004
-21.6541
-19.7671
-21.7338
-20.9146
-22.5886
-21.0749
-20.3408
-22.1261
-20.4541
-18.9949
-20.4463
-19.8203
-18.9984
-19.7344
-19.3012
-19.6426
-19.0563
-18.8266
-18.4299
-18.4548
-19.2509
-17.7421
-17.9483
-19.7544
-16.9815
-17.929
-13.1536
-16.6675
-20.316
-8.79974
-22.1345
-49.6872
-39.3533
-34.9626
-32.814
-31.6109
-30.9005
-30.4948
-30.3089
-38.9366
-29.8874
-37.0289
-29.1674
-22.0356
-29.6049
-26.3916
-21.6464
-26.9406
-24.0499
-28.8919
-24.7461
-22.7223
-28.4059
-23.7915
-19.5033
-24.7339
-22.8939
-19.9042
-23.485
-21.6775
-24.9127
-22.2043
-20.9124
-24.5741
-21.5887
-19.0247
-22.0639
-20.56
-23.1336
-20.9505
-19.9321
-22.7123
-20.3988
-18.4364
-20.7165
-19.8109
-18.677
-19.8497
-19.1545
-19.752
-18.9527
-18.7604
-18.2491
-18.2605
-19.5334
-17.3347
-17.6048
-20.4012
-16.3107
-18.4334
-11.3165
-16.2663
-21.9387
-3.62754
-19.8437
-57.2125
-40.0269
-35.1103
-32.8697
-31.639
-30.9176
-30.507
-30.3193
)
;

boundaryField
{
    left
    {
        type            calculated;
        value           nonuniform List<scalar> 
32
(
-26.4237
-26.446
-26.4887
-26.5499
-26.6284
-26.723
-26.8331
-26.9584
-27.0986
-27.254
-27.4246
-27.6111
-27.8141
-28.0343
-28.273
-28.5312
-28.8104
-29.1122
-29.4384
-29.7912
-30.1732
-30.5874
-31.0379
-31.5301
-32.0714
-32.6723
-33.3475
-34.118
-35.0134
-36.0745
-37.3573
-38.9366
)
;
    }
    right
    {
        type            calculated;
        value           nonuniform List<scalar> 
32
(
-25.7943
-25.8289
-25.8949
-25.9889
-26.1078
-26.2493
-26.4108
-26.5901
-26.7849
-26.9928
-27.2114
-27.4382
-27.6706
-27.9056
-28.1407
-28.373
-28.5998
-28.8184
-29.0267
-29.2223
-29.4037
-29.5693
-29.7182
-29.8498
-29.9639
-30.0606
-30.1405
-30.2042
-30.2527
-30.2872
-30.3089
-30.3193
)
;
    }
    interface
    {
        type            calculated;
        value           nonuniform List<scalar> 
64
(
-39.8112
-29.1316
-38.1173
-29.1342
-20.9836
-30.2237
-26.4621
-20.9196
-27.3339
-23.649
-29.5063
-24.619
-22.2482
-29.12
-23.7636
-18.8099
-25.1333
-22.9456
-19.4263
-23.742
-21.4147
-25.3165
-22.1169
-20.6026
-25.0275
-21.5526
-18.5982
-22.2728
-20.3429
-23.4522
-20.8763
-19.6902
-23.056
-20.3681
-18.1155
-20.8834
-19.8092
-18.494
-19.9259
-19.0691
-19.8208
-18.8955
-18.7309
-18.154
-18.152
-19.7098
-17.1075
-17.4097
-20.7935
-15.9178
-18.7783
-10.2823
-16.0659
-22.991
-0.698837
-18.488
-61.5104
-40.2407
-35.1477
-32.8833
-31.6458
-30.9218
-30.51
-30.3219
)
;
    }
    bottom
    {
        type            calculated;
        value           nonuniform List<scalar> 
64
(
-26.4179
-26.3904
-26.3364
-26.2572
-26.1549
-26.0321
-25.8914
-25.7357
-25.5677
-25.39
-25.205
-25.0148
-24.8213
-24.6263
-24.4312
-24.2374
-24.046
-23.8578
-23.6738
-23.4944
-23.32
-23.1512
-22.988
-22.8308
-22.6799
-22.5353
-22.3975
-22.2668
-22.1435
-22.0281
-21.9213
-21.8235
-21.7357
-21.6585
-21.593
-21.5402
-21.5011
-21.477
-21.469
-21.4784
-21.5065
-21.5545
-21.6236
-21.7149
-21.8295
-21.968
-22.1308
-22.3178
-22.5283
-22.7608
-23.0131
-23.2818
-23.5627
-23.8506
-24.1394
-24.4226
-24.6936
-24.9458
-25.1732
-25.3704
-25.5332
-25.6581
-25.7426
-25.7853
)
;
    }
    defaultFaces
    {
        type            empty;
    }
}


// ************************************************************************* //
