/*--------------------------------*- C++ -*----------------------------------*\
| =========                 |                                                 |
| \\      /  F ield         | OpenFOAM: The Open Source CFD Toolbox           |
|  \\    /   O peration     | Version:  5.x                                   |
|   \\  /    A nd           | Web:      www.OpenFOAM.org                      |
|    \\/     M anipulation  |                                                 |
\*---------------------------------------------------------------------------*/
FoamFile
{
    version     2.0;
    format      ascii;
    class       volScalarField;
    location    "9.5";
    object      gradTx;
}
// * * * * * * * * * * * * * * * * * * * * * * * * * * * * * * * * * * * * * //

dimensions      [0 -1 0 1 0 0 0];

internalField   nonuniform List<scalar> 
2048
(
0.00630487
0.018734
0.0306381
0.0417193
0.0517487
0.060577
0.0681337
0.0744168
0.0794758
0.0833937
0.0862702
0.0882097
0.089314
0.0896801
0.0894004
0.0885641
0.0872578
0.0855653
0.0835643
0.0813233
0.0788981
0.0763293
0.0736418
0.0708458
0.0679389
0.0649092
0.061737
0.0583967
0.0548576
0.0510837
0.0470347
0.0426669
0.0379352
0.0327951
0.0272045
0.021126
0.0145273
0.00738218
-0.000328881
-0.00861755
-0.0174854
-0.02692
-0.0368902
-0.0473384
-0.0581731
-0.0692595
-0.0804106
-0.0913791
-0.101854
-0.111462
-0.11978
-0.126358
-0.130752
-0.132569
-0.131511
-0.127415
-0.120276
-0.110247
-0.097615
-0.0827647
-0.0661294
-0.0481501
-0.0292468
-0.00980737
0.0187882
0.055817
0.0912549
0.124203
0.153976
0.180133
0.202475
0.221008
0.235896
0.247395
0.255813
0.261462
0.264647
0.265653
0.264752
0.262208
0.258277
0.253209
0.247237
0.240566
0.233363
0.225748
0.217795
0.209531
0.200947
0.192007
0.18265
0.172801
0.162368
0.151244
0.139311
0.126436
0.112485
0.0973235
0.0808274
0.0628844
0.0433985
0.0222918
-0.0004945
-0.0249968
-0.0512226
-0.0791399
-0.108662
-0.139625
-0.171767
-0.204696
-0.237866
-0.270549
-0.301824
-0.330579
-0.355542
-0.375355
-0.388669
-0.394286
-0.391293
-0.37919
-0.35796
-0.328072
-0.290411
-0.246151
-0.196608
-0.143109
-0.0869049
-0.0291382
0.0311396
0.0924816
0.151104
0.205482
0.254468
0.297347
0.333821
0.363947
0.388037
0.406556
0.420034
0.429002
0.433959
0.435371
0.433678
0.429305
0.422677
0.414205
0.40428
0.393246
0.381383
0.368888
0.355878
0.342392
0.328408
0.31386
0.298647
0.282643
0.265698
0.247638
0.228263
0.207355
0.184688
0.16004
0.1332
0.103983
0.0722329
0.0378197
0.000645012
-0.039356
-0.0822048
-0.127863
-0.176204
-0.226984
-0.279797
-0.334028
-0.388803
-0.442949
-0.494956
-0.54298
-0.58489
-0.618377
-0.641129
-0.65107
-0.646605
-0.626858
-0.591797
-0.54225
-0.479767
-0.406387
-0.324372
-0.23596
-0.143223
-0.0480091
0.0435991
0.129424
0.211271
0.286935
0.35479
0.413865
0.463814
0.504809
0.537377
0.562243
0.580194
0.591988
0.598319
0.599816
0.597068
0.590656
0.581162
0.569166
0.555222
0.539824
0.523366
0.506124
0.488251
0.469787
0.450686
0.430845
0.410118
0.388332
0.365282
0.340725
0.314384
0.285952
0.255106
0.221528
0.184925
0.145038
0.101648
0.0545785
0.0036895
-0.0511175
-0.109889
-0.172598
-0.239106
-0.309117
-0.382122
-0.457325
-0.533575
-0.609289
-0.682395
-0.75032
-0.810033
-0.858194
-0.891411
-0.906586
-0.901323
-0.874285
-0.825428
-0.756009
-0.668377
-0.56559
-0.450971
-0.327744
-0.198792
-0.0666106
0.0563823
0.167266
0.272717
0.369765
0.456277
0.531058
0.593787
0.64484
0.685057
0.715495
0.737243
0.751302
0.758548
0.759752
0.755632
0.7469
0.734298
0.71858
0.700483
0.680661
0.659635
0.637759
0.615209
0.592012
0.568085
0.543273
0.517384
0.490199
0.461462
0.430869
0.398062
0.362638
0.324171
0.282241
0.236465
0.186511
0.132104
0.0730199
0.00907891
-0.059857
-0.133873
-0.212974
-0.29704
-0.385765
-0.478581
-0.574569
-0.672355
-0.770002
-0.864915
-0.953787
-1.03264
-1.09698
-1.14216
-1.16385
-1.15867
-1.12469
-1.06185
-0.971938
-0.858325
-0.725312
-0.57748
-0.419133
-0.253974
-0.085056
0.069694
0.206596
0.336336
0.455065
0.560111
0.650097
0.724827
0.785016
0.831934
0.867071
0.89187
0.907588
0.915265
0.915775
0.909927
0.89855
0.882538
0.862838
0.840389
0.816035
0.790437
0.764025
0.736988
0.709316
0.680861
0.651406
0.620709
0.588509
0.554509
0.518351
0.479594
0.43773
0.392217
0.342523
0.288168
0.228747
0.163933
0.0934639
0.0171215
-0.0652762
-0.153867
-0.248713
-0.349746
-0.456695
-0.568988
-0.685646
-0.805146
-0.925269
-1.04295
-1.15415
-1.25389
-1.3364
-1.39552
-1.42542
-1.42142
-1.38085
-1.30358
-1.19213
-1.05119
-0.88662
-0.704538
-0.510464
-0.308917
-0.103385
0.0837385
0.247993
0.402996
0.543872
0.66737
0.771998
0.857827
0.92608
0.97862
1.01749
1.04454
1.06129
1.06892
1.06834
1.0604
1.04602
1.02625
1.00224
0.975184
0.946146
0.915949
0.8851
0.853778
0.821903
0.789233
0.755468
0.72031
0.68347
0.644629
0.603381
0.559203
0.511469
0.459499
0.402634
0.340288
0.271987
0.197361
0.11612
0.0280147
-0.067183
-0.169678
-0.279616
-0.397019
-0.521695
-0.653131
-0.790361
-0.9318
-1.07504
-1.21661
-1.35182
-1.4746
-1.57772
-1.65325
-1.69347
-1.69203
-1.6452
-1.55281
-1.41831
-1.24811
-1.05014
-0.832382
-0.601754
-0.363563
-0.121568
0.0987273
0.292054
0.473574
0.6372
0.779065
0.897659
0.993512
1.06857
1.1255
1.16703
1.19551
1.21269
1.21982
1.21778
1.20741
1.18965
1.16571
1.13702
1.10504
1.07113
1.03629
1.00111
0.965729
0.92995
0.893395
0.855653
0.816369
0.775246
0.731972
0.68611
0.637051
0.58403
0.526206
0.462765
0.393009
0.316394
0.232527
0.141105
0.0418616
-0.0654771
-0.181198
-0.305558
-0.438708
-0.580584
-0.730793
-0.888462
-1.05205
-1.21906
-1.38577
-1.54684
-1.69515
-1.82182
-1.9168
-1.96995
-1.97275
-1.92004
-1.8115
-1.65186
-1.44984
-1.21607
-0.960862
-0.692709
-0.41766
-0.139505
0.114886
0.339409
0.54898
0.736071
0.896166
1.02788
1.13246
1.21285
1.27278
1.31582
1.34487
1.36192
1.36817
1.36438
1.35125
1.32973
1.30119
1.26736
1.23008
1.19105
1.15151
1.11213
1.07296
1.03362
0.993527
0.952138
0.909039
0.863961
0.816638
0.766633
0.713246
0.655541
0.592479
0.523061
0.446456
0.362067
0.269495
0.168456
0.0586831
-0.060139
-0.188393
-0.326478
-0.474713
-0.633212
-0.801758
-0.979656
-1.16551
-1.35692
-1.55002
-1.73899
-1.91563
-2.06927
-2.18731
-2.25661
-2.26573
-2.20756
-2.08148
-1.89393
-1.6568
-1.38423
-1.08945
-0.782735
-0.470765
-0.157037
0.132461
0.390741
0.630179
0.841537
1.01962
1.16339
1.27511
1.3591
1.42043
1.46375
1.49256
1.50899
1.5141
1.50835
1.49219
1.46652
1.43288
1.39339
1.35036
1.30593
1.26164
1.21822
1.17557
1.13305
1.08981
1.0451
0.998457
0.949704
0.898687
0.845004
0.787853
0.726092
0.658424
0.583624
0.500714
0.409051
0.308271
0.198142
0.0784286
-0.05122
-0.191297
-0.342379
-0.504994
-0.679475
-0.865838
-1.06364
-1.27178
-1.48807
-1.70875
-1.92771
-2.13577
-2.3203
-2.46571
-2.55507
-2.57312
-2.50997
-2.3645
-2.14547
-1.86904
-1.55401
-1.21723
-0.870952
-0.522258
-0.173941
0.151725
0.446795
0.718212
0.954694
1.15037
1.30482
1.42177
1.50734
1.5683
1.61058
1.63836
1.65382
1.65766
1.64987
1.6305
1.60028
1.56098
1.51521
1.4659
1.41573
1.36663
1.31938
1.27364
1.2284
1.18242
1.1347
1.08475
1.03253
0.978132
0.921229
0.860903
0.79574
0.724123
0.644538
0.555835
0.457352
0.348807
0.230075
0.100984
-0.0388345
-0.190005
-0.353319
-0.529561
-0.719321
-0.922884
-1.14014
-1.37037
-1.61186
-1.86118
-2.11221
-2.35498
-2.57483
-2.75265
-2.86685
-2.89709
-2.82959
-2.66236
-2.40724
-2.08628
-1.72442
-1.34295
-0.956202
-0.571358
-0.189945
0.172979
0.508398
0.81421
1.0767
1.28935
1.45275
1.57263
1.65742
1.71601
1.75589
1.78195
1.79624
1.79887
1.78912
1.76642
1.73125
1.68567
1.63291
1.57667
1.52037
1.46641
1.4156
1.36726
1.31983
1.27157
1.22114
1.16803
1.11248
1.05495
0.995277
0.932393
0.864524
0.789642
0.70587
0.611852
0.506943
0.391015
0.264114
0.126182
-0.0231522
-0.184662
-0.359409
-0.548482
-0.752757
-0.972806
-1.2089
-1.46085
-1.72759
-2.00637
-2.29144
-2.57236
-2.83243
-3.04856
-3.19338
-3.23996
-3.16897
-2.97691
-2.67982
-2.30785
-1.89401
-1.46494
-1.03708
-0.617151
-0.204734
0.196564
0.576462
0.919407
1.20879
1.43748
1.60766
1.72775
1.80904
1.86304
1.89913
1.9229
1.93604
1.93774
1.92629
1.90025
1.85972
1.80712
1.74654
1.68262
1.61972
1.56084
1.50684
1.45651
1.40752
1.35748
1.30464
1.24842
1.18955
1.12907
1.06708
1.0023
0.932468
0.855044
0.767687
0.668786
0.557772
0.434771
0.300075
0.153802
-0.00439068
-0.175459
-0.360803
-0.561875
-0.779853
-1.01558
-1.26974
-1.54279
-1.83454
-2.14325
-2.46411
-2.78668
-3.09236
-3.35358
-3.53602
-3.60419
-3.53095
-3.31018
-2.96365
-2.53268
-2.06088
-1.58123
-1.11197
-0.658617
-0.217962
0.222859
0.652
1.03515
1.35226
1.59569
1.76995
1.88706
1.96175
2.0087
2.03959
2.06068
2.07296
2.07426
2.06158
2.03232
1.98598
1.92552
1.85614
1.78365
1.71358
1.64976
1.59306
1.54148
1.49167
1.44044
1.38544
1.32605
1.2637
1.20037
1.13653
1.07057
0.999586
0.920393
0.830064
0.726655
0.609767
0.47992
0.337736
0.183586
0.0171911
-0.162622
-0.357687
-0.569902
-0.800742
-1.05128
-1.32258
-1.61587
-1.93201
-2.27072
-2.62875
-2.9964
-3.35349
-3.66754
-3.89599
-3.99247
-3.91881
-3.66444
-3.25893
-2.75922
-2.22268
-1.68949
-1.17909
-0.694676
-0.229274
0.252291
0.736128
1.16291
1.50851
1.76486
1.93994
2.05037
2.11495
2.15216
2.17643
2.19472
2.20674
2.20843
2.19525
2.16303
2.11038
2.04105
1.96176
1.87963
1.80171
1.73296
1.67418
1.62227
1.57251
1.52074
1.46384
1.40104
1.33487
1.26869
1.20349
1.13716
1.06589
0.985763
0.893093
0.785479
0.662838
0.526283
0.376845
0.215232
0.0412988
-0.146403
-0.350274
-0.572762
-0.815625
-1.08005
-1.36743
-1.67983
-2.01939
-2.38761
-2.78371
-3.19968
-3.61433
-3.98991
-4.27435
-4.40778
-4.33645
-4.0423
-3.56567
-2.98537
-2.37655
-1.78713
-1.23655
-0.724242
-0.238319
0.285342
0.830069
1.30428
1.67903
1.94585
2.11777
2.21739
2.26793
2.29239
2.3087
2.32439
2.33711
2.34024
2.32758
2.29286
2.23327
2.15389
2.06342
1.97042
1.88383
1.81016
1.75014
1.69902
1.65028
1.59875
1.54021
1.47355
1.40293
1.33378
1.26779
1.20201
1.13139
1.05124
0.956899
0.845281
0.716876
0.573664
0.417122
0.248408
0.0676076
-0.12707
-0.338782
-0.570679
-0.824758
-1.10213
-1.4044
-1.73457
-2.09617
-2.4928
-2.92718
-3.39439
-3.87299
-4.31973
-4.67186
-4.85335
-4.78851
-4.44677
-3.88352
-3.20837
-2.51909
-1.87131
-1.28246
-0.746273
-0.244771
0.322562
0.935149
1.46098
1.86542
2.13946
2.30346
2.38772
2.41985
2.42826
2.43533
2.44902
2.46384
2.4697
2.45889
2.42239
2.35508
2.26419
2.16119
2.05586
1.95956
1.88103
1.82084
1.77189
1.72527
1.67486
1.615
1.54374
1.4677
1.39535
1.32924
1.26506
1.19608
1.11692
1.02165
0.906097
0.771753
0.621855
0.458268
0.282746
0.0957662
-0.1049
-0.323428
-0.563892
-0.828455
-1.11786
-1.43372
-1.78013
-2.16202
-2.58523
-3.05728
-3.57812
-4.12724
-4.6556
-5.08889
-5.33269
-5.28068
-4.88147
-4.21166
-3.42468
-2.64643
-1.93906
-1.31496
-0.75984
-0.248355
0.364588
1.05279
1.63484
2.06946
2.34635
2.49679
2.5609
2.56981
2.55846
2.5551
2.56799
2.58681
2.59679
2.58955
2.55234
2.47622
2.37207
2.25514
2.13577
2.02847
1.94517
1.88623
1.84113
1.79772
1.74951
1.68878
1.61181
1.52891
1.45299
1.38761
1.3263
1.25995
1.18291
1.08757
0.967967
0.827304
0.670644
0.499975
0.317847
0.125399
-0.080167
-0.304409
-0.552636
-0.827077
-1.12767
-1.45572
-1.81668
-2.21681
-2.66396
-3.17205
-3.74823
-4.37446
-4.99557
-5.52516
-5.84957
-5.81997
-5.35066
-4.54862
-3.6298
-2.75419
-1.98739
-1.33241
-0.764184
-0.248859
0.412186
1.18448
1.82774
2.29309
2.56707
2.69729
2.73649
2.71689
2.68151
2.6667
2.68068
2.70601
2.72144
2.71991
2.68365
2.59713
2.47753
2.34543
2.21001
2.09002
2.00211
1.94626
1.90702
1.86787
1.82316
1.76227
1.67797
1.58618
1.50621
1.4427
1.38577
1.32296
1.24932
1.155
1.03094
0.883317
0.719831
0.541928
0.353278
0.156108
-0.0531394
-0.281885
-0.537132
-0.821031
-1.1321
-1.47081
-1.84454
-2.26071
-2.72822
-3.26948
-3.90184
-4.61181
-5.33722
-5.97945
-6.40787
-6.4152
-5.8595
-4.89196
-3.81813
-2.83755
-2.01338
-1.3334
-0.758772
-0.246157
0.466315
1.33175
2.04164
2.53858
2.80191
2.90406
2.91413
2.86014
2.79579
2.76866
2.78656
2.82162
2.84345
2.85031
2.81753
2.71822
2.58046
2.43232
2.27845
2.14358
2.05125
2.00091
1.97003
1.93587
1.89627
1.83642
1.74248
1.63899
1.55438
1.49429
1.44362
1.385
1.31624
1.2244
1.09504
0.939502
0.769251
0.583823
0.388569
0.18747
-0.0240705
-0.255964
-0.517569
-0.810758
-1.13175
-1.47945
-1.86417
-2.2942
-2.77748
-3.34759
-4.0359
-4.83622
-5.67768
-6.44922
-7.01137
-7.0775
-6.41418
-5.23785
-3.98282
-2.89141
-2.0144
-1.31693
-0.743342
-0.240216
0.528236
1.4961
2.27837
2.80866
3.05084
3.11571
3.09369
2.99869
2.89944
2.85935
2.88522
2.93418
2.96238
2.981
2.95561
2.83984
2.68045
2.51627
2.34102
2.18837
2.0919
2.05024
2.03077
2.00172
1.96924
1.91247
1.80561
1.68664
1.59673
1.54221
1.50013
1.44586
1.38372
1.29644
1.1603
0.995452
0.818802
0.625371
0.423199
0.219038
0.00680408
-0.226685
-0.494087
-0.79673
-1.12738
-1.4821
-1.8761
-2.31818
-2.81145
-3.40441
-4.14717
-5.04459
-6.01382
-6.93011
-7.66348
-7.82112
-7.02218
-5.58053
-4.11556
-2.91049
-1.98822
-1.28244
-0.717932
-0.231103
0.599703
1.67892
2.53959
3.10677
3.31341
3.33012
3.27549
3.13176
2.99037
2.93695
2.97638
3.04469
3.07744
3.11206
3.10016
2.96216
2.77674
2.59809
2.39773
2.22342
2.12319
2.09434
2.09018
2.06517
2.04238
1.99213
1.86765
1.72819
1.63234
1.58631
1.55586
1.50514
1.45172
1.37207
1.22668
1.05058
0.868506
0.66631
0.456589
0.250342
0.0392665
-0.193998
-0.46676
-0.779443
-1.11988
-1.47922
-1.88085
-2.33403
-2.83016
-3.43804
-4.23218
-5.23393
-6.34259
-7.41526
-8.36669
-8.6645
-7.69246
-5.91144
-4.20655
-2.88964
-1.93325
-1.22993
-0.682891
-0.218983
0.683242
1.88138
2.8265
3.43743
3.58851
3.54417
3.46061
3.25872
3.06621
2.99941
3.0599
3.15486
3.18724
3.24327
3.25433
3.08513
2.86795
2.67907
2.44866
2.24758
2.14409
2.1334
2.14964
2.12557
2.11579
2.07768
1.92887
1.76241
1.66009
1.62651
1.61172
1.56218
1.52006
1.4527
1.29403
1.10406
0.918579
0.70641
0.488079
0.280886
0.0731137
-0.157747
-0.435581
-0.759403
-1.11032
-1.47111
-1.87887
-2.34375
-2.83392
-3.44664
-4.28723
-5.40146
-6.66153
-7.89453
-9.12178
-9.63155
-8.43571
-6.21825
-4.24452
-2.82412
-1.84869
-1.15996
-0.638871
-0.204111
0.782591
2.10424
3.13951
3.8068
3.87418
3.7534
3.65131
3.37905
3.1242
3.04443
3.13578
3.26745
3.2895
3.37394
3.42259
3.20827
2.95191
2.76131
2.49398
2.2594
2.15335
2.16763
2.21116
2.18168
2.18926
2.17229
1.98946
1.78772
1.67868
1.66279
1.66916
1.61585
1.58833
1.54037
1.36206
1.15468
0.969547
0.745468
0.516903
0.310161
0.108149
-0.117651
-0.400449
-0.737107
-1.10003
-1.45793
-1.87038
-2.35013
-2.82335
-3.42852
-4.30823
-5.54481
-6.96965
-8.3535
-9.9268
-10.7535
-9.26459
-6.48346
-4.21684
-2.71001
-1.73468
-1.07367
-0.586794
-0.186822
0.903345
2.34764
3.47773
4.22345
4.16724
3.9515
3.85166
3.49227
3.16114
3.06939
3.20408
3.38671
3.38069
3.50268
3.61131
3.33047
3.02524
2.84807
2.53386
2.25711
2.14949
2.19728
2.27771
2.23141
2.26212
2.28029
2.04938
1.80211
1.68661
1.69513
1.7304
1.66446
1.65578
1.63797
1.43017
1.20073
1.0224
0.783292
0.54216
0.337655
0.144166
-0.0732834
-0.36116
-0.713009
-1.09071
-1.43955
-1.85514
-2.35692
-2.79929
-3.38216
-4.29058
-5.66198
-7.26863
-8.77237
-10.7756
-12.0713
-10.1938
-6.68267
-4.11005
-2.54469
-1.59242
-0.972731
-0.527806
-0.167504
1.05386
2.61077
3.83832
4.69941
4.46292
4.12972
4.06835
3.5978
3.17332
3.07136
3.26477
3.51899
3.45553
3.62708
3.82942
3.44969
3.08297
2.94428
2.56837
2.23857
2.13076
2.22248
2.3536
2.27153
2.33301
2.40764
2.10826
1.80313
1.68221
1.72348
1.79875
1.70541
1.72116
1.74968
1.4974
1.23982
1.07882
0.819658
0.56277
0.362882
0.180922
-0.0240478
-0.317405
-0.687466
-1.0846
-1.41552
-1.83224
-2.36916
-2.76269
-3.30636
-4.22895
-5.75128
-7.56448
-9.12463
-11.6556
-13.6382
-11.2404
-6.78242
-3.91053
-2.32733
-1.42423
-0.859314
-0.463216
-0.146586
1.24648
2.89152
4.21554
5.25159
4.75421
4.27613
4.31173
3.69465
3.15645
3.04714
3.31743
3.67357
3.50631
3.74332
4.08945
3.56254
3.11802
3.05726
2.59729
2.20122
2.09522
2.24311
2.44503
2.2972
2.39963
2.56249
2.16506
1.78781
1.66365
1.7476
1.87902
1.73492
1.78256
1.88132
1.56215
1.26866
1.14146
0.854231
0.577439
0.38542
0.218104
0.0308482
-0.268782
-0.660647
-1.08461
-1.38496
-1.79971
-2.39354
-2.71443
-3.20037
-4.11698
-5.81096
-7.86977
-9.37565
-12.5456
-15.5238
-12.4234
-6.73758
-3.60581
-2.05935
-1.23349
-0.735931
-0.394425
-0.124508
1.49924
3.18594
4.59955
5.9036
5.0312
4.37459
4.59724
3.78089
3.10564
2.99328
3.36084
3.86372
3.52219
3.84566
4.4087
3.66379
3.1205
3.19757
2.61978
2.14204
2.04071
2.25848
2.56074
2.30152
2.45846
2.75585
2.21775
1.7527
1.62907
1.76682
1.97806
1.74764
1.83714
2.04098
1.622
1.28279
1.21429
0.886448
0.584613
0.404975
0.25527
0.0924281
-0.21483
-0.632405
-1.09461
-1.34648
-1.75412
-2.43892
-2.65493
-3.0642
-3.94706
-5.83853
-8.20641
-9.48114
-13.4123
-17.8184
-13.7636
-6.48821
-3.18623
-1.74483
-1.02455
-0.605329
-0.322854
-0.101707
1.83793
3.48767
4.97486
6.688
5.28013
4.40375
4.94708
3.85292
3.01544
2.9063
3.39235
4.10798
3.48821
3.92582
4.81068
3.7457
3.07701
3.38015
2.63389
2.05764
1.96499
2.26693
2.71291
2.27489
2.50433
3.00252
2.26272
1.69386
1.57668
1.77979
2.10544
1.73615
1.88089
2.23971
1.67332
1.27628
1.30311
0.915334
0.582438
0.421462
0.29178
0.161992
-0.155081
-0.6021
-1.11972
-1.29816
-1.69003
-2.51697
-2.58375
-2.89897
-3.71001
-5.82967
-8.60915
-9.38564
-14.2059
-20.6382
-15.2833
-5.95597
-2.64745
-1.39075
-0.802486
-0.470328
-0.24988
-0.0785918
2.29878
3.7872
5.31848
7.64911
5.48223
4.33564
5.39232
3.90445
2.87994
2.78288
3.40697
4.43183
3.38422
3.97223
5.32691
3.79724
2.96972
3.62569
2.63589
1.94423
1.8659
2.26527
2.91818
2.20429
2.53003
3.32211
2.29418
1.60707
1.5049
1.7839
2.27422
1.69042
1.90826
2.4923
1.71095
1.2414
1.41607
0.939244
0.568735
0.435113
0.3267
0.241176
-0.089158
-0.568348
-1.16667
-1.23754
-1.59934
-2.643
-2.49889
-2.70744
-3.39485
-5.7766
-9.12969
-9.02092
-14.8557
-24.1317
-17.0052
-5.0401
-1.99352
-1.00697
-0.572822
-0.333679
-0.176775
-0.0555341
2.93169
4.07098
5.59766
8.84622
5.61243
4.13431
5.9754
3.92508
2.69304
2.62027
3.39617
4.86965
3.18367
3.96922
5.99888
3.80312
2.77541
3.96223
2.61938
1.79787
1.74161
2.24802
3.19895
2.07248
2.52578
3.74025
2.30323
1.48791
1.41268
1.77476
2.50202
1.59711
1.9118
2.81826
1.72766
1.16822
1.56437
0.955534
0.540982
0.44661
0.358677
0.332036
-0.0169127
-0.528709
-1.24418
-1.16158
-1.47045
-2.83695
-2.39593
-2.49469
-2.98874
-5.66579
-9.84148
-8.30471
-15.2645
-28.4863
-18.9508
-3.61292
-1.24083
-0.605813
-0.341146
-0.197923
-0.104662
-0.0328558
3.804
4.32044
5.76729
10.3575
5.63767
3.75413
6.75297
3.89856
2.44878
2.41679
3.3464
5.46692
2.85215
3.896
6.88035
3.74273
2.46441
4.42707
2.57412
1.61466
1.59093
2.20637
3.58486
1.8571
2.4787
4.29005
2.27678
1.33215
1.29975
1.74536
2.8121
1.43891
1.88173
3.24286
1.71361
1.04421
1.763
0.960122
0.496339
0.45724
0.385793
0.437149
0.0613851
-0.479292
-1.36342
-1.06683
-1.28741
-3.12459
-2.26696
-2.26889
-2.47696
-5.47511
-10.8451
-7.13949
-15.3013
-33.9371
-21.1394
-1.51516
-0.422855
-0.201267
-0.112737
-0.0652793
-0.0344905
-0.010824
)
;

boundaryField
{
    left
    {
        type            calculated;
        value           uniform 0;
    }
    right
    {
        type            calculated;
        value           uniform 0;
    }
    interface
    {
        type            calculated;
        value           nonuniform List<scalar> 
64
(
3.804
4.32044
5.76729
10.3575
5.63767
3.75413
6.75297
3.89856
2.44878
2.41679
3.3464
5.46692
2.85215
3.896
6.88035
3.74273
2.46441
4.42707
2.57412
1.61466
1.59093
2.20637
3.58486
1.8571
2.4787
4.29005
2.27678
1.33215
1.29975
1.74536
2.8121
1.43891
1.88173
3.24286
1.71361
1.04421
1.763
0.960122
0.496339
0.45724
0.385793
0.437149
0.0613851
-0.479292
-1.36342
-1.06683
-1.28741
-3.12459
-2.26696
-2.26889
-2.47696
-5.47511
-10.8451
-7.13949
-15.3013
-33.9371
-21.1394
-1.51516
-0.422855
-0.201267
-0.112737
-0.0652793
-0.0344905
-0.010824
)
;
    }
    bottom
    {
        type            calculated;
        value           nonuniform List<scalar> 
64
(
0.00630487
0.018734
0.0306381
0.0417193
0.0517487
0.060577
0.0681337
0.0744168
0.0794758
0.0833937
0.0862702
0.0882097
0.089314
0.0896801
0.0894004
0.0885641
0.0872578
0.0855653
0.0835643
0.0813233
0.0788981
0.0763293
0.0736418
0.0708458
0.0679389
0.0649092
0.061737
0.0583967
0.0548576
0.0510837
0.0470347
0.0426669
0.0379352
0.0327951
0.0272045
0.021126
0.0145273
0.00738218
-0.000328881
-0.00861755
-0.0174854
-0.02692
-0.0368902
-0.0473384
-0.0581731
-0.0692595
-0.0804106
-0.0913791
-0.101854
-0.111462
-0.11978
-0.126358
-0.130752
-0.132569
-0.131511
-0.127415
-0.120276
-0.110247
-0.097615
-0.0827647
-0.0661294
-0.0481501
-0.0292468
-0.00980737
)
;
    }
    defaultFaces
    {
        type            empty;
    }
}


// ************************************************************************* //
