/*--------------------------------*- C++ -*----------------------------------*\
| =========                 |                                                 |
| \\      /  F ield         | OpenFOAM: The Open Source CFD Toolbox           |
|  \\    /   O peration     | Version:  5.x                                   |
|   \\  /    A nd           | Web:      www.OpenFOAM.org                      |
|    \\/     M anipulation  |                                                 |
\*---------------------------------------------------------------------------*/
FoamFile
{
    version     2.0;
    format      ascii;
    class       volScalarField;
    location    "9.5";
    object      T;
}
// * * * * * * * * * * * * * * * * * * * * * * * * * * * * * * * * * * * * * //

dimensions      [0 0 0 1 0 0 0];

internalField   nonuniform List<scalar> 
2048
(
9.81021
9.8104
9.81079
9.81136
9.8121
9.81298
9.81399
9.81511
9.81631
9.81759
9.81892
9.82029
9.82168
9.82308
9.82448
9.82587
9.82725
9.8286
9.82992
9.83121
9.83246
9.83368
9.83485
9.83598
9.83706
9.8381
9.83909
9.84003
9.84092
9.84174
9.84251
9.84321
9.84384
9.8444
9.84487
9.84525
9.84553
9.8457
9.84576
9.84569
9.84549
9.84515
9.84465
9.84399
9.84317
9.84218
9.84101
9.83966
9.83815
9.83648
9.83467
9.83274
9.83072
9.82865
9.82658
9.82454
9.82259
9.82078
9.81915
9.81773
9.81656
9.81567
9.81506
9.81475
9.43876
9.43934
9.4405
9.4422
9.44438
9.44701
9.45001
9.45334
9.45692
9.46071
9.46465
9.4687
9.47282
9.47697
9.48112
9.48525
9.48932
9.49332
9.49723
9.50104
9.50475
9.50834
9.5118
9.51514
9.51835
9.52142
9.52435
9.52713
9.52975
9.5322
9.53448
9.53656
9.53843
9.54007
9.54147
9.5426
9.54343
9.54395
9.54413
9.54394
9.54335
9.54234
9.54088
9.53894
9.53651
9.53357
9.53012
9.52614
9.52166
9.51671
9.51133
9.5056
9.4996
9.49345
9.48728
9.48122
9.47543
9.47004
9.46518
9.46096
9.45749
9.45482
9.45301
9.4521
9.08311
9.08408
9.086
9.0888
9.09242
9.09676
9.10171
9.10719
9.11309
9.11931
9.12579
9.13244
9.1392
9.146
9.1528
9.15955
9.16622
9.17276
9.17916
9.1854
9.19145
9.19732
9.20298
9.20844
9.21368
9.2187
9.22349
9.22803
9.23232
9.23634
9.24006
9.24347
9.24654
9.24924
9.25154
9.2534
9.25479
9.25566
9.25597
9.25568
9.25474
9.25311
9.25075
9.2476
9.24365
9.23886
9.23321
9.22671
9.21937
9.21124
9.2024
9.19297
9.18308
9.17293
9.16273
9.15272
9.14314
9.13423
9.1262
9.11924
9.1135
9.1091
9.10613
9.10463
8.74234
8.7437
8.74639
8.75031
8.75535
8.76139
8.76829
8.77589
8.78406
8.79268
8.80163
8.81081
8.82013
8.82951
8.83888
8.84817
8.85733
8.86633
8.87512
8.88368
8.89199
8.90004
8.90781
8.91529
8.92249
8.92938
8.93595
8.94219
8.94809
8.95361
8.95873
8.96343
8.96767
8.97141
8.97459
8.97718
8.97913
8.98036
8.98083
8.98048
8.97923
8.97704
8.97384
8.96957
8.96418
8.95763
8.94989
8.94095
8.93085
8.91963
8.9074
8.89432
8.88058
8.86646
8.85225
8.83829
8.82493
8.8125
8.8013
8.79161
8.78363
8.77752
8.77339
8.77131
8.41562
8.41738
8.42084
8.4259
8.4324
8.44016
8.44899
8.45872
8.46915
8.48012
8.4915
8.50316
8.51498
8.52687
8.53873
8.55048
8.56207
8.57343
8.58452
8.59532
8.60579
8.61593
8.62572
8.63516
8.64422
8.65291
8.6612
8.66908
8.67652
8.6835
8.68998
8.69594
8.70132
8.70607
8.71014
8.71346
8.71596
8.71759
8.71825
8.71787
8.71638
8.71369
8.70972
8.7044
8.69766
8.68945
8.67971
8.66844
8.65565
8.64141
8.62584
8.60914
8.59156
8.57345
8.55519
8.53724
8.52004
8.50405
8.48967
8.47723
8.467
8.45919
8.45391
8.45125
8.10216
8.10434
8.10862
8.11485
8.12284
8.13235
8.14315
8.155
8.16768
8.181
8.19478
8.20887
8.22314
8.23747
8.25176
8.26591
8.27984
8.29349
8.3068
8.31975
8.33231
8.34445
8.35618
8.36748
8.37835
8.38876
8.3987
8.40816
8.41709
8.42549
8.43329
8.44047
8.44697
8.45273
8.45768
8.46173
8.46482
8.46686
8.46774
8.46739
8.46571
8.46258
8.45793
8.45165
8.44366
8.43387
8.42223
8.40871
8.39332
8.37612
8.35725
8.33694
8.31549
8.29333
8.27095
8.24891
8.22779
8.20817
8.19054
8.17532
8.16283
8.1533
8.14688
8.14365
7.80126
7.80388
7.80901
7.81647
7.82601
7.83733
7.85013
7.86413
7.87907
7.89472
7.91087
7.92736
7.94403
7.96076
7.97742
7.9939
8.01011
8.02597
8.04143
8.05644
8.07099
8.08507
8.09865
8.11175
8.12434
8.13641
8.14795
8.15892
8.16931
8.17907
8.18816
8.19654
8.20414
8.2109
8.21673
8.22153
8.22523
8.2277
8.22885
8.22858
8.22676
8.22327
8.21802
8.21087
8.20171
8.19046
8.17702
8.16134
8.14342
8.12332
8.10118
8.07724
8.05187
8.02557
7.99895
7.9727
7.94754
7.92417
7.90322
7.88517
7.8704
7.85916
7.8516
7.8478
7.51226
7.51534
7.52138
7.53014
7.5413
7.55449
7.56935
7.58553
7.60274
7.62071
7.63921
7.65807
7.67711
7.69618
7.71516
7.73392
7.75234
7.77034
7.78787
7.80488
7.82134
7.83726
7.85263
7.86744
7.88169
7.89536
7.90843
7.92087
7.93265
7.94374
7.9541
7.96365
7.97235
7.9801
7.98681
7.99238
7.9967
7.99964
8.0011
8.00095
7.99906
7.99529
7.98951
7.98158
7.97137
7.95874
7.9436
7.92587
7.90551
7.88256
7.85717
7.82959
7.80024
7.76969
7.73867
7.70804
7.67867
7.65143
7.62705
7.60612
7.58905
7.5761
7.5674
7.56304
7.23453
7.23812
7.24513
7.25527
7.26813
7.28328
7.30026
7.31867
7.33816
7.35844
7.37928
7.40047
7.42184
7.44322
7.46447
7.48545
7.50603
7.52611
7.54563
7.56455
7.58285
7.60054
7.61761
7.63407
7.64991
7.66511
7.67966
7.69352
7.70666
7.71904
7.73062
7.74133
7.7511
7.75985
7.76745
7.7738
7.77876
7.78222
7.78403
7.78405
7.78215
7.77817
7.77195
7.76333
7.75216
7.73828
7.72154
7.70185
7.67914
7.65342
7.6248
7.59355
7.56013
7.5252
7.48961
7.45439
7.42063
7.38935
7.36144
7.33757
7.31818
7.30353
7.29372
7.28882
6.96749
6.97163
6.9797
6.99132
7.006
7.02319
7.04235
7.06303
7.08483
7.10742
7.13057
7.15406
7.17772
7.20138
7.22486
7.24801
7.27069
7.29279
7.31423
7.33499
7.35504
7.37441
7.39311
7.41115
7.42852
7.44521
7.46118
7.47641
7.49086
7.50449
7.51726
7.52911
7.53995
7.54969
7.55819
7.56533
7.57097
7.57497
7.57717
7.57742
7.57557
7.57144
7.56487
7.55566
7.54363
7.5286
7.51039
7.48886
7.46389
7.43546
7.40365
7.36872
7.33114
7.29166
7.2513
7.21125
7.17286
7.13736
7.10581
7.07896
7.05725
7.04092
7.03003
7.0246
6.7106
6.71534
6.72456
6.73779
6.7544
6.77374
6.79517
6.81817
6.84228
6.86718
6.89261
6.91837
6.94429
6.97018
6.99585
7.02113
7.04586
7.06991
7.09321
7.11572
7.13745
7.15843
7.17868
7.19823
7.21707
7.23518
7.25253
7.26908
7.28479
7.29964
7.31358
7.32655
7.33845
7.34917
7.35859
7.36654
7.37288
7.37745
7.38007
7.3806
7.37886
7.37466
7.36782
7.35811
7.34534
7.32927
7.30971
7.28645
7.25934
7.22829
7.19333
7.1547
7.11287
7.06867
7.02328
6.97814
6.93486
6.89494
6.85963
6.82975
6.80574
6.78778
6.77586
6.76992
6.46334
6.46875
6.47923
6.49419
6.51288
6.53449
6.55828
6.58363
6.61007
6.63726
6.66494
6.69294
6.72108
6.74916
6.77699
6.80436
6.83109
6.85703
6.88212
6.9063
6.92963
6.95213
6.97386
6.99486
7.01511
7.03459
7.05327
7.07109
7.08803
7.10406
7.11914
7.1332
7.14615
7.15788
7.16821
7.177
7.18405
7.18921
7.19231
7.19316
7.19158
7.18739
7.18035
7.17025
7.15683
7.13985
7.11905
7.0942
7.06506
7.0315
6.99346
6.95111
6.90494
6.85584
6.80515
6.75459
6.70612
6.66157
6.62237
6.58945
6.56319
6.54367
6.53078
6.52438
6.22523
6.23137
6.24324
6.2601
6.28102
6.30502
6.33126
6.35902
6.38779
6.41724
6.44714
6.47733
6.50764
6.53788
6.56783
6.59726
6.62595
6.65374
6.68053
6.70632
6.73115
6.75509
6.77824
6.80061
6.82222
6.84303
6.86299
6.88204
6.90016
6.91733
6.93351
6.94865
6.96265
6.97537
6.98664
6.99627
7.00407
7.00986
7.01345
7.01466
7.01331
7.00918
7.00204
6.99162
6.97766
6.95988
6.93799
6.91167
6.88066
6.8447
6.80365
6.75761
6.70702
6.65281
6.59652
6.54018
6.48617
6.43674
6.39356
6.35759
6.32916
6.30818
6.29441
6.2876
5.99579
6.00275
6.01616
6.0351
6.05842
6.08497
6.11373
6.14394
6.17504
6.20671
6.23878
6.27111
6.30356
6.33593
6.36798
6.39944
6.43004
6.45961
6.48805
6.51535
6.5416
6.5669
6.59138
6.61508
6.63799
6.66009
6.68129
6.70153
6.72078
6.73904
6.7563
6.7725
6.78753
6.80126
6.81347
6.82397
6.83253
6.83896
6.84308
6.8447
6.84362
6.83962
6.83244
6.82181
6.80742
6.78896
6.76609
6.73846
6.70571
6.6675
6.62356
6.57386
6.51877
6.45925
6.39702
6.33449
6.27455
6.21997
6.17271
6.13375
6.10325
6.08095
6.06641
6.05924
5.77458
5.78247
5.79759
5.81881
5.84473
5.87396
5.90535
5.93804
5.97144
6.00529
6.03946
6.07388
6.10842
6.14289
6.17702
6.21048
6.24297
6.27427
6.30427
6.333
6.36058
6.38716
6.4129
6.43786
6.46204
6.48538
6.50778
6.52916
6.5495
6.56881
6.58711
6.60434
6.62041
6.63515
6.64832
6.6597
6.66904
6.67614
6.68081
6.68287
6.6821
6.67829
6.67116
6.66039
6.64567
6.62664
6.60294
6.57415
6.53983
6.49953
6.45284
6.39954
6.33989
6.27486
6.20632
6.13712
6.07081
6.0108
5.95938
5.9175
5.88511
5.86165
5.84647
5.83902
5.56119
5.57011
5.58713
5.61086
5.6396
5.67167
5.70578
5.74097
5.77665
5.8126
5.8488
5.88524
5.92183
5.95837
5.99457
6.03002
6.06436
6.09733
6.12884
6.15891
6.18771
6.21548
6.2424
6.26857
6.29397
6.31853
6.34211
6.36458
6.38595
6.40626
6.42557
6.44382
6.46092
6.47668
6.49082
6.50309
6.51323
6.52102
6.52626
6.52878
6.52837
6.52481
6.51779
6.50698
6.49201
6.47253
6.44813
6.41833
6.38262
6.34043
6.29115
6.23435
6.17012
6.09936
6.02412
5.94769
5.87448
5.80873
5.75312
5.70847
5.6744
5.64999
5.63432
5.62667
5.3552
5.36528
5.38442
5.41093
5.44272
5.47779
5.5147
5.55241
5.59032
5.62829
5.66642
5.70482
5.74342
5.782
5.82026
5.8577
5.89385
5.92846
5.96139
5.9927
6.02263
6.05148
6.07953
6.10686
6.13344
6.1592
6.18391
6.20744
6.22978
6.25104
6.27132
6.29057
6.30869
6.32548
6.34062
6.35379
6.36474
6.37323
6.37906
6.38206
6.38205
6.37878
6.37194
6.36116
6.34606
6.32623
6.30125
6.2706
6.23369
6.18981
6.13815
6.078
6.00917
5.93251
5.85014
5.76586
5.68512
5.61332
5.55351
5.5063
5.47081
5.4457
5.42972
5.42195
5.15622
5.16762
5.18912
5.2187
5.25379
5.29203
5.33182
5.37206
5.41212
5.45201
5.49197
5.53226
5.57281
5.61341
5.65373
5.69317
5.73111
5.76729
5.80159
5.83404
5.86498
5.89482
5.92392
5.95236
5.9801
6.00703
6.03287
6.0574
6.08065
6.10281
6.12402
6.14425
6.16339
6.18122
6.19738
6.21147
6.22323
6.23243
6.23885
6.24236
6.24277
6.23985
6.23326
6.22258
6.20741
6.18734
6.16192
6.13057
6.09265
6.04732
5.99352
5.93019
5.85682
5.77408
5.68416
5.59128
5.50228
5.42407
5.36014
5.31064
5.27407
5.24854
5.23243
5.22466
4.96389
4.97677
5.0009
5.03389
5.07256
5.11411
5.15685
5.19962
5.24176
5.28342
5.32509
5.36719
5.40965
5.45224
5.49465
5.5361
5.57581
5.61352
5.6491
5.68259
5.71442
5.74515
5.77524
5.80475
5.83361
5.86172
5.88868
5.91416
5.93825
5.96123
5.98333
6.00453
6.02467
6.04357
6.06077
6.07579
6.08837
6.09828
6.10531
6.10932
6.11019
6.10766
6.10138
6.09088
6.07572
6.0555
6.02976
5.99786
5.95911
5.9126
5.85694
5.79067
5.71282
5.62388
5.52596
5.42363
5.32549
5.24053
5.17261
5.12121
5.08394
5.05829
5.04227
5.03458
4.77784
4.79241
4.81945
4.85621
4.89878
4.94377
4.98954
5.03484
5.07891
5.1222
5.16544
5.20928
5.25361
5.29814
5.34268
5.38619
5.42763
5.46683
5.50364
5.53803
5.57062
5.60213
5.63315
5.6637
5.69365
5.72295
5.75104
5.77741
5.80226
5.82598
5.84895
5.87109
5.89223
5.91223
5.9305
5.94645
5.95986
5.97049
5.9781
5.98263
5.98396
5.98188
5.97596
5.9657
5.95062
5.93033
5.90439
5.87208
5.8327
5.78528
5.72808
5.65916
5.57695
5.48173
5.37541
5.26263
5.15424
5.06218
4.99056
4.93772
4.9002
4.87477
4.85905
4.85154
4.59772
4.61422
4.64447
4.68542
4.73224
4.78076
4.82961
4.87744
4.92332
4.96805
5.01267
5.05821
5.10436
5.15079
5.19752
5.24315
5.28626
5.32691
5.3649
5.40007
5.43328
5.46544
5.49735
5.5289
5.55991
5.59044
5.61967
5.64687
5.67238
5.69676
5.72057
5.74364
5.76576
5.78689
5.80627
5.82314
5.83738
5.84873
5.85692
5.86196
5.86377
5.86217
5.85668
5.84673
5.83179
5.8115
5.78547
5.75287
5.71303
5.66501
5.60664
5.53541
5.449
5.34748
5.23243
5.108
4.98802
4.88855
4.81363
4.75994
4.72267
4.69781
4.6826
4.67538
4.42319
4.44193
4.47566
4.5213
4.57275
4.62484
4.67681
4.7272
4.77468
4.82065
4.86646
4.91366
4.96161
5.00983
5.05886
5.10671
5.15143
5.19348
5.23262
5.26841
5.3021
5.33476
5.36755
5.40008
5.43208
5.46391
5.49434
5.52227
5.54834
5.57328
5.59791
5.6219
5.64495
5.66727
5.68783
5.7056
5.72066
5.73274
5.74148
5.74701
5.7493
5.74824
5.74324
5.73365
5.71888
5.69865
5.67266
5.63988
5.59972
5.55144
5.49228
5.41918
5.32872
5.22097
5.09699
4.95951
4.82623
4.71913
4.6415
4.58767
4.55119
4.52726
4.51276
4.50592
4.25393
4.27528
4.31273
4.36361
4.42015
4.47575
4.5309
4.5839
4.63274
4.67972
4.72647
4.77534
4.82506
4.87494
4.92641
4.97664
5.02282
5.06626
5.10654
5.14278
5.17678
5.20978
5.24345
5.27696
5.30987
5.34308
5.3748
5.40336
5.42987
5.45523
5.4807
5.5056
5.52952
5.5531
5.57492
5.59354
5.60942
5.62225
5.63149
5.6375
5.64027
5.63978
5.63534
5.62617
5.61161
5.59147
5.56564
5.53276
5.4924
5.4442
5.38469
5.31022
5.21589
5.10205
4.96919
4.817
4.6682
4.55338
4.47388
4.42074
4.38563
4.36297
4.34938
4.343
4.08961
4.11406
4.15536
4.21217
4.27433
4.33324
4.39162
4.44734
4.49721
4.54497
4.59235
4.64297
4.69446
4.74576
4.7999
4.85272
4.90015
4.94497
4.98645
5.0229
5.05705
5.0902
5.12479
5.15929
5.19297
5.22771
5.26085
5.28988
5.31672
5.34234
5.36868
5.3945
5.41918
5.44414
5.46731
5.4867
5.5034
5.517
5.52669
5.53315
5.53638
5.53653
5.53271
5.52402
5.50967
5.48964
5.46411
5.43119
5.39067
5.34296
5.28353
5.20833
5.11026
4.99053
4.84921
4.68032
4.51316
4.3908
4.31055
4.25902
4.22587
4.20481
4.19231
4.18647
3.92988
3.95811
4.00324
4.06679
4.13523
4.19701
4.25871
4.31738
4.36784
4.41616
4.46376
4.51629
4.5696
4.62194
4.67906
4.73479
4.78313
4.82933
4.87213
4.90851
4.94267
4.97568
5.01133
5.04686
5.08107
5.11755
5.15232
5.1816
5.20864
5.2343
5.26161
5.28838
5.31363
5.34012
5.36481
5.38482
5.40234
5.41677
5.42682
5.43371
5.43737
5.43821
5.43508
5.42693
5.4128
5.39284
5.36781
5.33487
5.29416
5.24739
5.18846
5.11331
5.01153
4.88617
4.73739
4.54943
4.36016
4.23087
4.15133
4.10243
4.07181
4.05267
4.04141
4.03618
3.77441
3.80734
3.856
3.92729
4.00285
4.06676
4.13191
4.19389
4.24434
4.29306
4.34032
4.39508
4.45029
4.50307
4.56363
4.62274
4.67144
4.71908
4.76344
4.79934
4.8334
4.86593
4.90285
4.93948
4.97384
5.01238
5.04908
5.07827
5.10542
5.13084
5.15928
5.18705
5.21258
5.24083
5.26725
5.28763
5.306
5.32134
5.33161
5.33893
5.34295
5.34458
5.3422
5.33466
5.32072
5.30077
5.27648
5.24351
5.20245
5.15718
5.09912
5.02502
4.9194
4.78863
4.63425
4.42439
4.20806
4.07313
3.99611
3.95093
3.92338
3.90642
3.89653
3.89194
3.62283
3.66178
3.71319
3.79352
3.8773
3.94208
4.01093
4.07683
4.12639
4.17546
4.22161
4.27913
4.33641
4.38871
4.45339
4.5165
4.56472
4.61394
4.66026
4.69511
4.72904
4.76058
4.79914
4.83699
4.87093
4.91198
4.95101
4.97963
5.00687
5.03162
5.06149
5.09034
5.1157
5.14605
5.17449
5.19487
5.21414
5.23054
5.24083
5.24858
5.25288
5.2554
5.25384
5.247
5.2332
5.2131
5.18992
5.15686
5.11512
5.07204
5.01511
4.94338
4.83352
4.69745
4.54053
4.3054
4.05541
3.91717
3.84486
3.80449
3.7805
3.76594
3.75751
3.75362
3.47472
3.52158
3.57428
3.66531
3.75877
3.82254
3.89548
3.9662
4.01363
4.06325
4.10717
4.16828
4.22791
4.27835
4.34809
4.41612
4.46258
4.51363
4.56251
4.5955
4.62945
4.65927
4.70002
4.7393
4.77195
4.81612
4.85807
4.88543
4.91284
4.93634
4.96805
4.99815
5.02266
5.05556
5.08645
5.10625
5.12653
5.1442
5.15423
5.16247
5.16689
5.17044
5.16978
5.16373
5.15001
5.12952
5.10794
5.07471
5.03172
4.99174
4.93597
4.86839
4.75351
4.61194
4.45723
4.19281
3.9004
3.7627
3.69764
3.66313
3.64312
3.63111
3.6242
3.62102
3.32964
3.38707
3.43862
3.54253
3.64762
3.70754
3.78524
3.86213
3.90565
3.95637
3.99647
4.06238
4.12484
4.17138
4.24752
4.32172
4.36458
4.41788
4.47021
4.50018
4.53451
4.56159
4.60535
4.64637
4.67644
4.72463
4.77027
4.79534
4.8232
4.84461
4.87882
4.9104
4.93307
4.96918
5.00307
5.02147
5.04295
5.0622
5.07155
5.0804
5.08472
5.08952
5.08979
5.08467
5.07097
5.04968
5.0304
4.99686
4.95175
4.91612
4.86115
4.80018
4.67898
4.53115
4.38568
4.08722
3.74073
3.60961
3.55461
3.52688
3.51115
3.5018
3.49645
3.49399
3.18701
3.25885
3.30536
3.42505
3.54439
3.59637
3.67988
3.76488
3.8019
3.85488
3.88886
3.96134
4.02736
4.0671
4.15149
4.23357
4.27015
4.32637
4.38345
4.40874
4.44421
4.46705
4.515
4.55824
4.58388
4.63731
4.6877
4.709
4.73792
4.75603
4.79367
4.8271
4.84649
4.88673
4.92438
4.9402
4.96317
4.98445
4.99252
5.00222
5.00612
5.01243
5.01366
5.00965
4.9959
4.97319
4.95722
4.92321
4.87463
4.84512
4.79002
4.73903
4.6095
4.45373
4.3276
3.98949
3.57349
3.45807
3.41598
3.39578
3.38451
3.37788
3.37409
3.37235
3.04618
3.13779
3.1734
3.31272
3.44984
3.48811
3.57904
3.67484
3.7017
3.759
3.78358
3.86513
3.93576
3.96462
4.05979
4.15208
4.17864
4.23881
4.30246
4.32067
4.35865
4.37509
4.4289
4.47506
4.49366
4.55399
4.61054
4.62597
4.65704
4.67011
4.7125
4.7483
4.76241
4.80805
4.85048
4.86204
4.88699
4.91092
4.91685
4.92783
4.93081
4.93904
4.94118
4.93851
4.92466
4.89963
4.88836
4.85368
4.79971
4.7788
4.72175
4.68541
4.54469
4.37786
4.28517
3.90084
3.39497
3.30863
3.28207
3.26986
3.26314
3.25919
3.25695
3.25592
2.90633
3.0252
3.04134
3.20543
3.36501
3.38161
3.48233
3.59264
3.60416
3.66916
3.67968
3.77374
3.85052
3.86287
3.97227
4.07788
4.08924
4.15489
4.22758
4.23533
4.27804
4.28505
4.34699
4.39708
4.40502
4.47454
4.53909
4.54568
4.58072
4.5863
4.63526
4.67418
4.68023
4.73298
4.78156
4.78653
4.8142
4.84163
4.8442
4.85714
4.85849
4.8692
4.87215
4.87111
4.85717
4.82851
4.82383
4.78828
4.72619
4.71743
4.65529
4.64003
4.48419
4.30112
4.26108
3.82295
3.20055
3.16234
3.1532
3.14913
3.14691
3.14561
3.14487
3.14453
)
;

boundaryField
{
    left
    {
        type            zeroGradient;
    }
    right
    {
        type            zeroGradient;
    }
    interface
    {
        type            fixedValue;
        value           nonuniform List<scalar> 
64
(
2.83483
2.97289
2.97289
3.15311
3.32734
3.32734
3.43482
3.55509
3.55509
3.62671
3.62671
3.72952
3.81056
3.81056
3.92961
4.04414
4.04414
4.11374
4.19276
4.19276
4.23964
4.23964
4.30726
4.36003
4.36003
4.43587
4.50581
4.50581
4.5443
4.5443
4.59782
4.63884
4.63884
4.69643
4.74906
4.74906
4.77865
4.80843
4.80843
4.82291
4.82291
4.83529
4.83855
4.83855
4.82459
4.79311
4.79311
4.75701
4.68886
4.68886
4.62158
4.62158
4.45535
4.25984
4.25984
3.78975
3.09006
3.09006
3.09006
3.09006
3.09006
3.09006
3.09006
3.09006
)
;
    }
    bottom
    {
        type            fixedValue;
        value           uniform 10;
    }
    defaultFaces
    {
        type            empty;
    }
}


// ************************************************************************* //
