/*--------------------------------*- C++ -*----------------------------------*\
| =========                 |                                                 |
| \\      /  F ield         | OpenFOAM: The Open Source CFD Toolbox           |
|  \\    /   O peration     | Version:  5.x                                   |
|   \\  /    A nd           | Web:      www.OpenFOAM.org                      |
|    \\/     M anipulation  |                                                 |
\*---------------------------------------------------------------------------*/
FoamFile
{
    version     2.0;
    format      ascii;
    class       volScalarField;
    location    "6.5";
    object      gradTy;
}
// * * * * * * * * * * * * * * * * * * * * * * * * * * * * * * * * * * * * * //

dimensions      [0 -1 0 1 0 0 0];

internalField   nonuniform List<scalar> 
2048
(
-26.4235
-26.3959
-26.3415
-26.2618
-26.159
-26.0356
-25.8944
-25.7381
-25.5695
-25.3913
-25.2058
-25.0152
-24.8214
-24.626
-24.4307
-24.2366
-24.045
-23.8567
-23.6726
-23.493
-23.3187
-23.1497
-22.9865
-22.8293
-22.6783
-22.5337
-22.3958
-22.265
-22.1416
-22.0262
-21.9192
-21.8213
-21.7333
-21.656
-21.5903
-21.5372
-21.4979
-21.4735
-21.4653
-21.4744
-21.5023
-21.55
-21.6189
-21.71
-21.8245
-21.9629
-22.1257
-22.3128
-22.5236
-22.7567
-23.0096
-23.2793
-23.5613
-23.8504
-24.1406
-24.4253
-24.6976
-24.9511
-25.1796
-25.3777
-25.5412
-25.6666
-25.7515
-25.7943
-26.4458
-26.4175
-26.3619
-26.2806
-26.1757
-26.0501
-25.9065
-25.748
-25.5774
-25.3972
-25.21
-25.0178
-24.8226
-24.626
-24.4296
-24.2347
-24.0423
-23.8534
-23.6688
-23.4889
-23.3142
-23.1451
-22.9817
-22.8243
-22.6731
-22.5283
-22.3901
-22.259
-22.1352
-22.0193
-21.9118
-21.8134
-21.7247
-21.6466
-21.58
-21.5261
-21.4858
-21.4605
-21.4512
-21.4593
-21.4861
-21.5329
-21.6009
-21.6912
-21.805
-21.9431
-22.106
-22.2937
-22.5056
-22.7405
-22.9962
-23.2693
-23.5555
-23.8496
-24.1451
-24.4352
-24.7129
-24.9713
-25.2041
-25.4058
-25.572
-25.6994
-25.7856
-25.829
-26.4885
-26.459
-26.4009
-26.3162
-26.2074
-26.0774
-25.9295
-25.7667
-25.592
-25.4082
-25.2177
-25.0226
-24.8248
-24.6259
-24.4275
-24.2309
-24.0371
-23.8471
-23.6615
-23.481
-23.3058
-23.1363
-22.9726
-22.8148
-22.6632
-22.518
-22.3794
-22.2476
-22.1232
-22.0064
-21.898
-21.7983
-21.7083
-21.6288
-21.5607
-21.5051
-21.463
-21.4358
-21.4246
-21.4308
-21.4556
-21.5005
-21.5667
-21.6555
-21.7681
-21.9055
-22.0684
-22.257
-22.4711
-22.7094
-22.9701
-23.2498
-23.5442
-23.8476
-24.1534
-24.4541
-24.7421
-25.01
-25.251
-25.4595
-25.6309
-25.7619
-25.8504
-25.895
-26.5497
-26.5183
-26.4567
-26.3671
-26.2524
-26.1161
-25.9617
-25.7928
-25.6124
-25.4234
-25.2283
-25.0291
-24.8276
-24.6255
-24.4243
-24.2253
-24.0295
-23.8379
-23.6512
-23.4697
-23.2939
-23.1239
-22.9597
-22.8015
-22.6494
-22.5036
-22.3643
-22.2317
-22.1063
-21.9884
-21.8785
-21.7773
-21.6855
-21.6039
-21.5336
-21.4755
-21.431
-21.4011
-21.3871
-21.3905
-21.4126
-21.4547
-21.5183
-21.6048
-21.7156
-21.8519
-22.0146
-22.2044
-22.4212
-22.6643
-22.932
-23.2211
-23.5271
-23.8441
-24.1649
-24.481
-24.784
-25.0656
-25.3184
-25.5364
-25.7151
-25.8512
-25.9428
-25.9889
-26.6282
-26.5942
-26.5278
-26.4315
-26.309
-26.1644
-26.0018
-25.8249
-25.6374
-25.4419
-25.241
-25.0367
-24.8307
-24.6246
-24.4199
-24.2178
-24.0196
-23.8261
-23.6379
-23.4554
-23.2788
-23.1082
-22.9436
-22.7849
-22.6323
-22.4857
-22.3456
-22.212
-22.0854
-21.966
-21.8545
-21.7513
-21.6572
-21.573
-21.4998
-21.4388
-21.391
-21.3578
-21.3404
-21.3402
-21.3587
-21.3973
-21.4576
-21.5411
-21.6493
-21.7839
-21.9461
-22.1369
-22.3569
-22.6057
-22.8819
-23.1829
-23.5039
-23.8385
-24.1787
-24.515
-24.8376
-25.137
-25.4049
-25.6349
-25.8224
-25.9647
-26.0601
-26.1079
-26.7228
-26.6855
-26.6129
-26.5083
-26.376
-26.2211
-26.0483
-25.862
-25.6658
-25.4627
-25.2551
-25.0449
-24.8336
-24.6229
-24.4141
-24.2086
-24.0074
-23.8117
-23.6218
-23.4383
-23.261
-23.0899
-22.9248
-22.7656
-22.6123
-22.465
-22.3239
-22.1891
-22.0611
-21.9402
-21.8266
-21.7211
-21.6243
-21.5371
-21.4606
-21.3959
-21.3443
-21.3071
-21.2857
-21.2813
-21.2956
-21.3299
-21.3861
-21.4657
-21.5707
-21.7029
-21.864
-22.0556
-22.2787
-22.5337
-22.8199
-23.1348
-23.4737
-23.83
-24.1942
-24.5555
-24.9023
-25.2234
-25.5095
-25.7536
-25.9513
-26.1003
-26.1997
-26.2493
-26.8329
-26.7916
-26.7113
-26.5963
-26.4521
-26.2848
-26.0999
-25.9026
-25.6966
-25.4851
-25.2701
-25.0533
-24.8362
-24.6203
-24.4068
-24.1973
-23.993
-23.7948
-23.6032
-23.4186
-23.2406
-23.0691
-22.9036
-22.744
-22.59
-22.4419
-22.2997
-22.1637
-22.0342
-21.9115
-21.7958
-21.6876
-21.5878
-21.4971
-21.4168
-21.348
-21.2921
-21.2504
-21.2243
-21.2152
-21.2245
-21.2539
-21.3052
-21.3803
-21.4812
-21.6102
-21.7694
-21.9611
-22.1871
-22.4485
-22.7455
-23.076
-23.4359
-23.8176
-24.2105
-24.6019
-24.9777
-25.3246
-25.6317
-25.8917
-26.1003
-26.2562
-26.3595
-26.4108
-26.9582
-26.9118
-26.8221
-26.6946
-26.5361
-26.3541
-26.1554
-25.9456
-25.7289
-25.5081
-25.2852
-25.0615
-24.8382
-24.6165
-24.398
-24.1841
-23.9762
-23.7754
-23.5821
-23.3965
-23.2181
-23.0463
-22.8806
-22.7205
-22.5659
-22.4168
-22.2736
-22.1363
-22.0053
-21.8806
-21.7626
-21.6516
-21.5484
-21.4539
-21.3693
-21.296
-21.2353
-21.1887
-21.1574
-21.143
-21.1468
-21.1707
-21.2164
-21.286
-21.382
-21.5069
-21.6633
-21.8542
-22.0823
-22.3499
-22.658
-23.0058
-23.3892
-23.8003
-24.227
-24.6539
-25.0637
-25.4405
-25.7713
-26.0484
-26.2683
-26.4307
-26.5374
-26.5901
-27.0985
-27.0459
-26.9448
-26.8022
-26.6268
-26.4279
-26.2134
-25.9898
-25.7615
-25.5311
-25.3001
-25.0692
-24.8393
-24.6116
-24.3875
-24.1688
-23.9571
-23.7535
-23.5585
-23.3721
-23.1935
-23.0218
-22.8561
-22.6957
-22.5404
-22.3904
-22.2459
-22.1073
-21.9747
-21.8481
-21.7277
-21.6137
-21.5068
-21.4081
-21.3189
-21.2406
-21.1748
-21.1228
-21.086
-21.0658
-21.0637
-21.0814
-21.1208
-21.1843
-21.2744
-21.3941
-21.5466
-21.7356
-21.9647
-22.2377
-22.557
-22.9229
-23.3323
-23.7768
-24.2427
-24.711
-25.1606
-25.5715
-25.9286
-26.2236
-26.4542
-26.6223
-26.7314
-26.7849
-27.2538
-27.1938
-27.079
-26.9183
-26.7231
-26.5047
-26.2725
-26.034
-25.7935
-25.5534
-25.3142
-25.0761
-24.8396
-24.6054
-24.3754
-24.1514
-23.9355
-23.729
-23.5325
-23.3457
-23.1673
-22.996
-22.8305
-22.6698
-22.5139
-22.3628
-22.2171
-22.0772
-21.9431
-21.8146
-21.6917
-21.5746
-21.4638
-21.3605
-21.2662
-21.1826
-21.1113
-21.0536
-21.011
-20.9847
-20.9762
-20.9872
-21.0197
-21.0762
-21.1595
-21.273
-21.4203
-21.6059
-21.8346
-22.1117
-22.4415
-22.8262
-23.2638
-23.7459
-24.2567
-24.7733
-25.2689
-25.7185
-26.1041
-26.4171
-26.6574
-26.8293
-26.9394
-26.9928
-27.4245
-27.3555
-27.2242
-27.0422
-26.8239
-26.5832
-26.3315
-26.077
-25.8241
-25.5743
-25.3273
-25.0822
-24.8389
-24.598
-24.3614
-24.1317
-23.9113
-23.702
-23.5042
-23.3173
-23.1397
-22.9692
-22.8042
-22.6434
-22.4867
-22.3344
-22.1874
-22.0462
-21.9107
-21.7805
-21.6552
-21.5348
-21.4199
-21.3117
-21.212
-21.1226
-21.0455
-20.9819
-20.9332
-20.9006
-20.8854
-20.8892
-20.9142
-20.9629
-21.0386
-21.1446
-21.2853
-21.4659
-21.6924
-21.9717
-22.3108
-22.7142
-23.1818
-23.7058
-24.268
-24.8405
-25.3895
-25.8827
-26.2986
-26.6291
-26.8768
-27.0502
-27.1592
-27.2115
-27.6109
-27.5311
-27.3801
-27.1729
-26.9278
-26.662
-26.3889
-26.1176
-25.8523
-25.5934
-25.3392
-25.0875
-24.8374
-24.5895
-24.3458
-24.1098
-23.8846
-23.6722
-23.4733
-23.287
-23.1108
-22.9418
-22.7776
-22.6167
-22.4592
-22.3055
-22.1571
-22.0146
-21.8779
-21.7463
-21.6187
-21.4949
-21.3756
-21.2621
-21.1565
-21.0612
-20.9779
-20.9083
-20.8534
-20.8143
-20.792
-20.7883
-20.8052
-20.8455
-20.9126
-21.0101
-21.1428
-21.3164
-21.5385
-21.8178
-22.1641
-22.5854
-23.0845
-23.6545
-24.2753
-24.9129
-25.5235
-26.0657
-26.5135
-26.8597
-27.1117
-27.2833
-27.3885
-27.4383
-27.8139
-27.721
-27.5465
-27.3097
-27.0336
-26.7396
-26.4433
-26.1546
-25.8773
-25.6103
-25.3498
-25.092
-24.8352
-24.5799
-24.3286
-24.0855
-23.855
-23.6396
-23.44
-23.2548
-23.0809
-22.9141
-22.7511
-22.5903
-22.4316
-22.2763
-22.1262
-21.9826
-21.8451
-21.7122
-21.5825
-21.4553
-21.3314
-21.2122
-21.1004
-20.9987
-20.9091
-20.8333
-20.7722
-20.7265
-20.697
-20.6853
-20.6937
-20.725
-20.7827
-20.8706
-20.9938
-21.1586
-21.3736
-21.6499
-22.0006
-22.4383
-22.9697
-23.5898
-24.2771
-24.9903
-25.6727
-26.2699
-26.7502
-27.1094
-27.3613
-27.5267
-27.6251
-27.6706
-28.0342
-27.9257
-27.7233
-27.4516
-27.1399
-26.8144
-26.4933
-26.1868
-25.8983
-25.6246
-25.3591
-25.0961
-24.8328
-24.5697
-24.3098
-24.0587
-23.8224
-23.6039
-23.404
-23.221
-23.0503
-22.8865
-22.7251
-22.5643
-22.4044
-22.2469
-22.0949
-21.9502
-21.8124
-21.6788
-21.5472
-21.4166
-21.2877
-21.1624
-21.0438
-20.9354
-20.8395
-20.7574
-20.6901
-20.6379
-20.6012
-20.5813
-20.5805
-20.6022
-20.6499
-20.7273
-20.8395
-20.9935
-21.1986
-21.4683
-21.8198
-22.2712
-22.8349
-23.5091
-24.2716
-25.0731
-25.8395
-26.498
-27.0108
-27.3784
-27.6244
-27.7784
-27.8662
-27.9057
-28.2729
-28.1456
-27.9103
-27.5976
-27.245
-26.885
-26.5373
-26.213
-25.9146
-25.6361
-25.3675
-25.1
-24.8304
-24.5591
-24.2895
-24.0293
-23.7866
-23.565
-23.3653
-23.1854
-23.0193
-22.8595
-22.7001
-22.5392
-22.3776
-22.2174
-22.063
-21.9175
-21.78
-21.6464
-21.5131
-21.3791
-21.2451
-21.113
-20.9871
-20.8718
-20.7693
-20.6811
-20.6078
-20.5492
-20.5052
-20.4768
-20.4666
-20.4781
-20.5152
-20.5813
-20.6812
-20.8223
-21.0146
-21.2735
-21.6211
-22.0825
-22.6775
-23.4092
-24.2563
-25.1614
-26.0266
-26.7537
-27.2974
-27.667
-27.8997
-28.0362
-28.1094
-28.1408
-28.5311
-28.3814
-28.1073
-27.7468
-27.3474
-26.9495
-26.574
-26.2319
-25.9255
-25.6449
-25.3752
-25.1042
-24.8285
-24.5486
-24.2678
-23.9971
-23.7475
-23.5227
-23.3235
-23.1481
-22.9881
-22.8335
-22.6765
-22.5155
-22.3517
-22.1878
-22.0303
-21.8844
-21.748
-21.6152
-21.4807
-21.3433
-21.2039
-21.0644
-20.9304
-20.8078
-20.6988
-20.6046
-20.5256
-20.4609
-20.4097
-20.3725
-20.3524
-20.3535
-20.3795
-20.4336
-20.5201
-20.6465
-20.8229
-21.0662
-21.4042
-21.8705
-22.4948
-23.2866
-24.2281
-25.2553
-26.2381
-27.0414
-27.6125
-27.9754
-28.1857
-28.2978
-28.3519
-28.3731
-28.8103
-28.6338
-28.3143
-27.8978
-27.4451
-27.0064
-26.6018
-26.2423
-25.9305
-25.6508
-25.3828
-25.1093
-24.8275
-24.5388
-24.245
-23.9617
-23.7047
-23.4766
-23.2785
-23.1091
-22.9572
-22.8092
-22.6548
-22.4933
-22.327
-22.1581
-21.9967
-21.8508
-21.7167
-21.5858
-21.4503
-21.3095
-21.1644
-21.0166
-20.8738
-20.7437
-20.6282
-20.528
-20.4439
-20.3736
-20.3153
-20.2692
-20.2387
-20.2288
-20.2436
-20.2853
-20.3574
-20.4675
-20.6252
-20.8475
-21.169
-21.6338
-22.284
-23.1371
-24.1827
-25.3546
-26.479
-27.3666
-27.9587
-28.3033
-28.4806
-28.5605
-28.5909
-28.5998
-29.1121
-28.9034
-28.5315
-28.0494
-27.5358
-27.0542
-26.6195
-26.2429
-25.9288
-25.6542
-25.3911
-25.1157
-24.828
-24.5303
-24.221
-23.9227
-23.6581
-23.4266
-23.2298
-23.0684
-22.9268
-22.7872
-22.6354
-22.4731
-22.3038
-22.1282
-21.9614
-21.8162
-21.6861
-21.5586
-21.4223
-21.2779
-21.1273
-20.97
-20.8171
-20.6796
-20.5576
-20.4517
-20.363
-20.2877
-20.2227
-20.1672
-20.1259
-20.1047
-20.1083
-20.1376
-20.1943
-20.287
-20.4233
-20.6188
-20.9159
-21.3708
-22.0424
-22.9562
-24.1145
-25.4589
-26.756
-27.7356
-28.3385
-28.6498
-28.7818
-28.8215
-28.8238
-28.8185
-29.4383
-29.1906
-28.759
-28.2001
-27.6169
-27.0914
-26.6261
-26.2322
-25.9202
-25.6554
-25.4012
-25.1241
-24.8303
-24.5243
-24.1961
-23.8793
-23.6076
-23.3726
-23.1769
-23.0259
-22.8974
-22.7683
-22.6187
-22.455
-22.2828
-22.0981
-21.9238
-21.7805
-21.6563
-21.5342
-21.397
-21.2489
-21.0929
-20.9246
-20.76
-20.6155
-20.4872
-20.3757
-20.2833
-20.2037
-20.1323
-20.0671
-20.0143
-19.9816
-19.9744
-19.9913
-20.0317
-20.1064
-20.2194
-20.3817
-20.6453
-21.0803
-21.7677
-22.7392
-24.0159
-25.5672
-27.078
-28.1564
-28.7544
-29.0136
-29.0865
-29.078
-29.0479
-29.0267
-29.7912
-29.4956
-28.9976
-28.3482
-27.685
-27.117
-26.6205
-26.2084
-25.9041
-25.6548
-25.4147
-25.1349
-24.8345
-24.5222
-24.1704
-23.8303
-23.5532
-23.3145
-23.1189
-22.9816
-22.8693
-22.7537
-22.6051
-22.4391
-22.2648
-22.0676
-21.8827
-21.7431
-21.6275
-21.5132
-21.3746
-21.2224
-21.0621
-20.8805
-20.7022
-20.5514
-20.4171
-20.2998
-20.2049
-20.122
-20.0448
-19.9694
-19.9043
-19.8597
-19.8422
-19.8475
-19.8706
-19.9273
-20.0163
-20.1382
-20.3583
-20.7609
-21.4581
-22.4814
-23.8765
-25.6776
-27.4569
-28.6378
-29.208
-29.3924
-29.3915
-29.3268
-29.2609
-29.2224
-30.1732
-29.8178
-29.2487
-28.4919
-27.7358
-27.1308
-26.6025
-26.1696
-25.8804
-25.6528
-25.4335
-25.1482
-24.8403
-24.5261
-24.1441
-23.7741
-23.4954
-23.2524
-23.0547
-22.9355
-22.8429
-22.7447
-22.5947
-22.4251
-22.2509
-22.0366
-21.8367
-21.7038
-21.5998
-21.4969
-21.3553
-21.1983
-21.0358
-20.8379
-20.6428
-20.4877
-20.3475
-20.2238
-20.1281
-20.043
-19.9609
-19.8744
-19.7959
-19.739
-19.7124
-19.7073
-19.7115
-19.7512
-19.817
-19.8905
-20.0562
-20.411
-21.1128
-22.1789
-23.6823
-25.7866
-27.9091
-29.1901
-29.6999
-29.7826
-29.6929
-29.5651
-29.4604
-29.4037
-30.5874
-30.1555
-29.5146
-28.6294
-27.7638
-27.1333
-26.5722
-26.1126
-25.8493
-25.6497
-25.4606
-25.1642
-24.8467
-24.539
-24.1173
-23.7078
-23.4352
-23.1867
-22.9825
-22.8876
-22.8184
-22.7431
-22.5874
-22.4124
-22.2432
-22.0049
-21.7834
-21.6622
-21.5732
-21.4865
-21.3389
-21.1761
-21.0155
-20.7968
-20.5805
-20.4248
-20.2786
-20.1473
-20.0533
-19.967
-19.8813
-19.7825
-19.6893
-19.6195
-19.5853
-19.5718
-19.5544
-19.5792
-19.6252
-19.6408
-19.7412
-20.0285
-20.7323
-21.8293
-23.4142
-25.8884
-28.4572
-29.8244
-30.2294
-30.1798
-29.9864
-29.7898
-29.6446
-29.5694
-31.0379
-30.505
-29.7995
-28.7584
-27.761
-27.1268
-26.5303
-26.0334
-25.8115
-25.6454
-25.5
-25.1821
-24.8517
-24.5657
-24.0901
-23.6272
-23.3745
-23.1183
-22.8997
-22.8387
-22.7958
-22.7517
-22.5829
-22.3996
-22.2444
-21.9725
-21.7199
-21.6184
-21.5474
-21.4842
-21.3252
-21.1545
-21.0034
-20.7571
-20.5134
-20.3633
-20.2108
-20.0694
-19.9807
-19.8942
-19.8068
-19.6938
-19.5845
-19.5006
-19.4612
-19.4428
-19.3989
-19.412
-19.4456
-19.3913
-19.4162
-19.6103
-20.3188
-21.4333
-23.0462
-25.9741
-29.1322
-30.5522
-30.7932
-30.5778
-30.2676
-29.9983
-29.812
-29.7183
-31.5302
-30.8593
-30.1106
-28.8768
-27.7168
-27.1162
-26.4787
-25.9262
-25.7689
-25.6389
-25.5573
-25.2007
-24.8515
-24.6129
-24.0627
-23.526
-23.3168
-23.0485
-22.8025
-22.7897
-22.7744
-22.7741
-22.5803
-22.3842
-22.2589
-21.9393
-21.6419
-21.5729
-21.5219
-21.493
-21.3134
-21.1317
-21.0026
-20.7189
-20.4384
-20.3048
-20.1447
-19.9889
-19.911
-19.8247
-19.7385
-19.6086
-19.4813
-19.3819
-19.34
-19.3223
-19.2436
-19.2497
-19.2838
-19.1435
-19.0858
-19.1511
-19.8763
-20.9969
-22.5435
-26.0298
-29.9772
-31.384
-31.3852
-30.9696
-30.5319
-30.1882
-29.9614
-29.8499
-32.0715
-31.2066
-30.459
-28.9823
-27.6158
-27.1097
-26.4203
-25.7821
-25.7251
-25.6276
-25.641
-25.2178
-24.8398
-24.6907
-24.0351
-23.3949
-23.2677
-22.9793
-22.6851
-22.743
-22.7524
-22.8159
-22.5781
-22.3621
-22.2931
-21.9052
-21.5434
-21.5275
-21.4953
-21.5172
-21.3024
-21.1044
-21.0181
-20.682
-20.3513
-20.2515
-20.081
-19.9038
-19.8452
-19.7583
-19.6777
-19.5268
-19.3796
-19.2622
-19.2216
-19.2134
-19.0863
-19.0916
-19.1473
-18.8979
-18.7567
-18.6425
-19.4114
-20.5341
-21.8592
-26.0349
-31.0518
-32.3276
-31.9956
-31.3467
-30.7748
-30.3575
-30.0921
-29.964
-32.6724
-31.528
-30.8621
-29.0727
-27.4367
-27.1207
-26.3594
-25.5886
-25.687
-25.6063
-25.7629
-25.2298
-24.8069
-24.8137
-24.0071
-23.2204
-23.236
-22.9136
-22.539
-22.703
-22.7262
-22.8847
-22.574
-22.3269
-22.3563
-21.8701
-21.4159
-21.4855
-21.4646
-21.563
-21.2903
-21.0676
-21.0568
-20.6462
-20.2459
-20.2074
-20.0207
-19.8109
-19.785
-19.6941
-19.6263
-19.4482
-19.2795
-19.1405
-19.1052
-19.1206
-18.9231
-18.9355
-19.0459
-18.6525
-18.4391
-18.0713
-18.9323
-20.0714
-20.9312
-25.9595
-32.4384
-33.3852
-32.6103
-31.7002
-30.9922
-30.5047
-30.2038
-30.0607
-33.3476
-31.7939
-31.346
-29.1456
-27.1498
-27.1701
-26.3019
-25.3272
-25.666
-25.5653
-25.9398
-25.2318
-24.7378
-25.0025
-23.9787
-22.9832
-23.2351
-22.8553
-22.3521
-22.677
-22.6894
-22.9917
-22.5644
-22.2691
-22.4618
-21.8336
-21.2482
-21.4532
-21.425
-21.6393
-21.2744
-21.0139
-21.1288
-20.6111
-20.1134
-20.178
-19.9651
-19.706
-19.733
-19.6307
-19.5868
-19.3721
-19.1812
-19.0149
-18.9895
-19.0504
-18.7487
-18.7777
-18.993
-18.4021
-18.1485
-17.4171
-18.4494
-19.6523
-19.678
-25.7604
-34.2496
-34.5488
-33.2104
-32.0206
-31.1807
-30.629
-30.2967
-30.1405
-34.1181
-31.96
-31.9492
-29.1988
-26.7137
-27.2881
-26.2552
-24.972
-25.6808
-25.4881
-26.1957
-25.2165
-24.6112
-25.2864
-23.9492
-22.6563
-23.2847
-22.8094
-22.107
-22.677
-22.6312
-23.1524
-22.5448
-22.1746
-22.6284
-21.7953
-21.0243
-21.4409
-21.3677
-21.7587
-21.2508
-20.9325
-21.2483
-20.5758
-19.9417
-20.1721
-19.9155
-19.5827
-19.6935
-19.5653
-19.5626
-19.2975
-19.085
-18.8834
-18.8719
-19.0123
-18.5553
-18.6119
-19.007
-18.1357
-17.9084
-16.6499
-17.9735
-19.3446
-17.9934
-25.3773
-36.6388
-35.7944
-33.7729
-32.2989
-31.3377
-30.7301
-30.3713
-30.2042
-35.0135
-31.9622
-32.7269
-29.2302
-26.0724
-27.5185
-26.2288
-24.4862
-25.7606
-25.3485
-26.564
-25.1746
-24.3965
-25.7054
-23.9178
-22.2029
-23.4127
-22.782
-21.7793
-22.7219
-22.5341
-23.3888
-22.5086
-22.024
-22.8819
-21.754
-20.7232
-21.465
-21.2791
-21.9388
-21.2145
-20.8081
-21.4349
-20.5392
-19.714
-20.2021
-19.8736
-19.4322
-19.673
-19.4936
-19.5586
-19.2222
-18.9922
-18.7436
-18.7482
-19.0195
-18.3327
-18.4285
-19.113
-17.8337
-17.7538
-15.7266
-17.5146
-19.2487
-15.7412
-24.7268
-39.8115
-37.0737
-34.2709
-32.5272
-31.4617
-30.8084
-30.4283
-30.2527
-36.0746
-31.709
-33.7562
-29.2375
-25.1503
-27.9218
-26.2338
-23.8192
-25.9495
-25.1061
-27.0908
-25.0935
-24.0514
-26.3137
-23.883
-21.5732
-23.6582
-22.7806
-21.3354
-22.8404
-22.3716
-23.7312
-22.4474
-21.7898
-23.2573
-21.708
-20.3162
-21.5499
-21.138
-22.2038
-21.1583
-20.6199
-21.7152
-20.4993
-19.4081
-20.2853
-19.8411
-19.2425
-19.6814
-19.4085
-19.5815
-19.1429
-18.9045
-18.5929
-18.6121
-19.0906
-18.0673
-18.2136
-19.3458
-17.4646
-17.7358
-14.5876
-17.0791
-19.5068
-12.7486
-23.696
-44.0414
-38.3036
-34.6762
-32.6999
-31.5524
-30.8646
-30.469
-30.2871
-37.3573
-31.0744
-35.143
-29.2178
-23.8479
-28.5805
-26.283
-22.9025
-26.3117
-24.7012
-27.8385
-24.9574
-23.5191
-27.1835
-23.8423
-20.7014
-24.0742
-22.814
-20.73
-23.0744
-22.1044
-24.2206
-22.3504
-21.4355
-23.8011
-21.6541
-19.766
-21.7319
-20.9128
-22.5867
-21.0736
-20.3396
-22.1248
-20.4534
-18.9947
-20.4458
-19.8193
-18.9972
-19.7327
-19.2996
-19.6407
-19.0546
-18.8249
-18.4282
-18.4537
-19.2504
-17.7416
-17.9475
-19.753
-16.9797
-17.9273
-13.1521
-16.6665
-20.3154
-8.79949
-22.1341
-49.6867
-39.353
-34.9623
-32.8137
-31.6106
-30.9002
-30.4945
-30.3086
-38.9368
-29.8877
-37.0294
-29.1677
-22.0355
-29.6044
-26.3909
-21.6452
-26.9393
-24.0485
-28.8914
-24.7464
-22.7238
-28.4077
-23.792
-19.5024
-24.7322
-22.8924
-19.9026
-23.4837
-21.6762
-24.9121
-22.2042
-20.9131
-24.5747
-21.5884
-19.0235
-22.0615
-20.5578
-23.1314
-20.9489
-19.9307
-22.7109
-20.3979
-18.4363
-20.7157
-19.8097
-18.6757
-19.8476
-19.1526
-19.7497
-18.9506
-18.7584
-18.2472
-18.2592
-19.5327
-17.334
-17.6038
-20.3995
-16.3086
-18.4314
-11.3148
-16.2651
-21.9379
-3.62727
-19.8432
-57.2119
-40.0264
-35.1099
-32.8694
-31.6386
-30.9173
-30.5066
-30.319
)
;

boundaryField
{
    left
    {
        type            calculated;
        value           nonuniform List<scalar> 
32
(
-26.4235
-26.4458
-26.4885
-26.5497
-26.6282
-26.7228
-26.8329
-26.9582
-27.0985
-27.2538
-27.4245
-27.6109
-27.8139
-28.0342
-28.2729
-28.5311
-28.8103
-29.1121
-29.4383
-29.7912
-30.1732
-30.5874
-31.0379
-31.5302
-32.0715
-32.6724
-33.3476
-34.1181
-35.0135
-36.0746
-37.3573
-38.9368
)
;
    }
    right
    {
        type            calculated;
        value           nonuniform List<scalar> 
32
(
-25.7943
-25.829
-25.895
-25.9889
-26.1079
-26.2493
-26.4108
-26.5901
-26.7849
-26.9928
-27.2115
-27.4383
-27.6706
-27.9057
-28.1408
-28.3731
-28.5998
-28.8185
-29.0267
-29.2224
-29.4037
-29.5694
-29.7183
-29.8499
-29.964
-30.0607
-30.1405
-30.2042
-30.2527
-30.2871
-30.3086
-30.319
)
;
    }
    interface
    {
        type            calculated;
        value           nonuniform List<scalar> 
64
(
-39.8115
-29.1319
-38.1178
-29.1344
-20.9836
-30.2233
-26.4615
-20.9186
-27.3329
-23.6478
-29.5062
-24.6194
-22.2495
-29.1215
-23.7638
-18.8092
-25.1318
-22.9443
-19.425
-23.7408
-21.4136
-25.3162
-22.117
-20.6033
-25.0278
-21.5522
-18.5972
-22.2706
-20.3411
-23.4503
-20.875
-19.689
-23.0547
-20.3674
-18.1156
-20.8826
-19.808
-18.4929
-19.924
-19.0675
-19.8187
-18.8938
-18.7292
-18.1524
-18.1509
-19.7093
-17.1068
-17.4087
-20.7921
-15.916
-18.7766
-10.2809
-16.0649
-22.9902
-0.698731
-18.4876
-61.5097
-40.2403
-35.1474
-32.883
-31.6455
-30.9215
-30.5097
-30.3217
)
;
    }
    bottom
    {
        type            calculated;
        value           nonuniform List<scalar> 
64
(
-26.4177
-26.3902
-26.3362
-26.257
-26.1547
-26.0319
-25.8912
-25.7355
-25.5675
-25.3898
-25.2047
-25.0145
-24.821
-24.626
-24.431
-24.2372
-24.0457
-23.8576
-23.6735
-23.4941
-23.3198
-23.1509
-22.9878
-22.8306
-22.6797
-22.5351
-22.3973
-22.2666
-22.1433
-22.028
-21.9211
-21.8234
-21.7356
-21.6584
-21.5929
-21.5401
-21.5011
-21.4769
-21.469
-21.4784
-21.5065
-21.5545
-21.6236
-21.7149
-21.8295
-21.968
-22.1308
-22.3178
-22.5283
-22.7608
-23.0131
-23.2819
-23.5628
-23.8506
-24.1394
-24.4227
-24.6937
-24.9458
-25.1732
-25.3705
-25.5332
-25.6581
-25.7427
-25.7853
)
;
    }
    defaultFaces
    {
        type            empty;
    }
}


// ************************************************************************* //
