/*--------------------------------*- C++ -*----------------------------------*\
| =========                 |                                                 |
| \\      /  F ield         | OpenFOAM: The Open Source CFD Toolbox           |
|  \\    /   O peration     | Version:  5.x                                   |
|   \\  /    A nd           | Web:      www.OpenFOAM.org                      |
|    \\/     M anipulation  |                                                 |
\*---------------------------------------------------------------------------*/
FoamFile
{
    version     2.0;
    format      ascii;
    class       volScalarField;
    location    "6.5";
    object      gradTx;
}
// * * * * * * * * * * * * * * * * * * * * * * * * * * * * * * * * * * * * * //

dimensions      [0 -1 0 1 0 0 0];

internalField   nonuniform List<scalar> 
2048
(
0.00630511
0.0187346
0.0306388
0.0417203
0.0517498
0.0605783
0.0681351
0.0744182
0.0794771
0.0833949
0.0862712
0.0882104
0.0893145
0.0896803
0.0894003
0.0885636
0.087257
0.0855642
0.0835629
0.0813216
0.0788961
0.076327
0.0736393
0.070843
0.0679359
0.064906
0.0617335
0.0583931
0.0548538
0.0510797
0.0470305
0.0426626
0.0379309
0.0327907
0.0272001
0.0211216
0.014523
0.00737793
-0.000333021
-0.00862158
-0.0174893
-0.0269238
-0.0368938
-0.0473419
-0.0581764
-0.0692627
-0.0804136
-0.091382
-0.101857
-0.111465
-0.119783
-0.12636
-0.130754
-0.13257
-0.131512
-0.127416
-0.120278
-0.110248
-0.0976159
-0.0827653
-0.0661299
-0.0481505
-0.029247
-0.00980744
0.0187889
0.0558187
0.0912572
0.124206
0.15398
0.180137
0.202479
0.221012
0.2359
0.247399
0.255816
0.261464
0.264648
0.265653
0.264751
0.262206
0.258275
0.253206
0.247233
0.240561
0.233357
0.225741
0.217787
0.209522
0.200938
0.191997
0.18264
0.17279
0.162357
0.151233
0.139298
0.126423
0.112472
0.0973104
0.0808143
0.0628713
0.0433856
0.0222792
-0.00050676
-0.0250087
-0.0512341
-0.0791511
-0.108672
-0.139635
-0.171777
-0.204706
-0.237875
-0.270558
-0.301832
-0.330586
-0.355549
-0.375361
-0.388675
-0.394291
-0.391298
-0.379194
-0.357963
-0.328075
-0.290413
-0.246153
-0.196609
-0.14311
-0.0869055
-0.0291384
0.0311407
0.0924842
0.151107
0.205486
0.254474
0.297353
0.333828
0.363954
0.388043
0.406562
0.420039
0.429006
0.433962
0.435372
0.433677
0.429303
0.422673
0.4142
0.404273
0.393238
0.381373
0.368877
0.355866
0.342379
0.328394
0.313845
0.298631
0.282626
0.26568
0.247619
0.228243
0.207334
0.184667
0.160018
0.133178
0.103962
0.0722119
0.0377991
0.000624935
-0.0393755
-0.0822237
-0.127881
-0.176222
-0.227001
-0.279813
-0.334043
-0.388818
-0.442963
-0.494969
-0.542992
-0.584901
-0.618387
-0.641138
-0.651078
-0.646613
-0.626864
-0.591803
-0.542255
-0.479771
-0.406391
-0.324374
-0.235962
-0.143224
-0.0480094
0.0436006
0.129427
0.211276
0.286941
0.354798
0.413873
0.463824
0.504819
0.537386
0.562251
0.580201
0.591994
0.598323
0.599817
0.597068
0.590653
0.581157
0.569158
0.555213
0.539812
0.523353
0.50611
0.488235
0.469769
0.450667
0.430824
0.410096
0.388309
0.365257
0.340698
0.314357
0.285923
0.255077
0.221499
0.184895
0.145008
0.101619
0.0545501
0.00366187
-0.0511443
-0.109915
-0.172623
-0.23913
-0.309141
-0.382144
-0.457347
-0.533596
-0.609308
-0.682413
-0.750337
-0.810048
-0.858208
-0.891423
-0.906597
-0.901332
-0.874294
-0.825435
-0.756015
-0.668383
-0.565594
-0.450975
-0.327746
-0.198794
-0.0666111
0.0563842
0.167271
0.272723
0.369773
0.456287
0.531069
0.593799
0.644853
0.685069
0.715506
0.737252
0.75131
0.758553
0.759755
0.755631
0.746897
0.734291
0.718571
0.700471
0.680647
0.659619
0.63774
0.615189
0.59199
0.568061
0.543247
0.517357
0.49017
0.461431
0.430836
0.398027
0.362602
0.324134
0.282204
0.236428
0.186474
0.132067
0.072984
0.00904394
-0.0598909
-0.133906
-0.213006
-0.297071
-0.385795
-0.47861
-0.574596
-0.672381
-0.770027
-0.864937
-0.953807
-1.03265
-1.09699
-1.14217
-1.16387
-1.15868
-1.1247
-1.06186
-0.971946
-0.858332
-0.725318
-0.577484
-0.419136
-0.253976
-0.0850566
0.0696963
0.206601
0.336344
0.455075
0.560123
0.65011
0.724842
0.785031
0.83195
0.867085
0.891883
0.907599
0.915272
0.915778
0.909927
0.898546
0.88253
0.862827
0.840375
0.816018
0.790418
0.764004
0.736964
0.70929
0.680832
0.651376
0.620676
0.588474
0.554472
0.518311
0.479553
0.437687
0.392173
0.342478
0.288122
0.228701
0.163889
0.0934205
0.0170794
-0.0653169
-0.153906
-0.248751
-0.349783
-0.45673
-0.569022
-0.685679
-0.805177
-0.925298
-1.04297
-1.15418
-1.25392
-1.33642
-1.39554
-1.42543
-1.42144
-1.38086
-1.30359
-1.19214
-1.05119
-0.886627
-0.704543
-0.510468
-0.308919
-0.103386
0.0837412
0.247999
0.403005
0.543884
0.667384
0.772014
0.857845
0.926098
0.978638
1.0175
1.04455
1.06131
1.06893
1.06834
1.0604
1.04602
1.02624
1.00223
0.975168
0.946127
0.915928
0.885076
0.853751
0.821873
0.7892
0.755433
0.720273
0.68343
0.644586
0.603336
0.559155
0.511418
0.459447
0.402581
0.340235
0.271934
0.197309
0.116069
0.0279657
-0.0672303
-0.169724
-0.27966
-0.397062
-0.521736
-0.653171
-0.790399
-0.931837
-1.07507
-1.21665
-1.35184
-1.47462
-1.57774
-1.65327
-1.69349
-1.69204
-1.64522
-1.55282
-1.41832
-1.24812
-1.05014
-0.832388
-0.601758
-0.363566
-0.121568
0.0987303
0.292061
0.473584
0.637213
0.779081
0.897678
0.993533
1.0686
1.12553
1.16706
1.19553
1.21271
1.21983
1.21779
1.20741
1.18964
1.16571
1.13701
1.10503
1.07111
1.03626
1.00108
0.965698
0.929917
0.893359
0.855614
0.816327
0.775202
0.731924
0.686058
0.636996
0.583973
0.526147
0.462705
0.392948
0.316334
0.232467
0.141047
0.0418058
-0.0655308
-0.181249
-0.305608
-0.438756
-0.580631
-0.730838
-0.888505
-1.05209
-1.2191
-1.38581
-1.54688
-1.69518
-1.82185
-1.91682
-1.96997
-1.97276
-1.92006
-1.81151
-1.65187
-1.44985
-1.21608
-0.960869
-0.692714
-0.417663
-0.139506
0.11489
0.339417
0.548991
0.736086
0.896184
1.0279
1.13248
1.21288
1.2728
1.31584
1.34489
1.36194
1.36819
1.36439
1.35125
1.32972
1.30118
1.26734
1.23006
1.19103
1.15149
1.1121
1.07293
1.03358
0.993488
0.952096
0.908994
0.863912
0.816586
0.766577
0.713185
0.655478
0.592413
0.522993
0.446388
0.361999
0.269428
0.168391
0.0586207
-0.0601989
-0.18845
-0.326534
-0.474767
-0.633264
-0.801808
-0.979705
-1.16556
-1.35697
-1.55006
-1.73902
-1.91566
-2.0693
-2.18734
-2.25663
-2.26575
-2.20758
-2.08149
-1.89394
-1.65681
-1.38424
-1.08945
-0.782741
-0.470769
-0.157038
0.132465
0.390749
0.630191
0.841552
1.01964
1.16341
1.27513
1.35913
1.42046
1.46378
1.49258
1.50901
1.51412
1.50836
1.4922
1.46651
1.43287
1.39337
1.35034
1.3059
1.26161
1.21819
1.17553
1.13301
1.08976
1.04505
0.998408
0.949651
0.89863
0.844942
0.787788
0.726022
0.658351
0.583549
0.500638
0.408976
0.308197
0.198071
0.0783596
-0.0512859
-0.19136
-0.342439
-0.505052
-0.679532
-0.865893
-1.0637
-1.27183
-1.48812
-1.7088
-1.92775
-2.13581
-2.32033
-2.46573
-2.55509
-2.57314
-2.50998
-2.36452
-2.14548
-1.86906
-1.55403
-1.21724
-0.870958
-0.522262
-0.173943
0.151729
0.446804
0.718224
0.954709
1.15039
1.30484
1.4218
1.50737
1.56833
1.61061
1.63839
1.65384
1.65768
1.64988
1.6305
1.60027
1.56097
1.5152
1.46588
1.41571
1.3666
1.31934
1.27361
1.22836
1.18237
1.13465
1.08469
1.03248
0.978071
0.921163
0.860832
0.795664
0.724043
0.644455
0.555752
0.457269
0.348726
0.229996
0.100909
-0.0389062
-0.190073
-0.353384
-0.529624
-0.719383
-0.922944
-1.1402
-1.37043
-1.61192
-1.86123
-2.11226
-2.35502
-2.57486
-2.75267
-2.86687
-2.89711
-2.82961
-2.66237
-2.40725
-2.08629
-1.72443
-1.34295
-0.956209
-0.571363
-0.189947
0.172984
0.508407
0.814222
1.07672
1.28937
1.45277
1.57266
1.65746
1.71604
1.75593
1.78198
1.79627
1.7989
1.78913
1.76642
1.73124
1.68565
1.63289
1.57665
1.52034
1.46637
1.41556
1.36722
1.31979
1.27152
1.22109
1.16797
1.11242
1.05489
0.995208
0.932318
0.864443
0.789556
0.705781
0.611761
0.506853
0.390927
0.264029
0.1261
-0.0232294
-0.184735
-0.359479
-0.548549
-0.752823
-0.972871
-1.20896
-1.46091
-1.72765
-2.00642
-2.29149
-2.5724
-2.83246
-3.04858
-3.1934
-3.23998
-3.16898
-2.97692
-2.67984
-2.30786
-1.89402
-1.46495
-1.03709
-0.617156
-0.204735
0.196569
0.576472
0.919418
1.2088
1.4375
1.60768
1.72778
1.80908
1.86308
1.89917
1.92294
1.93608
1.93777
1.9263
1.90024
1.85971
1.8071
1.74652
1.68259
1.61969
1.56081
1.50681
1.45647
1.40747
1.35743
1.30458
1.24836
1.18949
1.129
1.06701
1.00222
0.932382
0.854952
0.767591
0.668688
0.557674
0.434675
0.299983
0.153715
-0.00447307
-0.175537
-0.360876
-0.561946
-0.779922
-1.01565
-1.26981
-1.54286
-1.83461
-2.14331
-2.46416
-2.78672
-3.09239
-3.3536
-3.53604
-3.6042
-3.53096
-3.31019
-2.96366
-2.53269
-2.06089
-1.58124
-1.11198
-0.658622
-0.217964
0.222864
0.65201
1.03516
1.35227
1.59571
1.76998
1.88709
1.96179
2.00875
2.03964
2.06073
2.07301
2.07429
2.0616
2.03232
1.98597
1.9255
1.85611
1.78362
1.71355
1.64973
1.59302
1.54144
1.49162
1.44038
1.38538
1.32598
1.26364
1.2003
1.13646
1.07049
0.999497
0.920297
0.829962
0.726551
0.609661
0.479817
0.337638
0.183492
0.0171038
-0.162704
-0.357764
-0.569976
-0.800815
-1.05135
-1.32266
-1.61594
-1.93208
-2.27078
-2.62881
-2.99644
-3.35352
-3.66756
-3.89601
-3.99248
-3.91882
-3.66445
-3.25895
-2.75923
-2.2227
-1.6895
-1.1791
-0.694681
-0.229276
0.252297
0.736138
1.16292
1.50852
1.76487
1.93996
2.05041
2.11499
2.15221
2.17649
2.19478
2.20679
2.20846
2.19526
2.16302
2.11036
2.04102
1.96172
1.8796
1.80168
1.73293
1.67415
1.62223
1.57246
1.52068
1.46378
1.40097
1.3348
1.26862
1.20342
1.13708
1.0658
0.985662
0.892986
0.785367
0.662725
0.526173
0.37674
0.215134
0.0412069
-0.146489
-0.350354
-0.572839
-0.8157
-1.08013
-1.36751
-1.67991
-2.01947
-2.38768
-2.78376
-3.19973
-3.61435
-3.98993
-4.27436
-4.40779
-4.33645
-4.0423
-3.56568
-2.98538
-2.37656
-1.78714
-1.23656
-0.724247
-0.238321
0.285348
0.830078
1.30429
1.67903
1.94587
2.11779
2.21742
2.26797
2.29245
2.30877
2.32445
2.33716
2.34027
2.32759
2.29285
2.23324
2.15386
2.06339
1.97039
1.8838
1.81013
1.7501
1.69898
1.65023
1.59869
1.54014
1.47347
1.40286
1.33371
1.26772
1.20192
1.13129
1.05113
0.956786
0.845163
0.716757
0.573547
0.41701
0.248304
0.0675115
-0.127159
-0.338864
-0.570757
-0.824835
-1.10221
-1.40448
-1.73466
-2.09625
-2.49288
-2.92724
-3.39444
-3.87302
-4.31975
-4.67186
-4.85335
-4.78851
-4.44677
-3.88352
-3.20838
-2.5191
-1.87132
-1.28246
-0.746278
-0.244773
0.322568
0.935159
1.46099
1.86543
2.13946
2.30347
2.38774
2.41989
2.42832
2.4354
2.4491
2.46391
2.46974
2.4589
2.42237
2.35504
2.26415
2.16115
2.05582
1.95953
1.881
1.82081
1.77185
1.72521
1.67479
1.61492
1.54365
1.46762
1.39527
1.32916
1.26497
1.19598
1.11681
1.02153
0.905973
0.771626
0.62173
0.45815
0.282636
0.0956663
-0.104991
-0.323512
-0.56397
-0.828532
-1.11794
-1.43381
-1.78022
-2.16211
-2.58531
-3.05735
-3.57816
-4.12726
-4.6556
-5.08889
-5.33269
-5.28067
-4.88146
-4.21166
-3.42468
-2.64644
-1.93907
-1.31497
-0.759845
-0.248357
0.364594
1.0528
1.63484
2.06945
2.34635
2.4968
2.56093
2.56986
2.55852
2.55518
2.56808
2.58689
2.59684
2.58955
2.55231
2.47617
2.37201
2.25509
2.13573
2.02844
1.94514
1.8862
1.84109
1.79766
1.74943
1.68869
1.61171
1.52882
1.45291
1.38754
1.32622
1.25986
1.1828
1.08745
0.967837
0.82717
0.670511
0.499849
0.317732
0.125296
-0.0802605
-0.304493
-0.552714
-0.827155
-1.12776
-1.45581
-1.81677
-2.21691
-2.66404
-3.17211
-3.74827
-4.37448
-4.99556
-5.52514
-5.84956
-5.81996
-5.35065
-4.54861
-3.6298
-2.75419
-1.9874
-1.33241
-0.764189
-0.248861
0.412192
1.18449
1.82774
2.29308
2.56706
2.69729
2.73652
2.71693
2.68158
2.66679
2.68078
2.70609
2.72149
2.7199
2.68361
2.59706
2.47747
2.34537
2.20996
2.08999
2.00208
1.94623
1.90699
1.86781
1.82307
1.76216
1.67786
1.58608
1.50613
1.44263
1.3857
1.32287
1.24921
1.15488
1.0308
0.883176
0.71969
0.541795
0.353159
0.156002
-0.0532346
-0.281969
-0.53721
-0.821108
-1.13218
-1.4709
-1.84465
-2.26082
-2.72832
-3.26955
-3.90188
-4.61182
-5.3372
-5.97942
-6.40783
-6.41517
-5.85948
-4.89195
-3.81813
-2.83756
-2.01339
-1.33341
-0.758777
-0.246159
0.466319
1.33176
2.04163
2.53856
2.80189
2.90405
2.91415
2.86018
2.79586
2.76876
2.78668
2.82172
2.8435
2.8503
2.81747
2.71814
2.58038
2.43225
2.2784
2.14355
2.05123
2.0009
1.96999
1.93581
1.89617
1.83629
1.74236
1.63889
1.55429
1.49423
1.44355
1.38491
1.31614
1.22428
1.09491
0.939354
0.769101
0.583682
0.388444
0.187361
-0.0241668
-0.256048
-0.517645
-0.810832
-1.13183
-1.47954
-1.86428
-2.29432
-2.77758
-3.34766
-4.03594
-4.83622
-5.67765
-6.44918
-7.01133
-7.07746
-6.41415
-5.23784
-3.98281
-2.89141
-2.0144
-1.31693
-0.743347
-0.240218
0.528239
1.49611
2.27837
2.80864
3.05081
3.11569
3.0937
2.99873
2.89952
2.85946
2.88536
2.9343
2.96245
2.98098
2.95553
2.83973
2.68035
2.5162
2.34097
2.18834
2.09188
2.05023
2.03074
2.00166
1.96913
1.91233
1.80547
1.68653
1.59664
1.54215
1.50007
1.44578
1.38362
1.29632
1.16017
0.995298
0.818644
0.625221
0.423069
0.218928
0.00670714
-0.226767
-0.494159
-0.796801
-1.12746
-1.4822
-1.87621
-2.31831
-2.81157
-3.40449
-4.1472
-5.04458
-6.01378
-6.93005
-7.66342
-7.82107
-7.02214
-5.5805
-4.11555
-2.91049
-1.98822
-1.28245
-0.717937
-0.231104
0.599703
1.67893
2.53959
3.10674
3.31337
3.33009
3.27549
3.1318
2.99046
2.93708
2.97653
3.04483
3.07752
3.11203
3.10005
2.96202
2.77662
2.59801
2.39768
2.2234
2.12318
2.09434
2.09016
2.0651
2.04226
1.99197
1.8675
1.72807
1.63225
1.58626
1.55581
1.50507
1.45163
1.37196
1.22654
1.05043
0.868338
0.66615
0.456453
0.250231
0.0391693
-0.194078
-0.466827
-0.779509
-1.11996
-1.47932
-1.88097
-2.33417
-2.83029
-3.43812
-4.23221
-5.2339
-6.34253
-7.41518
-8.36661
-8.66443
-7.69241
-5.91141
-4.20654
-2.88964
-1.93326
-1.22994
-0.682896
-0.218983
0.683237
1.88139
2.8265
3.43738
3.58845
3.54412
3.4606
3.25875
3.0663
2.99956
3.06007
3.15502
3.18733
3.24323
3.25419
3.08496
2.86782
2.67898
2.44862
2.24756
2.14409
2.13341
2.14962
2.12549
2.11565
2.0775
1.92871
1.76228
1.65999
1.62647
1.61168
1.56211
1.51999
1.4526
1.2939
1.1039
0.9184
0.706238
0.487937
0.280776
0.0730167
-0.157824
-0.435641
-0.759463
-1.11039
-1.47121
-1.87901
-2.34391
-2.83406
-3.44673
-4.28725
-5.40143
-6.66145
-7.89443
-9.12168
-9.63147
-8.43565
-6.21821
-4.2445
-2.82411
-1.84869
-1.15997
-0.638875
-0.204111
0.78258
2.10425
3.1395
3.80674
3.8741
3.75333
3.65129
3.37907
3.12429
3.04459
3.13598
3.26764
3.2896
3.37389
3.42242
3.20807
2.95175
2.76122
2.49394
2.25939
2.15335
2.16766
2.21114
2.18159
2.18911
2.17208
1.98928
1.78758
1.67858
1.66275
1.66912
1.61579
1.58827
1.54027
1.36193
1.15451
0.969358
0.745283
0.516754
0.310052
0.108052
-0.117725
-0.400501
-0.73716
-1.10009
-1.45803
-1.87052
-2.3503
-2.82351
-3.42861
-4.30824
-5.54476
-6.96955
-8.35337
-9.92668
-10.7534
-9.26452
-6.48341
-4.21682
-2.71
-1.73468
-1.07367
-0.586796
-0.186819
0.903324
2.34765
3.47773
4.22338
4.16715
3.95142
3.85163
3.49228
3.16123
3.06956
3.20431
3.38693
3.38081
3.50262
3.6111
3.33023
3.02505
2.84797
2.53383
2.25711
2.14949
2.19732
2.2777
2.23131
2.26194
2.28005
2.04919
1.80197
1.6865
1.69511
1.73037
1.6644
1.65572
1.63788
1.43005
1.20056
1.0222
0.783093
0.542002
0.337547
0.144069
-0.0733547
-0.361202
-0.713054
-1.09077
-1.43965
-1.8553
-2.35711
-2.79947
-3.38227
-4.29059
-5.66191
-7.2685
-8.77221
-10.7754
-12.0711
-10.1938
-6.68262
-4.11002
-2.54469
-1.59242
-0.972738
-0.527805
-0.167498
1.05382
2.61078
3.83832
4.69933
4.46281
4.12963
4.0683
3.59781
3.17341
3.07155
3.26501
3.51924
3.45566
3.62701
3.82918
3.4494
3.08276
2.94417
2.56834
2.23859
2.13077
2.22255
2.35361
2.27142
2.3328
2.40736
2.10806
1.803
1.68209
1.72347
1.79874
1.70534
1.72111
1.74959
1.49729
1.23965
1.07862
0.819444
0.562602
0.362776
0.180824
-0.0241181
-0.317436
-0.687501
-1.08465
-1.41562
-1.8324
-2.36936
-2.76289
-3.30647
-4.22894
-5.7512
-7.56434
-9.12445
-11.6554
-13.638
-11.2403
-6.78237
-3.91051
-2.32733
-1.42423
-0.859321
-0.463211
-0.146576
1.24643
2.89151
4.21555
5.25151
4.75409
4.27601
4.31168
3.69465
3.15653
3.04733
3.31769
3.67385
3.50647
3.74325
4.08918
3.56221
3.11778
3.05713
2.59727
2.20125
2.09523
2.2432
2.44507
2.29709
2.39938
2.56214
2.16486
1.7877
1.66352
1.74761
1.87903
1.73485
1.78251
1.88123
1.56205
1.2685
1.14125
0.854005
0.577262
0.385317
0.218003
0.0307751
-0.268803
-0.660671
-1.08465
-1.38505
-1.79988
-2.39375
-2.71464
-3.20049
-4.11697
-5.81087
-7.86961
-9.37544
-12.5454
-15.5236
-12.4233
-6.73753
-3.60578
-2.05935
-1.23349
-0.735939
-0.394415
-0.124492
1.49917
3.18592
4.59957
5.90352
5.03108
4.37446
4.59718
3.78088
3.10572
2.99348
3.36111
3.86401
3.52236
3.84559
4.40841
3.66344
3.12025
3.19742
2.61976
2.14209
2.04072
2.2586
2.56082
2.30141
2.45816
2.75542
2.21752
1.75262
1.62895
1.76687
1.97812
1.74757
1.83709
2.04089
1.6219
1.28264
1.21409
0.886219
0.584427
0.404876
0.255163
0.0923454
-0.214841
-0.63242
-1.09464
-1.34657
-1.7543
-2.43914
-2.65516
-3.06433
-3.94705
-5.83844
-8.20624
-9.48092
-13.412
-17.8182
-13.7635
-6.48816
-3.18621
-1.74482
-1.02455
-0.605337
-0.322838
-0.101684
1.83783
3.48764
4.97489
6.68794
5.28001
4.40361
4.94701
3.85291
3.01552
2.9065
3.39262
4.10826
3.48838
3.92575
4.8104
3.74535
3.07674
3.37996
2.63386
2.0577
1.965
2.26711
2.71306
2.27478
2.50396
3.00196
2.26246
1.69383
1.57656
1.77988
2.10555
1.73609
1.88082
2.2396
1.67323
1.27616
1.30293
0.915114
0.582248
0.421368
0.291661
0.161888
-0.155089
-0.602108
-1.11975
-1.29825
-1.69021
-2.51719
-2.58398
-2.8991
-3.70999
-5.8296
-8.60899
-9.38541
-14.2056
-20.638
-15.2832
-5.95594
-2.64744
-1.39075
-0.802486
-0.470336
-0.249857
-0.0785615
2.29865
3.78713
5.31851
7.64906
5.48214
4.33551
5.39226
3.90444
2.88003
2.78307
3.4072
4.43208
3.38438
3.97218
5.32666
3.79691
2.96944
3.62544
2.63583
1.9443
1.86591
2.26554
2.91846
2.20423
2.52957
3.32134
2.29383
1.60707
1.5048
1.78407
2.27445
1.69038
1.90816
2.49213
1.71084
1.2413
1.41594
0.93906
0.568551
0.435024
0.326561
0.241032
-0.0891738
-0.568352
-1.16669
-1.23761
-1.5995
-2.6432
-2.49909
-2.70757
-3.39484
-5.77655
-9.12957
-9.02072
-14.8555
-24.1313
-17.005
-5.04008
-1.99351
-1.00696
-0.572822
-0.333687
-0.176747
-0.0554992
2.93153
4.07086
5.59769
8.84622
5.61238
4.1342
5.97536
3.92508
2.69313
2.62044
3.39634
4.86982
3.18377
3.96921
5.99872
3.80288
2.77513
3.96189
2.61925
1.79793
1.74161
2.2484
3.19945
2.07253
2.52521
3.73916
2.30269
1.48795
1.41263
1.77507
2.50244
1.59715
1.91166
2.81798
1.7275
1.16816
1.56431
0.955427
0.540825
0.446527
0.358505
0.331823
-0.0169562
-0.528716
-1.24419
-1.16164
-1.47058
-2.8371
-2.39609
-2.4948
-2.98874
-5.66579
-9.84144
-8.30456
-15.2642
-28.4859
-18.9506
-3.61291
-1.24082
-0.60581
-0.341146
-0.197928
-0.104635
-0.0328225
3.80379
4.32025
5.76729
10.3575
5.63772
3.75408
6.75296
3.89858
2.44888
2.41693
3.34647
5.46695
2.85215
3.89605
6.88034
3.74263
2.46415
4.42658
2.57387
1.61469
1.59094
2.20694
3.58569
1.85735
2.47797
4.28847
2.27592
1.33218
1.29976
1.74587
2.81283
1.43911
1.88155
3.24243
1.71335
1.0442
1.76307
0.960157
0.496239
0.457164
0.38557
0.436826
0.0612819
-0.479314
-1.36344
-1.06685
-1.28748
-3.12467
-2.26701
-2.26896
-2.47699
-5.4752
-10.8452
-7.13945
-15.301
-33.9366
-21.1392
-1.51515
-0.422852
-0.201266
-0.112737
-0.0652819
-0.0344742
-0.0108051
)
;

boundaryField
{
    left
    {
        type            calculated;
        value           uniform 0;
    }
    right
    {
        type            calculated;
        value           uniform 0;
    }
    interface
    {
        type            calculated;
        value           nonuniform List<scalar> 
64
(
3.80379
4.32025
5.76729
10.3575
5.63772
3.75408
6.75296
3.89858
2.44888
2.41693
3.34647
5.46695
2.85215
3.89605
6.88034
3.74263
2.46415
4.42658
2.57387
1.61469
1.59094
2.20694
3.58569
1.85735
2.47797
4.28847
2.27592
1.33218
1.29976
1.74587
2.81283
1.43911
1.88155
3.24243
1.71335
1.0442
1.76307
0.960157
0.496239
0.457164
0.38557
0.436826
0.0612819
-0.479314
-1.36344
-1.06685
-1.28748
-3.12467
-2.26701
-2.26896
-2.47699
-5.4752
-10.8452
-7.13945
-15.301
-33.9366
-21.1392
-1.51515
-0.422852
-0.201266
-0.112737
-0.0652819
-0.0344742
-0.0108051
)
;
    }
    bottom
    {
        type            calculated;
        value           nonuniform List<scalar> 
64
(
0.00630511
0.0187346
0.0306388
0.0417203
0.0517498
0.0605783
0.0681351
0.0744182
0.0794771
0.0833949
0.0862712
0.0882104
0.0893145
0.0896803
0.0894003
0.0885636
0.087257
0.0855642
0.0835629
0.0813216
0.0788961
0.076327
0.0736393
0.070843
0.0679359
0.064906
0.0617335
0.0583931
0.0548538
0.0510797
0.0470305
0.0426626
0.0379309
0.0327907
0.0272001
0.0211216
0.014523
0.00737793
-0.000333021
-0.00862158
-0.0174893
-0.0269238
-0.0368938
-0.0473419
-0.0581764
-0.0692627
-0.0804136
-0.091382
-0.101857
-0.111465
-0.119783
-0.12636
-0.130754
-0.13257
-0.131512
-0.127416
-0.120278
-0.110248
-0.0976159
-0.0827653
-0.0661299
-0.0481505
-0.029247
-0.00980744
)
;
    }
    defaultFaces
    {
        type            empty;
    }
}


// ************************************************************************* //
