/*--------------------------------*- C++ -*----------------------------------*\
| =========                 |                                                 |
| \\      /  F ield         | OpenFOAM: The Open Source CFD Toolbox           |
|  \\    /   O peration     | Version:  5.x                                   |
|   \\  /    A nd           | Web:      www.OpenFOAM.org                      |
|    \\/     M anipulation  |                                                 |
\*---------------------------------------------------------------------------*/
FoamFile
{
    version     2.0;
    format      ascii;
    class       volScalarField;
    location    "7.5";
    object      gradTy;
}
// * * * * * * * * * * * * * * * * * * * * * * * * * * * * * * * * * * * * * //

dimensions      [0 -1 0 1 0 0 0];

internalField   nonuniform List<scalar> 
3200
(
18.2487
8.63576
11.7298
8.31236
9.74974
8.03979
8.79396
7.79274
8.24163
7.60081
7.8762
7.51733
7.72779
7.31746
7.52971
7.13945
7.33861
6.98006
7.16183
6.83793
7.00125
6.71232
6.85739
6.60229
6.73029
6.50615
6.6204
6.42079
6.53576
6.36665
6.23153
6.31867
6.20022
6.25785
6.16573
6.21036
6.13641
6.17231
6.11221
6.1414
6.09238
6.11616
6.07624
6.09553
6.06327
6.07869
6.05316
6.06504
6.04595
6.05412
6.04306
6.04919
6.03765
6.04302
6.03411
6.03772
6.03284
6.03386
6.03455
6.03186
6.04064
6.03229
6.05366
6.03582
6.07862
6.04276
6.12651
6.04833
6.22315
6.00073
6.29314
7.10891
6.4216
7.94775
6.78061
9.89643
9.12577
9.00792
8.98359
8.97835
17.0092
9.75169
11.3322
8.77636
9.54699
8.26998
8.67374
7.92528
8.16447
7.68501
7.83206
7.56418
7.67634
7.36894
7.48107
7.18872
7.29402
7.02546
7.1216
6.879
6.9654
6.749
6.82576
6.6347
6.70246
6.53462
6.59527
6.44598
6.50831
6.37045
6.25641
6.3043
6.21583
6.24656
6.17761
6.20128
6.14591
6.16492
6.11992
6.13537
6.09867
6.11125
6.08136
6.09157
6.06741
6.07558
6.05645
6.06273
6.04843
6.05278
6.04451
6.04777
6.03912
6.04195
6.03528
6.03717
6.03351
6.03403
6.03455
6.0331
6.03965
6.03519
6.05116
6.04161
6.07358
6.05427
6.1167
6.07391
6.20336
6.07614
6.35163
6.9936
6.62345
7.76506
7.15803
9.50308
9.09961
9.00413
8.98278
8.97809
16.0599
10.514
11.0999
9.10724
9.42609
8.43289
8.59956
8.01827
8.11601
7.74411
7.80446
7.59579
7.64163
7.4036
7.44856
7.22204
7.26434
7.05622
7.09487
6.90687
6.94162
6.77391
6.80479
6.65672
6.68401
6.55392
6.57849
6.46267
6.48883
6.37326
6.27479
6.29535
6.22665
6.23922
6.18575
6.19533
6.1524
6.16007
6.12518
6.13141
6.10296
6.10803
6.08486
6.08897
6.07025
6.07354
6.05871
6.06124
6.05016
6.05192
6.04549
6.04682
6.04012
6.04125
6.03608
6.03684
6.034
6.0342
6.03461
6.034
6.0391
6.03726
6.04967
6.04573
6.07057
6.06251
6.1111
6.09259
6.19382
6.13544
6.39545
6.91879
6.76483
7.65234
7.41739
9.21971
9.06118
8.99742
8.98134
8.97769
15.3324
11.0311
10.9709
9.34566
9.35767
8.54941
8.5553
8.08409
8.08634
7.78592
7.78762
7.61721
7.61827
7.42693
7.4269
7.2446
7.24467
7.07711
7.07721
6.92582
6.92593
6.79087
6.79099
6.67172
6.67186
6.56702
6.56733
6.47368
6.47502
6.37538
6.2884
6.28998
6.23422
6.23453
6.19138
6.19147
6.15687
6.15692
6.1288
6.12884
6.10591
6.10594
6.08727
6.08729
6.0722
6.07222
6.06028
6.06029
6.05137
6.0514
6.04616
6.04619
6.04081
6.0408
6.03666
6.03665
6.03438
6.03436
6.03471
6.03468
6.03882
6.03876
6.04883
6.04869
6.06889
6.06849
6.10818
6.10649
6.19067
6.182
6.42875
6.87107
6.86455
7.58453
7.59526
9.01478
9.01895
8.9888
8.97941
8.97714
14.7769
11.3786
10.9044
9.51859
9.32207
8.63336
8.53012
8.13097
8.06877
7.81564
7.77767
7.63177
7.60261
7.44261
7.41254
7.25987
7.23171
7.09129
7.06561
6.93872
6.91565
6.80243
6.78196
6.68195
6.6639
6.57592
6.55993
6.48088
6.46525
6.37699
6.29847
6.28689
6.23954
6.23157
6.19527
6.18901
6.15995
6.1549
6.1313
6.12719
6.10795
6.1046
6.08893
6.08621
6.07356
6.07138
6.06137
6.05969
6.05223
6.05109
6.04662
6.04577
6.04129
6.04052
6.03706
6.03655
6.03466
6.03451
6.03483
6.03519
6.03871
6.03986
6.04841
6.05085
6.06802
6.07286
6.10691
6.11695
6.19124
6.21835
6.45422
6.8413
6.93522
7.54508
7.71678
8.86646
8.9781
8.97935
8.97719
8.97651
14.3574
11.6091
10.8744
9.64395
9.30615
8.69389
8.51678
8.16438
8.05884
7.83675
7.77203
7.64167
7.59218
7.4531
7.40308
7.27016
7.22323
7.10088
7.05806
6.94745
6.90898
6.81028
6.7761
6.68889
6.65875
6.58194
6.55505
6.48556
6.45838
6.37822
6.30587
6.28524
6.24329
6.22974
6.19796
6.18746
6.16207
6.15362
6.13301
6.12614
6.10935
6.10375
6.09007
6.08553
6.07449
6.07085
6.06213
6.05933
6.05283
6.0509
6.04694
6.0455
6.04162
6.04035
6.03735
6.0365
6.03488
6.03463
6.03494
6.03557
6.0387
6.04066
6.04822
6.05241
6.06765
6.07606
6.1066
6.12483
6.19369
6.24634
6.47365
6.82325
6.98524
7.52315
7.79918
8.75966
8.94166
8.97004
8.97492
8.97584
14.0479
11.759
10.8642
9.7336
9.3012
8.73702
8.51045
8.18791
8.05357
7.85157
7.76901
7.64832
7.58533
7.46002
7.39694
7.277
7.21777
7.10729
7.05321
6.95331
6.90472
6.81554
6.77237
6.69356
6.65545
6.58596
6.55187
6.48853
6.45363
6.37913
6.31119
6.28444
6.2459
6.22865
6.1998
6.1865
6.16351
6.15282
6.13418
6.12549
6.1103
6.10322
6.09085
6.08511
6.07512
6.07053
6.06264
6.05911
6.05324
6.05081
6.04715
6.04532
6.04184
6.04025
6.03755
6.03648
6.03503
6.03474
6.03504
6.03585
6.03873
6.04124
6.04817
6.05353
6.06755
6.07837
6.10679
6.1307
6.19679
6.26735
6.48818
6.81272
7.02024
7.51171
7.8542
8.684
8.91137
8.96167
8.9728
8.97522
13.8299
11.8531
10.8635
9.79532
9.30153
8.76664
8.50795
8.20391
8.05101
7.86161
7.76752
7.65267
7.58098
7.46445
7.39307
7.28142
7.21436
7.11144
7.0502
6.95711
6.90208
6.81897
6.77007
6.69659
6.65342
6.58856
6.54987
6.49037
6.45047
6.37978
6.31487
6.28412
6.24766
6.22802
6.20102
6.18593
6.16446
6.15235
6.13495
6.1251
6.11092
6.1029
6.09136
6.08486
6.07554
6.07034
6.06299
6.05899
6.05353
6.05075
6.04729
6.04522
6.04198
6.04019
6.03769
6.03648
6.03515
6.03482
6.03512
6.03605
6.03878
6.04164
6.04819
6.0543
6.06758
6.07999
6.10715
6.13487
6.19971
6.28235
6.49857
6.80686
7.04387
7.50622
7.88973
8.63245
8.88816
8.95487
8.97103
8.97469
13.6909
11.9078
10.8659
9.83407
9.3035
8.78521
8.50727
8.21387
8.0499
7.86784
7.76687
7.65529
7.57841
7.46707
7.39082
7.28406
7.21239
7.11392
7.04847
6.95939
6.90056
6.82102
6.76875
6.69841
6.65225
6.59012
6.54869
6.49143
6.44853
6.3802
6.31717
6.28401
6.24875
6.22768
6.20176
6.18561
6.16504
6.15208
6.13541
6.12488
6.1113
6.10272
6.09167
6.08472
6.0758
6.07024
6.0632
6.05892
6.0537
6.05073
6.04738
6.04515
6.04207
6.04015
6.03777
6.03649
6.03522
6.03487
6.03518
6.03618
6.03882
6.04189
6.04822
6.05479
6.06765
6.08101
6.1075
6.13757
6.20191
6.292
6.50527
6.80385
7.05849
7.50388
7.91089
8.60037
8.87251
8.95009
8.96977
8.9743
13.6233
11.9328
10.8679
9.85276
9.30498
8.79416
8.50721
8.21865
8.04952
7.87082
7.76663
7.65653
7.57723
7.46829
7.38978
7.28528
7.21149
7.11508
7.04768
6.96045
6.89987
6.82198
6.76814
6.69927
6.65172
6.59085
6.54815
6.49191
6.44762
6.3804
6.31829
6.284
6.24927
6.22753
6.20212
6.18547
6.16531
6.15196
6.13563
6.12478
6.11148
6.10264
6.09182
6.08465
6.07592
6.07019
6.0633
6.05889
6.05378
6.05072
6.04742
6.04512
6.04211
6.04014
6.03781
6.03649
6.03525
6.0349
6.03521
6.03625
6.03884
6.04201
6.04824
6.05503
6.0677
6.0815
6.1077
6.13889
6.20309
6.29673
6.50856
6.80261
7.06548
7.50309
7.92075
8.58498
8.86464
8.94763
8.96911
8.9741
-13.7622
-11.9567
-10.7277
-9.3885
-8.57809
-7.68624
-7.12429
-6.47241
-6.05737
-5.57527
-5.28182
-4.95618
-4.71855
-4.39002
-4.15432
-3.84259
-3.62474
-3.3435
-3.14923
-2.90105
-2.73048
-2.51359
-2.36478
-2.17577
-2.04573
-1.87975
-1.76317
-1.60915
-1.4867
-1.299
-1.12325
-1.02461
-0.922248
-0.856894
-0.778765
-0.726626
-0.66212
-0.618579
-0.564204
-0.52738
-0.481269
-0.450031
-0.410923
-0.384491
-0.35151
-0.329393
-0.30209
-0.284196
-0.262795
-0.249587
-0.234693
-0.223724
-0.208445
-0.197436
-0.182816
-0.172574
-0.159319
-0.150152
-0.138432
-0.13039
-0.120196
-0.113283
-0.104658
-0.0990444
-0.0924872
-0.0891354
-0.0870978
-0.0905438
-0.104803
-0.138722
-0.228813
-0.374918
-0.529492
-0.815964
-1.11862
-1.62775
-1.84312
-1.90712
-1.92369
-1.92754
-13.8344
-11.9337
-10.7321
-9.36735
-8.58135
-7.67305
-7.12789
-6.46294
-6.06005
-5.56773
-5.28312
-4.95266
-4.72219
-4.38631
-4.15736
-3.83884
-3.62727
-3.34003
-3.15139
-2.89795
-2.73234
-2.51087
-2.36639
-2.17341
-2.04717
-1.87778
-1.76467
-1.60789
-1.48932
-1.29853
-1.12017
-1.02477
-0.92077
-0.857408
-0.777728
-0.727123
-0.661284
-0.619014
-0.563504
-0.527754
-0.480676
-0.450348
-0.410417
-0.384754
-0.351077
-0.329602
-0.301716
-0.284338
-0.262468
-0.249656
-0.234538
-0.223898
-0.208275
-0.197581
-0.182642
-0.172695
-0.159156
-0.150255
-0.138286
-0.130477
-0.120066
-0.113352
-0.104538
-0.0990829
-0.0923597
-0.0890835
-0.0868791
-0.0901119
-0.104017
-0.136476
-0.226573
-0.37458
-0.524216
-0.815316
-1.11037
-1.6395
-1.84917
-1.90902
-1.9242
-1.9277
-13.9827
-11.8826
-10.743
-9.32306
-8.58951
-7.64534
-7.13629
-6.44299
-6.06632
-5.55189
-5.28625
-4.94515
-4.73006
-4.37833
-4.164
-3.83081
-3.63285
-3.33262
-3.15614
-2.89134
-2.73643
-2.50508
-2.36994
-2.16839
-2.05035
-1.87356
-1.76793
-1.6051
-1.49482
-1.29756
-1.11377
-1.02526
-0.917669
-0.858577
-0.775531
-0.728232
-0.659507
-0.619982
-0.562016
-0.528582
-0.479415
-0.451051
-0.409343
-0.38534
-0.350158
-0.330069
-0.300922
-0.284661
-0.261781
-0.249818
-0.234204
-0.224272
-0.20791
-0.197898
-0.18227
-0.172962
-0.158809
-0.150482
-0.137974
-0.130669
-0.119789
-0.113507
-0.104285
-0.099173
-0.0920951
-0.0889895
-0.0864437
-0.0892537
-0.10249
-0.131924
-0.222016
-0.374176
-0.513282
-0.814511
-1.09274
-1.66402
-1.86122
-1.9127
-1.92517
-1.92799
-14.2149
-11.7932
-10.7652
-9.25132
-8.6061
-7.60023
-7.15206
-6.41038
-6.07811
-5.5261
-5.2924
-4.93261
-4.74339
-4.36485
-4.17539
-3.81738
-3.64251
-3.32026
-3.16444
-2.88035
-2.74359
-2.49544
-2.37616
-2.16003
-2.05587
-1.8665
-1.77347
-1.60022
-1.50381
-1.29605
-1.10356
-1.02653
-0.912632
-0.860707
-0.771906
-0.7302
-0.656565
-0.621689
-0.559549
-0.530043
-0.477324
-0.452289
-0.407563
-0.386375
-0.348637
-0.3309
-0.299615
-0.28525
-0.260659
-0.250128
-0.233645
-0.224905
-0.207291
-0.19844
-0.181646
-0.173423
-0.158231
-0.150877
-0.137455
-0.131005
-0.119328
-0.113779
-0.103868
-0.0993425
-0.0916724
-0.0888739
-0.0857947
-0.0879792
-0.100315
-0.124947
-0.214978
-0.374296
-0.495863
-0.814625
-1.0634
-1.70352
-1.8791
-1.91794
-1.92653
-1.92839
-14.5441
-11.648
-10.8068
-9.14483
-8.63712
-7.53281
-7.17958
-6.36141
-6.09869
-5.48758
-5.30361
-4.91325
-4.7643
-4.34382
-4.19353
-3.79663
-3.65808
-3.30125
-3.17787
-2.86346
-2.7552
-2.48065
-2.38625
-2.1472
-2.06481
-1.85558
-1.78223
-1.59227
-1.51726
-1.29394
-1.08874
-1.02927
-0.905118
-0.864314
-0.7664
-0.733449
-0.652074
-0.624489
-0.555779
-0.532433
-0.474128
-0.454317
-0.404843
-0.388074
-0.346317
-0.332274
-0.297632
-0.28625
-0.258976
-0.250677
-0.232777
-0.225894
-0.206324
-0.199302
-0.18068
-0.174164
-0.157339
-0.151516
-0.136659
-0.131552
-0.118624
-0.114227
-0.103237
-0.0996387
-0.0910557
-0.0887704
-0.084936
-0.0862994
-0.0976491
-0.115355
-0.205168
-0.375925
-0.470557
-0.817539
-1.0184
-1.76159
-1.90244
-1.92439
-1.92816
-1.92888
-14.9891
-11.4207
-10.8813
-8.99218
-8.69201
-7.43536
-7.22571
-6.29021
-6.13321
-5.43198
-5.32307
-4.88423
-4.79608
-4.31199
-4.22154
-3.76556
-3.68238
-3.2729
-3.19894
-2.83833
-2.77348
-2.45867
-2.40214
-2.12811
-2.07882
-1.83924
-1.79565
-1.57972
-1.53664
-1.29111
-1.0681
-1.03461
-0.894273
-0.870209
-0.758298
-0.738636
-0.645435
-0.628937
-0.550196
-0.536225
-0.469393
-0.457534
-0.400816
-0.390774
-0.342891
-0.334475
-0.294721
-0.287887
-0.256535
-0.251612
-0.23147
-0.227392
-0.204856
-0.200629
-0.179232
-0.175319
-0.156009
-0.152517
-0.135473
-0.132412
-0.117579
-0.11494
-0.102311
-0.100135
-0.0901878
-0.0887295
-0.08387
-0.0842208
-0.0947297
-0.102878
-0.192121
-0.380599
-0.435156
-0.826297
-0.95171
-1.84375
-1.93054
-1.93157
-1.92991
-1.92938
-15.5768
-11.0722
-11.0097
-8.77598
-8.78516
-7.29603
-7.30087
-6.18789
-6.18951
-5.35269
-5.35574
-4.8412
-4.8437
-4.26442
-4.26418
-3.71957
-3.71975
-3.23114
-3.23149
-2.80138
-2.80175
-2.42635
-2.42673
-2.10003
-2.10046
-1.81506
-1.81597
-1.56026
-1.56412
-1.28738
-1.03987
-1.04422
-0.87878
-0.879621
-0.746509
-0.746768
-0.63573
-0.635877
-0.542025
-0.542133
-0.462463
-0.462547
-0.394925
-0.39499
-0.337888
-0.33793
-0.290494
-0.290506
-0.253039
-0.253157
-0.229522
-0.22963
-0.202657
-0.202644
-0.177085
-0.177091
-0.154048
-0.154062
-0.13373
-0.133744
-0.116047
-0.116054
-0.100968
-0.100943
-0.0889813
-0.0888255
-0.0825963
-0.0817366
-0.0919052
-0.0871589
-0.175106
-0.390631
-0.386293
-0.845685
-0.854353
-1.95813
-1.96208
-1.93886
-1.93162
-1.92987
-16.3447
-10.546
-11.225
-8.47007
-8.93825
-7.09695
-7.42075
-6.04099
-6.27935
-5.23982
-5.40911
-4.77748
-4.91459
-4.19369
-4.3286
-3.6518
-3.77666
-3.16983
-3.28125
-2.74721
-2.84507
-2.37901
-2.4644
-2.05887
-2.13352
-1.77944
-1.84656
-1.53043
-1.60283
-1.28248
-1.00158
-1.06062
-0.856639
-0.894393
-0.729388
-0.759354
-0.62158
-0.646579
-0.530098
-0.551234
-0.452344
-0.470271
-0.386327
-0.401494
-0.3306
-0.343287
-0.284371
-0.294626
-0.248041
-0.255654
-0.226626
-0.232952
-0.199381
-0.205682
-0.173916
-0.179786
-0.151165
-0.156421
-0.131173
-0.135785
-0.113809
-0.117771
-0.0990232
-0.10223
-0.0873032
-0.0891651
-0.0811086
-0.0788119
-0.089678
-0.0677323
-0.152987
-0.409458
-0.31888
-0.883102
-0.713193
-2.11649
-1.99469
-1.94551
-1.9331
-1.93029
-17.3446
-9.76067
-11.5776
-8.03524
-9.18372
-6.81128
-7.60877
-5.82936
-6.42031
-5.07859
-5.49453
-4.68303
-5.01982
-4.08873
-4.42549
-3.55196
-3.86285
-3.07979
-3.35685
-2.66776
-2.91094
-2.30961
-2.52172
-1.99851
-2.18375
-1.72696
-1.89249
-1.48505
-1.65726
-1.27601
-0.949684
-1.08755
-0.824831
-0.917279
-0.70447
-0.778653
-0.600921
-0.662943
-0.512668
-0.565139
-0.437554
-0.482071
-0.373768
-0.411443
-0.319971
-0.351509
-0.275483
-0.301021
-0.240876
-0.259617
-0.222317
-0.237872
-0.194512
-0.210244
-0.169244
-0.183862
-0.146928
-0.160002
-0.127423
-0.138891
-0.110533
-0.120399
-0.0962011
-0.104242
-0.0849544
-0.0899023
-0.0793912
-0.0753613
-0.0887638
-0.0440183
-0.12402
-0.442166
-0.225275
-0.949884
-0.509103
-2.33587
-2.0244
-1.95069
-1.93421
-1.93059
-18.6481
-8.59965
-12.145
-7.41309
-9.57035
-6.39912
-7.90019
-5.52324
-6.63889
-4.84738
-5.62937
-4.54295
-5.17607
-3.93336
-4.57109
-3.40505
-3.9931
-2.94763
-3.47137
-2.55131
-3.01086
-2.20794
-2.60871
-1.91005
-2.2599
-1.64983
-1.96156
-1.41671
-1.73404
-1.26755
-0.879409
-1.13068
-0.778986
-0.952543
-0.668229
-0.808184
-0.570816
-0.687942
-0.487261
-0.586378
-0.416002
-0.500106
-0.355481
-0.426669
-0.304525
-0.364137
-0.262627
-0.310938
-0.230644
-0.26591
-0.215977
-0.245231
-0.187356
-0.217152
-0.162419
-0.190072
-0.140757
-0.165476
-0.121972
-0.143651
-0.105785
-0.124445
-0.0921411
-0.1074
-0.0816834
-0.091305
-0.0774571
-0.0712561
-0.0902122
-0.0153511
-0.085554
-0.496287
-0.094022
-1.06328
-0.214307
-2.64075
-2.04459
-1.95355
-1.93477
-1.93073
18.6481
8.59965
12.145
7.41309
9.57034
6.39911
7.90019
5.52324
6.63889
4.84738
5.62936
4.54295
5.17606
3.93336
4.57109
3.40505
3.9931
2.94763
3.47137
2.55131
3.01086
2.20793
2.60871
1.91005
2.2599
1.64983
1.96156
1.41671
1.73404
1.26755
0.879407
1.13068
0.778985
0.952543
0.668228
0.808183
0.570815
0.687942
0.48726
0.586378
0.416001
0.500106
0.35548
0.426669
0.304525
0.364136
0.262627
0.310938
0.230644
0.26591
0.215977
0.245231
0.187356
0.217152
0.162418
0.190072
0.140756
0.165476
0.121972
0.143651
0.105785
0.124445
0.0921409
0.1074
0.0816832
0.0913051
0.077457
0.0712562
0.0902121
0.0153512
0.085554
0.496289
0.0940223
1.06328
0.214308
2.64076
2.04459
1.95356
1.93478
1.93074
17.3446
9.76068
11.5776
8.03525
9.18373
6.81128
7.60878
5.82937
6.42031
5.0786
5.49454
4.68303
5.01982
4.08873
4.42549
3.55197
3.86286
3.07979
3.35685
2.66777
2.91094
2.30961
2.52172
1.99851
2.18375
1.72697
1.89249
1.48506
1.65726
1.27602
0.949686
1.08755
0.824833
0.917281
0.704472
0.778655
0.600923
0.662944
0.512669
0.56514
0.437555
0.482072
0.373769
0.411444
0.319972
0.35151
0.275484
0.301022
0.240877
0.259618
0.222318
0.237873
0.194512
0.210245
0.169245
0.183863
0.146928
0.160003
0.127424
0.138892
0.110534
0.120399
0.0962018
0.104243
0.084955
0.0899029
0.0793917
0.0753619
0.0887642
0.0440187
0.12402
0.442167
0.225275
0.949887
0.509105
2.33588
2.02441
1.95069
1.93421
1.9306
16.3447
10.546
11.225
8.47008
8.93826
7.09696
7.42075
6.04099
6.27936
5.23982
5.40912
4.77749
4.9146
4.19369
4.3286
3.65181
3.77667
3.16984
3.28126
2.74721
2.84507
2.37901
2.46441
2.05888
2.13353
1.77944
1.84657
1.53043
1.60284
1.28249
1.00158
1.06063
0.856643
0.894397
0.729391
0.759358
0.621583
0.646582
0.530101
0.551237
0.452346
0.470273
0.38633
0.401497
0.330603
0.343289
0.284373
0.294628
0.248043
0.255656
0.226628
0.232954
0.199383
0.205684
0.173918
0.179788
0.151166
0.156423
0.131175
0.135787
0.11381
0.117773
0.0990245
0.102231
0.0873044
0.0891663
0.0811097
0.0788129
0.0896788
0.0677331
0.152988
0.409458
0.31888
0.883105
0.713195
2.1165
1.9947
1.94552
1.93311
1.93029
15.5768
11.0722
11.0097
8.77599
8.78517
7.29604
7.30088
6.1879
6.18952
5.3527
5.35575
4.84121
4.84371
4.26443
4.26419
3.71958
3.71975
3.23115
3.23149
2.80138
2.80176
2.42636
2.42673
2.10004
2.10046
1.81507
1.81598
1.56027
1.56413
1.28739
1.03988
1.04422
0.878785
0.879625
0.746513
0.746772
0.635734
0.635881
0.542029
0.542136
0.462466
0.462551
0.394928
0.394993
0.33789
0.337933
0.290497
0.290508
0.253041
0.253159
0.229525
0.229632
0.202659
0.202646
0.177087
0.177093
0.154049
0.154064
0.133731
0.133746
0.116049
0.116055
0.10097
0.100945
0.0889827
0.0888268
0.0825976
0.0817378
0.0919062
0.0871599
0.175106
0.390632
0.386294
0.845688
0.854356
1.95813
1.96208
1.93887
1.93163
1.92988
14.9891
11.4207
10.8813
8.99219
8.69202
7.43537
7.22571
6.29022
6.13322
5.43199
5.32308
4.88424
4.79609
4.312
4.22155
3.76556
3.68239
3.27291
3.19895
2.83834
2.77349
2.45867
2.40214
2.12812
2.07883
1.83925
1.79566
1.57973
1.53665
1.29112
1.0681
1.03461
0.894278
0.870214
0.758303
0.738641
0.645439
0.628941
0.5502
0.536229
0.469397
0.457538
0.400819
0.390777
0.342894
0.334478
0.294723
0.287889
0.256538
0.251614
0.231473
0.227395
0.204859
0.200631
0.179234
0.175321
0.156011
0.152519
0.135475
0.132414
0.117581
0.114942
0.102313
0.100137
0.0901893
0.0887309
0.0838713
0.0842221
0.0947308
0.102879
0.192122
0.380601
0.435157
0.8263
0.951713
1.84376
1.93055
1.93158
1.92992
1.92939
14.5441
11.648
10.8068
9.14484
8.63713
7.53282
7.17959
6.36141
6.0987
5.48759
5.30362
4.91326
4.76431
4.34383
4.19354
3.79664
3.65809
3.30126
3.17787
2.86347
2.75521
2.48066
2.38626
2.14721
2.06482
1.85559
1.78223
1.59228
1.51726
1.29395
1.08875
1.02928
0.905123
0.864319
0.766405
0.733453
0.652079
0.624493
0.555783
0.532437
0.474131
0.454321
0.404846
0.388077
0.34632
0.332277
0.297635
0.286252
0.258978
0.25068
0.23278
0.225897
0.206326
0.199304
0.180682
0.174167
0.157341
0.151518
0.136661
0.131554
0.118626
0.114229
0.103239
0.0996403
0.0910572
0.0887718
0.0849373
0.0863007
0.0976503
0.115356
0.205169
0.375926
0.470558
0.817541
1.0184
1.76159
1.90245
1.9244
1.92817
1.92888
14.2149
11.7932
10.7652
9.25133
8.60611
7.60023
7.15207
6.41039
6.07812
5.52611
5.29241
4.93262
4.7434
4.36486
4.1754
3.81739
3.64252
3.32027
3.16444
2.88035
2.7436
2.49545
2.37617
2.16004
2.05588
1.8665
1.77348
1.60023
1.50382
1.29606
1.10357
1.02653
0.912636
0.860711
0.77191
0.730205
0.656569
0.621693
0.559553
0.530046
0.477327
0.452293
0.407566
0.386378
0.34864
0.330903
0.299617
0.285252
0.260662
0.25013
0.233647
0.224907
0.207294
0.198443
0.181648
0.173425
0.158233
0.150879
0.137457
0.131007
0.11933
0.113781
0.10387
0.0993441
0.0916739
0.0888754
0.0857961
0.0879806
0.100316
0.124948
0.214979
0.374297
0.495865
0.814628
1.0634
1.70352
1.8791
1.91795
1.92654
1.9284
13.9827
11.8827
10.7431
9.32307
8.58952
7.64535
7.1363
6.443
6.06633
5.5519
5.28626
4.94516
4.73007
4.37833
4.16401
3.83082
3.63285
3.33262
3.15615
2.89135
2.73644
2.50509
2.36995
2.1684
2.05035
1.87357
1.76793
1.60511
1.49483
1.29756
1.11377
1.02527
0.917674
0.858581
0.775535
0.728236
0.659511
0.619986
0.56202
0.528586
0.479418
0.451054
0.409346
0.385343
0.350161
0.330072
0.300925
0.284663
0.261784
0.24982
0.234207
0.224274
0.207912
0.1979
0.182272
0.172964
0.158811
0.150484
0.137976
0.130671
0.11979
0.113508
0.104287
0.0991745
0.0920966
0.088991
0.086445
0.089255
0.102491
0.131925
0.222018
0.374178
0.513284
0.814513
1.09275
1.66403
1.86123
1.91271
1.92518
1.928
13.8344
11.9337
10.7321
9.36736
8.58136
7.67306
7.1279
6.46294
6.06006
5.56774
5.28313
4.95267
4.7222
4.38632
4.15737
3.83884
3.62728
3.34004
3.15139
2.89796
2.73234
2.51088
2.36639
2.17342
2.04718
1.87779
1.76468
1.6079
1.48932
1.29853
1.12017
1.02477
0.920774
0.857412
0.777732
0.727127
0.661288
0.619018
0.563508
0.527757
0.480679
0.450351
0.41042
0.384757
0.35108
0.329604
0.301718
0.28434
0.262471
0.249658
0.23454
0.2239
0.208277
0.197583
0.182644
0.172697
0.159158
0.150257
0.138287
0.130479
0.120068
0.113354
0.10454
0.0990844
0.0923611
0.0890849
0.0868805
0.0901131
0.104018
0.136477
0.226574
0.374581
0.524218
0.815319
1.11037
1.6395
1.84918
1.90902
1.9242
1.9277
13.7622
11.9567
10.7277
9.38851
8.57809
7.68625
7.1243
6.47241
6.05737
5.57528
5.28183
4.95619
4.71856
4.39002
4.15433
3.84259
3.62474
3.34351
3.14923
2.90106
2.73049
2.5136
2.36478
2.17577
2.04574
1.87976
1.76318
1.60915
1.48671
1.29901
1.12325
1.02462
0.922252
0.856898
0.778769
0.72663
0.662124
0.618582
0.564208
0.527383
0.481272
0.450034
0.410925
0.384493
0.351513
0.329395
0.302093
0.284198
0.262797
0.249589
0.234695
0.223726
0.208447
0.197438
0.182818
0.172576
0.159321
0.150153
0.138433
0.130392
0.120198
0.113285
0.104659
0.0990458
0.0924885
0.0891367
0.0870991
0.090545
0.104804
0.138723
0.228814
0.37492
0.529494
0.815967
1.11863
1.62775
1.84313
1.90713
1.92369
1.92755
-13.6268
-11.9378
-10.8747
-9.86329
-9.31967
-8.81683
-8.53897
-8.26781
-8.11725
-7.96849
-7.86591
-7.7301
-7.63441
-7.50972
-7.42274
-7.3104
-7.23227
-7.13164
-7.06182
-6.97211
-6.91005
-6.83058
-6.77578
-6.70583
-6.65761
-6.59596
-6.55277
-6.49592
-6.45118
-6.38334
-6.32066
-6.28607
-6.25106
-6.22914
-6.20353
-6.18676
-6.16645
-6.153
-6.13655
-6.12562
-6.11222
-6.10332
-6.09242
-6.08521
-6.07641
-6.07064
-6.0637
-6.05926
-6.05412
-6.05103
-6.04771
-6.0454
-6.04236
-6.04037
-6.03802
-6.03668
-6.03543
-6.03506
-6.03535
-6.03638
-6.03896
-6.04212
-6.04834
-6.05512
-6.06778
-6.08158
-6.10776
-6.13895
-6.20315
-6.29678
-6.5086
-6.80264
-7.06551
-7.50311
-7.92078
-8.58501
-8.86466
-8.94765
-8.96913
-8.97413
-13.6944
-11.9128
-10.8727
-9.84458
-9.31804
-8.80783
-8.5387
-8.26298
-8.11718
-7.96665
-7.86723
-7.72849
-7.63556
-7.50821
-7.42375
-7.30903
-7.23317
-7.13041
-7.06261
-6.971
-6.91074
-6.82959
-6.77639
-6.70496
-6.65814
-6.59523
-6.55332
-6.49543
-6.45211
-6.38313
-6.31954
-6.28609
-6.25054
-6.22929
-6.20318
-6.1869
-6.16618
-6.15312
-6.13633
-6.12572
-6.11204
-6.1034
-6.09228
-6.08527
-6.07629
-6.07069
-6.0636
-6.05929
-6.05403
-6.05104
-6.04767
-6.04542
-6.04232
-6.04038
-6.03798
-6.03668
-6.03539
-6.03503
-6.03533
-6.03632
-6.03894
-6.042
-6.04832
-6.05488
-6.06773
-6.08108
-6.10756
-6.13763
-6.20197
-6.29205
-6.50531
-6.80389
-7.05852
-7.50391
-7.91091
-8.60039
-8.87253
-8.95012
-8.96979
-8.97433
-13.8332
-11.8581
-10.8701
-9.8058
-9.31576
-8.78919
-8.5387
-8.25296
-8.1173
-7.96275
-7.87014
-7.72505
-7.6381
-7.50499
-7.42597
-7.3061
-7.23515
-7.12778
-7.06436
-6.96864
-6.91227
-6.82749
-6.77772
-6.7031
-6.65932
-6.59365
-6.5545
-6.49436
-6.45406
-6.38271
-6.31721
-6.28619
-6.24944
-6.22963
-6.20243
-6.18722
-6.16559
-6.15338
-6.13586
-6.12594
-6.11166
-6.10358
-6.09196
-6.08541
-6.07603
-6.07079
-6.06339
-6.05936
-6.05386
-6.05107
-6.04758
-6.04549
-6.04223
-6.04042
-6.03789
-6.03668
-6.03532
-6.03498
-6.03527
-6.03619
-6.0389
-6.04175
-6.04829
-6.0544
-6.06767
-6.08006
-6.10722
-6.13494
-6.19976
-6.2824
-6.49861
-6.80689
-7.0439
-7.50625
-7.88975
-8.63247
-8.88818
-8.95489
-8.97106
-8.97471
-14.051
-11.7639
-10.8706
-9.74406
-9.31493
-8.7595
-8.5401
-8.23693
-8.11817
-7.95638
-7.87513
-7.71929
-7.64248
-7.4996
-7.42983
-7.30122
-7.23858
-7.12338
-7.06739
-6.9647
-6.91494
-6.82398
-6.78005
-6.70001
-6.66138
-6.59101
-6.55652
-6.4925
-6.45725
-6.38205
-6.3135
-6.28652
-6.24766
-6.23027
-6.2012
-6.18779
-6.16464
-6.15387
-6.13509
-6.12633
-6.11103
-6.1039
-6.09145
-6.08566
-6.07561
-6.07098
-6.06304
-6.05948
-6.05358
-6.05112
-6.04744
-6.0456
-6.04208
-6.04048
-6.03776
-6.03668
-6.03521
-6.0349
-6.03519
-6.03599
-6.03885
-6.04135
-6.04827
-6.05362
-6.06763
-6.07845
-6.10685
-6.13076
-6.19684
-6.2674
-6.48822
-6.81275
-7.02027
-7.51173
-7.85422
-8.68403
-8.91139
-8.9617
-8.97282
-8.97524
-14.3603
-11.6139
-10.8804
-9.65441
-9.31915
-8.71637
-8.54485
-8.21353
-8.12076
-7.94679
-7.88312
-7.71036
-7.6495
-7.49128
-7.43604
-7.2937
-7.24411
-7.11662
-7.0723
-6.95865
-6.91925
-6.81859
-6.78381
-6.69527
-6.6647
-6.58693
-6.55973
-6.48949
-6.46204
-6.38112
-6.30813
-6.28732
-6.24503
-6.23137
-6.19935
-6.18876
-6.16318
-6.15467
-6.13391
-6.12699
-6.11007
-6.10443
-6.09066
-6.08609
-6.07497
-6.07131
-6.06252
-6.0597
-6.05316
-6.05122
-6.04722
-6.04577
-6.04186
-6.04058
-6.03755
-6.03669
-6.03505
-6.0348
-6.03508
-6.03571
-6.03882
-6.04077
-6.04832
-6.0525
-6.06773
-6.07613
-6.10667
-6.1249
-6.19374
-6.24639
-6.47369
-6.82329
-6.98528
-7.52318
-7.7992
-8.75968
-8.94168
-8.97006
-8.97494
-8.97586
-14.7795
-11.3835
-10.91
-9.52913
-9.33408
-8.65599
-8.556
-8.18058
-8.1266
-7.93278
-7.89546
-7.69695
-7.66042
-7.47885
-7.44573
-7.28247
-7.25275
-7.10654
-7.07998
-6.94962
-6.92602
-6.81057
-6.78973
-6.6882
-6.66991
-6.58083
-6.56465
-6.48476
-6.46897
-6.37988
-6.30067
-6.28899
-6.24125
-6.23321
-6.19663
-6.19032
-6.16104
-6.15596
-6.13218
-6.12804
-6.10866
-6.10529
-6.08951
-6.08678
-6.07403
-6.07184
-6.06176
-6.06007
-6.05255
-6.0514
-6.04691
-6.04605
-6.04153
-6.04076
-6.03726
-6.03674
-6.03483
-6.03467
-6.03497
-6.03532
-6.03883
-6.03997
-6.0485
-6.05094
-6.0681
-6.07293
-6.10697
-6.11701
-6.19129
-6.2184
-6.45426
-6.84133
-6.93525
-7.5451
-7.7168
-8.86648
-8.97812
-8.97938
-8.97721
-8.97653
-15.3345
-11.0361
-10.9758
-9.35642
-9.36833
-8.57248
-8.57816
-8.13477
-8.13803
-7.91251
-7.91425
-7.67707
-7.67714
-7.46047
-7.46063
-7.2659
-7.26606
-7.09166
-7.09181
-6.93632
-6.93645
-6.79876
-6.79888
-6.67781
-6.67795
-6.57181
-6.57213
-6.47747
-6.47882
-6.37824
-6.2905
-6.29209
-6.23588
-6.23619
-6.19271
-6.1928
-6.15794
-6.15799
-6.12967
-6.12971
-6.10661
-6.10664
-6.08784
-6.08786
-6.07267
-6.07268
-6.06066
-6.06067
-6.05169
-6.05172
-6.04644
-6.04647
-6.04105
-6.04104
-6.03685
-6.03685
-6.03454
-6.03453
-6.03485
-6.03482
-6.03894
-6.03888
-6.04893
-6.04879
-6.06896
-6.06856
-6.10824
-6.10655
-6.19072
-6.18205
-6.42879
-6.8711
-6.86458
-7.58455
-7.59528
-9.0148
-9.01897
-8.98882
-8.97943
-8.97717
-16.0614
-10.5192
-11.104
-9.11846
-9.43488
-8.45691
-8.61828
-8.0711
-8.15861
-7.88315
-7.9426
-7.64769
-7.70253
-7.43343
-7.48332
-7.24153
-7.28635
-7.0698
-7.10986
-6.9168
-6.9524
-6.78143
-6.81288
-6.66256
-6.69024
-6.55853
-6.5834
-6.46634
-6.49276
-6.37609
-6.27677
-6.29751
-6.22825
-6.24092
-6.18704
-6.19668
-6.15344
-6.16116
-6.12602
-6.1323
-6.10364
-6.10875
-6.08541
-6.08956
-6.0707
-6.07401
-6.05908
-6.06163
-6.05047
-6.05225
-6.04577
-6.0471
-6.04036
-6.04149
-6.03628
-6.03704
-6.03416
-6.03437
-6.03474
-6.03414
-6.03921
-6.03737
-6.04976
-6.04582
-6.07065
-6.06259
-6.11116
-6.09266
-6.19387
-6.13549
-6.39549
-6.91882
-6.76486
-7.65237
-7.41742
-9.21974
-9.0612
-8.99744
-8.98136
-8.97771
-17.0101
-9.75722
-11.335
-8.78842
-9.55321
-8.29577
-8.68675
-7.98204
-8.19371
-7.8404
-7.98512
-7.60432
-7.74087
-7.39362
-7.51767
-7.20569
-7.31709
-7.03768
-7.13724
-6.88813
-6.97661
-6.75601
-6.83414
-6.6402
-6.70891
-6.53899
-6.60034
-6.44946
-6.51242
-6.37324
-6.25823
-6.30652
-6.21734
-6.24831
-6.17883
-6.20268
-6.14689
-6.16605
-6.12072
-6.13628
-6.09932
-6.11199
-6.08189
-6.09217
-6.06784
-6.07607
-6.0568
-6.06313
-6.04873
-6.05311
-6.04478
-6.04806
-6.03935
-6.0422
-6.03546
-6.03738
-6.03366
-6.03421
-6.03467
-6.03324
-6.03976
-6.0353
-6.05124
-6.04171
-6.07365
-6.05436
-6.11676
-6.07398
-6.20341
-6.0762
-6.35167
-6.99363
-6.62348
-7.76509
-7.15806
-9.5031
-9.09964
-9.00415
-8.9828
-8.97811
-18.2487
-8.64196
-11.7309
-8.32586
-9.75238
-8.06864
-8.79899
-7.85627
-8.25136
-7.77767
-8.04861
-7.54021
-7.79851
-7.33491
-7.56942
-7.15287
-7.36341
-6.99036
-7.17851
-6.84591
-7.01314
-6.7186
-6.86624
-6.60729
-6.73708
-6.51016
-6.62574
-6.424
-6.54012
-6.36939
-6.23312
-6.32101
-6.2016
-6.2597
-6.16686
-6.21183
-6.13733
-6.17349
-6.11295
-6.14235
-6.09298
-6.11693
-6.07673
-6.09615
-6.06367
-6.0792
-6.05349
-6.06545
-6.04623
-6.05446
-6.04332
-6.04949
-6.03786
-6.04328
-6.03429
-6.03794
-6.03298
-6.03404
-6.03467
-6.03201
-6.04074
-6.03241
-6.05374
-6.03593
-6.07869
-6.04284
-6.12656
-6.0484
-6.2232
-6.00079
-6.29318
-7.10893
-6.42163
-7.94777
-6.78063
-9.89645
-9.12579
-9.00794
-8.98361
-8.97837
)
;

boundaryField
{
    F1_1
    {
        type            calculated;
        value           nonuniform List<scalar> 
80
(
18.9509
7.97346
11.9793
8.04098
9.87597
7.90473
8.86799
7.71471
8.28886
7.55125
7.90328
7.48932
7.75849
7.28668
7.55884
7.11004
7.36536
6.95299
7.18598
6.81345
7.02278
6.69046
6.8764
6.58297
6.747
6.48917
6.63546
6.40565
6.55181
6.36446
6.21721
6.32748
6.19098
6.26469
6.15868
6.21585
6.13077
6.17676
6.10763
6.14502
6.08864
6.11911
6.07319
6.09791
6.0608
6.08057
6.0512
6.06643
6.04448
6.05494
6.04219
6.05003
6.03677
6.04366
6.03343
6.03805
6.03245
6.03376
6.03458
6.03115
6.04127
6.03059
6.05521
6.03244
6.08176
6.03603
6.13269
6.03349
6.23619
5.95851
6.2596
7.17868
6.30274
8.06035
6.55696
10.1253
9.13447
9.00896
8.98383
8.97844
)
;
    }
    F1_2
    {
        type            calculated;
        value           nonuniform List<scalar> 
80
(
-19.3862
-7.90806
-12.494
-7.04646
-9.80628
-6.15547
-8.07706
-5.34213
-6.77159
-4.71107
-5.71177
-4.4593
-5.26947
-3.84069
-4.65854
-3.31761
-4.07147
-2.86905
-3.54035
-2.48209
-3.07109
-2.14753
-2.66115
-1.8575
-2.30579
-1.60396
-2.00308
-1.37571
-1.77902
-1.26277
-0.838993
-1.15717
-0.751914
-0.973925
-0.646765
-0.826049
-0.552977
-0.70306
-0.472206
-0.599223
-0.403234
-0.511017
-0.344653
-0.435887
-0.295387
-0.371792
-0.255037
-0.316973