/*--------------------------------*- C++ -*----------------------------------*\
| =========                 |                                                 |
| \\      /  F ield         | OpenFOAM: The Open Source CFD Toolbox           |
|  \\    /   O peration     | Version:  5.x                                   |
|   \\  /    A nd           | Web:      www.OpenFOAM.org                      |
|    \\/     M anipulation  |                                                 |
\*---------------------------------------------------------------------------*/
FoamFile
{
    version     2.0;
    format      ascii;
    class       volScalarField;
    location    "7.5";
    object      gradTx;
}
// * * * * * * * * * * * * * * * * * * * * * * * * * * * * * * * * * * * * * //

dimensions      [0 -1 0 1 0 0 0];

internalField   nonuniform List<scalar> 
3200
(
45.2113
3.71177
1.64868
1.54014
0.814944
0.771357
0.466727
0.447271
0.293827
0.282722
0.170835
0.166692
0.180697
0.180846
0.173155
0.172314
0.159533
0.158416
0.144292
0.143109
0.128823
0.127653
0.113849
0.112754
0.100213
0.0993258
0.0901502
0.0901439
0.0950744
0.164749
0.0824964
0.0552542
0.0534259
0.0416776
0.0408504
0.0332528
0.032694
0.0269772
0.0265476
0.0219894
0.0216429
0.017904
0.0176164
0.0144688
0.0142216
0.0114537
0.0112266
0.00856423
0.00832551
0.00520288
0.00507209
0.00507141
0.00502381
0.003959
0.00384595
0.00219561
0.00203018
-0.000276197
-0.000513595
-0.00387112
-0.00423347
-0.00949966
-0.0101048
-0.0191775
-0.0203255
-0.0381848
-0.0408575
-0.0840546
-0.0929789
-0.238828
-0.617545
-0.436398
-0.6819
-0.713273
-1.26867
-1.24304
-0.0558152
-0.00753208
-0.00152601
-52.9457
47.8957
3.10514
1.57725
1.35447
0.774053
0.681
0.436319
0.394718
0.271788
0.248195
0.160332
0.151487
0.160987
0.161195
0.155217
0.153443
0.143361
0.140997
0.12982
0.127313
0.116
0.11352
0.102591
0.100272
0.0903663
0.0885026
0.0814304
0.0815808
0.0883654
0.137364
0.076597
0.0516142
0.0475428
0.0380105
0.0362367
0.0301797
0.0289912
0.0244508
0.0235387
0.019922
0.0191866
0.0162207
0.0156104
0.0131133
0.0125887
0.0103918
0.00990969
0.00779496
0.00729111
0.00485403
0.00457615
0.00453092
0.00442694
0.00358641
0.00334683
0.00203807
0.00168679
-0.000145905
-0.000650534
-0.0033222
-0.0040933
-0.00829133
-0.0095816
-0.0168394
-0.019298
-0.0337
-0.0394898
-0.0750759
-0.0950008
-0.227172
-0.517925
-0.41502
-0.602301
-0.666894
-1.08542
-1.03176
-0.121888
-0.0209052
-0.00438805
-54.7419
50.5634
2.57637
1.45362
1.18311
0.713668
0.596709
0.397787
0.345418
0.245774
0.216238
0.146669
0.135548
0.141649
0.141791
0.13711
0.134905
0.126881
0.123931
0.115
0.111869
0.102823
0.0997253
0.0909888
0.0880936
0.0801979
0.0778877
0.0724216
0.0727523
0.0799678
0.11437
0.0692662
0.0471377
0.0418781
0.0340331
0.0317942
0.0269119
0.0254224
0.0217792
0.020638
0.0177394
0.0168195
0.0144432
0.0136799
0.0116789
0.0110227
0.0092613
0.00865806
0.00696124
0.00633401
0.00441881
0.00407089
0.00399277
0.00385952
0.00318978
0.00289046
0.00184222
0.00140266
-6.87437e-05
-0.000700799
-0.0028493
-0.00381605
-0.00719932
-0.00881971
-0.0146933
-0.0177928
-0.0295597
-0.0369303
-0.0667237
-0.092533
-0.209174
-0.434052
-0.382034
-0.527608
-0.606356
-0.921063
-0.854721
-0.155606
-0.0308996
-0.00673374
-56.5379
53.2105
2.11316
1.29589
1.0197
0.639184
0.515695
0.353393
0.298008
0.216956
0.185884
0.130667
0.118921
0.12255
0.122581
0.118904
0.1166
0.110198
0.107104
0.0999493
0.096662
0.0894084
0.0861558
0.0791527
0.0761151
0.069806
0.067399
0.0631808
0.0636484
0.0704827
0.0945565
0.0610164
0.0419865
0.0363168
0.0298313
0.0274574
0.0235084
0.0219398
0.0190075
0.0178076
0.0154775
0.0145107
0.0126011
0.0117988
0.0101907
0.00950093
0.00808446
0.00745015
0.00608472
0.00542843
0.00392088
0.00355483
0.00345682
0.00331355
0.00277831
0.00246404
0.00162201
0.00115979
-2.51638e-05
-0.000690413
-0.00242368
-0.00344215
-0.00617783
-0.00788769
-0.0126582
-0.0159409
-0.0255952
-0.0334739
-0.0585309
-0.0864319
-0.186846
-0.361255
-0.341145
-0.455589
-0.536381
-0.771948
-0.702998
-0.166347
-0.0368725
-0.00833381
-58.3337
55.8361
1.70406
1.11652
0.860468
0.554418
0.436234
0.304723
0.251625
0.18614
0.156494
0.112927
0.101678
0.103594
0.103518
0.100644
0.0984581
0.0933825
0.0904395
0.0847433
0.0816134
0.0758336
0.0727364
0.067158
0.0642674
0.0592581
0.0569827
0.0537527
0.0542897
0.060308
0.0770472
0.0521861
0.0363008
0.0307881
0.0254651
0.0231836
0.0200096
0.0185117
0.0161666
0.0150223
0.0131612
0.0122395
0.0107147
0.00995
0.00866575
0.00800817
0.00687633
0.00627147
0.00517982
0.00455688
0.00337728
0.00302805
0.00292267
0.00278325
0.002358
0.00205872
0.0013866
0.000945829
-2.37875e-06
-0.000637313
-0.00202666
-0.00299957
-0.00519738
-0.00683325
-0.0106825
-0.0138342
-0.0217018
-0.0293303
-0.0502244
-0.0774303
-0.161558
-0.296239
-0.294873
-0.384917
-0.460215
-0.635013
-0.569983
-0.160802
-0.0388079
-0.00906526
-60.1292
58.4416
1.33865
0.923894
0.703234
0.462138
0.357306
0.252916
0.205738
0.153889
0.127662
0.0938941
0.0839092
0.0847181
0.0845677
0.0823554
0.0804322
0.0764816
0.073885
0.0694347
0.0666707
0.0621516
0.0594161
0.0550557
0.0525045
0.0486007
0.0466046
0.0441738
0.0447118
0.0497044
0.0612018
0.0429967
0.0302002
0.0252517
0.0209772
0.0189455
0.0164437
0.0151174
0.0132775
0.0122656
0.0108072
0.00999245
0.00879789
0.00812192
0.00711571
0.00653437
0.0056471
0.00511225
0.00425617
0.00370759
0.00280046
0.0024915
0.00238987
0.00226438
0.00193265
0.00166831
0.00114193
0.000752155
7.86967e-06
-0.00055404
-0.0016463
-0.00250799
-0.0042394
-0.00569027
-0.0087348
-0.0115388
-0.0178179
-0.0246561
-0.0416653
-0.0661518
-0.134249
-0.236665
-0.244946
-0.314834
-0.380069
-0.507671
-0.450734
-0.143768
-0.0370533
-0.00890317
-61.9244
61.0294
1.00746
0.723502
0.546817
0.364407
0.278361
0.198821
0.160038
0.120614
0.0991315
0.0739097
0.0657083
0.0658805
0.0656996
0.0640556
0.0624874
0.0595266
0.0574047
0.0540587
0.0517982
0.0483981
0.0461609
0.042881
0.0407956
0.037867
0.0362439
0.0344762
0.0349557
0.0388406
0.0465445
0.033591
0.0237856
0.0196884
0.0163996
0.0147261
0.0128308
0.0117437
0.0103553
0.00952687
0.00842747
0.00776057
0.00686032
0.00630704
0.00554867
0.00507279
0.00440376
0.00396587
0.0033202
0.00287263
0.00219971
0.00194664
0.00185803
0.00175375
0.00150459
0.00128838
0.000891793
0.000572656
1.08184e-05
-0.000449558
-0.00127517
-0.00198163
-0.00329265
-0.00448356
-0.0067967
-0.00910443
-0.0139117
-0.0195751
-0.0328073
-0.0531289
-0.105566
-0.180857
-0.192554
-0.244937
-0.297429
-0.387711
-0.341487
-0.118725
-0.0321561
-0.0079053
-63.7194
63.603
0.701917
0.51882
0.390629
0.262821
0.199155
0.143095
0.114363
0.0866207
0.0707505
0.0532446
0.0471725
0.047057
0.0468901
0.0457528
0.0445983
0.0425381
0.0409734
0.0386392
0.0369713
0.0345982
0.0329474
0.0306586
0.0291204
0.0270812
0.0258889
0.0246886
0.0250634
0.027824
0.0327135
0.0240593
0.0171427
0.0140928
0.0117573
0.0105157
0.00918555
0.008382
0.00741076
0.00679892
0.00603043
0.00553803
0.00490886
0.00450036
0.00397032
0.00361893
0.00315117
0.0028278
0.00237631
0.00204668
0.00158216
0.00139521
0.0013268
0.00124891
0.00107521
0.000915656
0.000638552
0.000402862
9.70514e-06
-0.00033047
-0.000908807
-0.00143109
-0.00235071
-0.00323195
-0.00485882
-0.00657007
-0.00997125
-0.0141913
-0.0236656
-0.0388215
-0.0759698
-0.127592
-0.138535
-0.175036
-0.213277
-0.273211
-0.239301
-0.0882347
-0.0247661
-0.00619459
-65.514
66.166
0.414178
0.31194
0.234426
0.15867
0.119645
0.0862758
0.0686487
0.0521527
0.0424349
0.0321221
0.0283985
0.0282355
0.0281194
0.0274507
0.0267454
0.0255297
0.0245728
0.0231931
0.0221726
0.0207694
0.0197593
0.0184061
0.0174653
0.0162614
0.0155342
0.0148381
0.0150756
0.0167223
0.0194242
0.0144581
0.0103452
0.00846851
0.00707129
0.00630872
0.00551924
0.00502701
0.00445179
0.00407723
0.00362234
0.00332094
0.00294857
0.00269853
0.00238481
0.00216972
0.0018928
0.00169484
0.00142754
0.00122612
0.000953505
0.000839032
0.00079595
0.000747893
0.000645254
0.00054763
0.000383651
0.000239363
6.47001e-06
-0.000201857
-0.000544687
-0.000864654
-0.0014103
-0.00195053
-0.00291756
-0.00396812
-0.00599803
-0.00859739
-0.0142967
-0.0236343
-0.0457943
-0.0759541
-0.0834935
-0.105065
-0.128257
-0.162465
-0.141801
-0.0542401
-0.0155803
-0.00394224
-67.3085
68.7227
0.136908
0.104072
0.078153
0.0530495
0.0399092
0.0288272
0.0228891
0.0174136
0.0141432
0.0107361
0.00948194
0.00941222
0.00937073
0.00915001
0.00891294
0.00851097
0.00818914
0.00773253
0.00738927
0.00692478
0.006585
0.00613712
0.00582067
0.00542251
0.00517828
0.00495015
0.0050314
0.00557832
0.00644164
0.00482276
0.00345815
0.00282508
0.00235987
0.00210284
0.00184103
0.00167534
0.00148479
0.00135875
0.0012081
0.00110669
0.00098338
0.000899248
0.000795358
0.000722984
0.000631269
0.000564655
0.000476123
0.000408413
0.00031852
0.000279995
0.000265296
0.000249061
0.0002151
0.000182258
0.00012796
7.94065e-05
2.25073e-06
-6.78655e-05
-0.000181483
-0.000289194
-0.000470114
-0.000652029
-0.000972961
-0.00132699
-0.00200204
-0.00287947
-0.00478221
-0.00793427
-0.0152989
-0.0252213
-0.0278908
-0.0350302
-0.0427971
-0.0539144
-0.0469769
-0.0182895
-0.00531363
-0.00135228
-69.1029
68.7147
0.150883
0.128426
0.107467
0.0852105
0.0726956
0.0607373
0.0533355
0.04488
0.0387608
0.0310041
0.0281928
0.028306
0.0282044
0.0273709
0.026473
0.0249575
0.0237709
0.0221271
0.0209337
0.0193776
0.0182823
0.0168957
0.0159502
0.0148054
0.0141288
0.013539
0.0138373
0.0155164
0.0181032
0.0137266
0.0100698
0.00839064
0.00717955
0.00651329
0.00583472
0.00540165
0.00489745
0.0045592
0.00414806
0.00386677
0.00351838
0.00327641
0.0029715
0.00275424
0.00247168
0.00225903
0.00196536
0.0017296
0.00140717
0.00129444
0.00131227
0.00131408
0.00128136
0.00124281
0.00117502
0.00112088
0.00104454
0.000987881
0.000911964
0.000855148
0.000777047
0.000711552
0.000608423
0.000494329
0.000268291
-7.51579e-05
-0.00089247
-0.00243139
-0.00621831
-0.011787
-0.015071
-0.0220568
-0.0294917
-0.0404359
-0.036049
-0.0140883
-0.00409777
-0.00104321
-69.8074
66.1415
0.456018
0.385217
0.322454
0.255242
0.218064
0.18203
0.160049
0.134547
0.116348
0.0928144
0.0844615
0.0849267
0.0846424
0.0821151
0.0794437
0.0748592
0.071331
0.0663632
0.0628156
0.0581144
0.0548585
0.0506695
0.0478585
0.0443975
0.042383
0.0405816
0.0414565
0.0465128
0.054588
0.0411511
0.0301303
0.0251532
0.0215169
0.0195404
0.0174944
0.0162078
0.0146857
0.0136805
0.012439
0.011603
0.0105509
0.00983175
0.008911
0.00826533
0.00741226
0.00678032
0.00589376
0.00519226
0.00421314
0.0038781
0.00393744
0.00394361
0.00384433
0.00372959
0.0035245
0.00336353
0.00313284
0.00296442
0.00273513
0.0025663
0.00233064
0.00213616
0.00182571
0.00148747
0.000809573
-0.000206516
-0.00264854
-0.00720425
-0.0185837
-0.0354523
-0.0450649
-0.0661523
-0.0883347
-0.121921
-0.10885
-0.0417861
-0.0120159
-0.00304129
-69.4223
63.5611
0.771347
0.641687
0.537618
0.424072
0.363388
0.30276
0.266903
0.223921
0.194148
0.154018
0.140377
0.141577
0.14117
0.136865
0.132491
0.124719
0.118949
0.110543
0.104744
0.0967934
0.091472
0.0843882
0.0797928
0.0739318
0.0706288
0.0675172
0.0689086
0.0773886
0.0919335
0.0684791
0.0499491
0.0418622
0.0357878
0.0325702
0.0291236
0.0270234
0.0244533
0.0228113
0.0207137
0.0193479
0.0175701
0.0163952
0.0148395
0.0137847
0.012344
0.0113118
0.00981478
0.00866604
0.00699335
0.00644599
0.00656476
0.00657738
0.00640793
0.00622
0.00587224
0.00560897
0.00521866
0.0049434
0.00455589
0.00428013
0.0038826
0.00356543
0.00304412
0.0024942
0.00136439
-0.000280824
-0.00432005
-0.0117041
-0.0307294
-0.0594078
-0.0745998
-0.110204
-0.146721
-0.205272
-0.183811
-0.0679921
-0.0191021
-0.00477909
-69.0371
60.9685
1.10394
0.897133
0.753162
0.590787
0.508708
0.422499
0.374041
0.312767
0.272363
0.214161
0.1957
0.198292
0.197854
0.191618
0.185674
0.174498
0.166672
0.154618
0.146758
0.135367
0.128156
0.118007
0.111778
0.103364
0.0988669
0.0942727
0.0960772
0.108022
0.130799
0.0956101
0.0693502
0.0584907
0.0499446
0.0456093
0.0406991
0.0378578
0.0341839
0.0319604
0.0289592
0.0271093
0.0245653
0.0229739
0.020748
0.0193196
0.0172595
0.0158619
0.0137219
0.0121608
0.00972858
0.00898726
0.00919634
0.00921845
0.00897229
0.00871683
0.00821662
0.00785952
0.00729991
0.0069269
0.0063722
0.00599886
0.00543136
0.00500287
0.0042637
0.00352415
0.00193985
-0.000259353
-0.00585774
-0.0157384
-0.042489
-0.0839027
-0.103318
-0.154219
-0.204227
-0.291824
-0.262546
-0.091521
-0.0248057
-0.00609925
-68.6517
58.3594
1.46129
1.15007
0.969442
0.75429
0.654195
0.540728
0.481693
0.400778
0.35129
0.272715
0.25018
0.255128
0.25477
0.246359
0.239067
0.224144
0.214564
0.198525
0.188913
0.173774
0.164958
0.15147
0.14385
0.132639
0.127109
0.120772
0.12284
0.138222
0.171983
0.122384
0.0881354
0.0750268
0.063933
0.0586715
0.0521919
0.0487256
0.0438564
0.0411406
0.0371588
0.0348985
0.0315224
0.029578
0.0266247
0.0248798
0.0221484
0.0204418
0.0176059
0.0156905
0.0123962
0.0114905
0.0118354
0.0118703
0.0115371
0.0112235
0.0105553
0.0101182
0.00937371
0.00891769
0.00818129
0.00772537
0.00697459
0.00645277
0.00548331
0.00458792
0.00253993
-0.000101885
-0.00722411
-0.0190977
-0.053662
-0.109278
-0.130777
-0.19827
-0.260229
-0.38305
-0.34695
-0.110877
-0.0285889
-0.00686965
-68.2661
55.7301
1.8514
1.39777
1.1871
0.913192
0.800215
0.65678
0.59022
0.487533
0.43138
0.329027
0.303561
0.312177
0.312007
0.301056
0.292765
0.273576
0.262715
0.242175
0.23129
0.211928
0.201946
0.184698
0.176067
0.161687
0.155383
0.146936
0.149071
0.167687
0.216502
0.148544
0.106075
0.0914824
0.0776881
0.0717825
0.0635643
0.0596496
0.053443
0.0503716
0.0452895
0.0427325
0.0384223
0.0362226
0.0324531
0.0304795
0.0269965
0.0250669
0.0214531
0.0192753
0.0149683
0.0139439
0.014487
0.0145369
0.0141011
0.0137443
0.0128848
0.0123892
0.011436
0.0109197
0.00997919
0.00946372
0.00850869
0.00792061
0.00669999
0.00569782
0.00316379
0.000234837
-0.00840038
-0.0215494
-0.0639928
-0.136017
-0.156396
-0.242542
-0.313796
-0.480633
-0.439354
-0.124082
-0.0299494
-0.00699528
-67.8803
53.0775
2.28285
1.63577
1.40729
1.06566
0.947455
0.769757
0.700192
0.572426
0.513318
0.382264
0.355579
0.369577
0.369676
0.355646
0.346899
0.322674
0.311253
0.28544
0.274006
0.249707
0.239226
0.217581
0.208513
0.190413
0.183744
0.172676
0.174642
0.195944
0.265692
0.173685
0.1229
0.107906
0.0911279
0.0849861
0.0747646
0.0706654
0.0629042
0.0596831
0.0533193
0.0506367
0.0452378
0.04293
0.0382098
0.0361397
0.0317825
0.0297595
0.025243
0.0229454
0.0174092
0.0163345
0.0171583
0.017223
0.016662
0.0162854
0.0151998
0.0146786
0.0134809
0.0129388
0.0117601
0.0112197
0.0100282
0.00941379
0.00790798
0.00686904
0.0038035
0.000799855
-0.00939604
-0.0228292
-0.0731403
-0.164822
-0.179384
-0.28741
-0.363539
-0.586541
-0.542717
-0.128442
-0.0284626
-0.0064314
-67.4942
50.4003
2.76481
1.85701
1.63201
1.20918
1.09707
0.878409
0.812492
0.654572
0.598134
0.431326
0.405969
0.427533
0.427911
0.410025
0.401652
0.371261
0.360367
0.328129
0.317237
0.286933
0.276952
0.249962
0.241321
0.218681
0.21228
0.197895
0.199441
0.222264
0.321353
0.197177
0.138293
0.124402
0.104142
0.098353
0.0857201
0.0818279
0.0721839
0.0691204
0.061202
0.0586496
0.0519298
0.049734
0.0438605
0.0418915
0.0364752
0.0345518
0.0289441
0.0267451
0.0196716
0.0186493
0.01986
0.0199341
0.0192156
0.0188548
0.0174922
0.0169951
0.0154996
0.0149834
0.0135156
0.0130018
0.0115246
0.0109427
0.00909734
0.00812137
0.00444078
0.00165262
-0.0102622
-0.0226339
-0.0806329
-0.196711
-0.198633
-0.333553
-0.407408
-0.703122
-0.660898
-0.120229
-0.023858
-0.00519699
-67.108
47.6993
3.3068
2.05095
1.86464
1.34028
1.25095
0.980951
0.928471
0.73266
0.687364
0.474731
0.454483
0.486336
0.486876
0.464024
0.457286
0.419068
0.410335
0.369964
0.361244
0.323347
0.315358
0.281608
0.274688
0.2463
0.241136
0.222478
0.223388
0.245533
0.385944
0.218058
0.151887
0.141152
0.116578
0.111994
0.0963262
0.0932205
0.0812006
0.0787521
0.0688702
0.0668294
0.058441
0.0566853
0.0493552
0.0477812
0.0410283
0.0394917
0.032509
0.0307398
0.0216921
0.0208748
0.0226073
0.0226771
0.0217549
0.0214644
0.0197501
0.0193516
0.0174792
0.0170661
0.015233
0.0148224
0.0129853
0.0125222
0.010252
0.00948194
0.00504241
0.0028705
-0.0111099
-0.0206133
-0.0858022
-0.233167
-0.212562
-0.382138
-0.442402
-0.83322
-0.799017
-0.0942449
-0.0161449
-0.00338684
-66.7215
44.9792
3.9182
2.2021
2.11079
1.45397
1.41206
1.07479
1.05018
0.804726
0.783289
0.51044
0.500913
0.546392
0.546776
0.517378
0.514179
0.465696
0.461568
0.410534
0.406418
0.358564
0.354796
0.312182
0.308915
0.27299
0.270532
0.246277
0.246486
0.264072
0.462868
0.23487
0.163264
0.158456
0.128215
0.126078
0.10643
0.10497
0.0898346
0.0886813
0.0762249
0.0752632
0.0646871
0.0638597
0.0546197
0.0538783
0.0453729
0.0446494
0.0358655
0.0350258
0.0233834
0.0229983
0.0254211
0.0254598
0.0242691
0.0241311
0.0219555
0.0217671
0.0194005
0.0192056
0.0168935
0.0167002
0.0143911
0.014174
0.0113467
0.0109893
0.00555341
0.0045608
-0.0121367
-0.0163653
-0.0876843
-0.276341
-0.218884
-0.435096
-0.464173
-0.980318
-0.963959
-0.0431935
-0.00581809
-0.00117786
-66.335
44.9792
3.9182
2.2021
2.11079
1.45397
1.41206
1.07479
1.05018
0.804726
0.783289
0.51044
0.500913
0.546393
0.546776
0.517378
0.514179
0.465696
0.461568
0.410534
0.406419
0.358564
0.354796
0.312182
0.308915
0.27299
0.270532
0.246278
0.246487
0.264072
0.462868
0.234871
0.163264
0.158456
0.128215
0.126079
0.10643
0.10497
0.0898348
0.0886815
0.0762251
0.0752634
0.0646873
0.0638599
0.0546199
0.0538784
0.045373
0.0446496
0.0358656
0.0350259
0.0233835
0.0229984
0.0254212
0.0254599
0.0242692
0.0241312
0.0219556
0.0217672
0.0194006
0.0192057
0.0168936
0.0167003
0.0143912
0.0141741
0.0113468
0.0109895
0.00555354
0.00456092
-0.0121365
-0.0163651
-0.0876841
-0.276341
-0.218884
-0.435098
-0.464175
-0.980322
-0.963963
-0.0431937
-0.00581811
-0.00117789
-66.335
47.6993
3.30679
2.05094
1.86464
1.34028
1.25095
0.980951
0.928471
0.73266
0.687364
0.474731
0.454483
0.486336
0.486876
0.464024
0.457286
0.419068
0.410335
0.369965
0.361244
0.323347
0.315359
0.281608
0.274689
0.2463
0.241136
0.222478
0.223388
0.245533
0.385945
0.218058
0.151888
0.141152
0.116578
0.111994
0.0963265
0.0932208
0.0812008
0.0787524
0.0688704
0.0668296
0.0584413
0.0566855
0.0493554
0.0477814
0.0410285
0.0394918
0.0325092
0.0307399
0.0216922
0.0208748
0.0226073
0.0226772
0.021755
0.0214645
0.0197502
0.0193517
0.0174793
0.0170662
0.0152331
0.0148225
0.0129854
0.0125223
0.0102521
0.00948205
0.00504253
0.00287063
-0.0111098
-0.0206132
-0.0858021
-0.233167
-0.212563
-0.38214
-0.442404
-0.833223
-0.799021
-0.0942453
-0.0161449
-0.00338687
-66.7215
50.4003
2.76481
1.85701
1.63201
1.20918
1.09707
0.878409
0.812491
0.654572
0.598134
0.431326
0.405969
0.427533
0.427911
0.410025
0.401652
0.371261
0.360367
0.328129
0.317237
0.286933
0.276952
0.249962
0.241321
0.218681
0.21228
0.197896
0.199441
0.222264
0.321353
0.197178
0.138294
0.124402
0.104143
0.0983533
0.0857204
0.0818281
0.0721842
0.0691207
0.0612022
0.0586498
0.05193
0.0497342
0.0438607
0.0418916
0.0364754
0.034552
0.0289442
0.0267452
0.0196717
0.0186493
0.0198601
0.0199342
0.0192157
0.0188549
0.0174923
0.0169952
0.0154997
0.0149835
0.0135157
0.0130019
0.0115247
0.0109428
0.00909744
0.00812147
0.00444088
0.00165273
-0.010262
-0.0226338
-0.0806328
-0.196711
-0.198633
-0.333554
-0.407409
-0.703125
-0.660901
-0.12023
-0.023858
-0.00519699
-67.108
53.0775
2.28285
1.63576
1.40729
1.06566
0.947454
0.769757
0.700192
0.572426
0.513318
0.382264
0.355579
0.369577
0.369676
0.355646
0.346899
0.322675
0.311253
0.28544
0.274006
0.249707
0.239226
0.217581
0.208513
0.190413
0.183744
0.172677
0.174643
0.195944
0.265693
0.173685
0.1229
0.107907
0.0911282
0.0849864
0.0747648
0.0706657
0.0629044
0.0596833
0.0533195
0.0506369
0.045238
0.0429302
0.0382099
0.0361399
0.0317826
0.0297596
0.0252431
0.0229455
0.0174092
0.0163346
0.0171583
0.017223
0.0166621
0.0162855
0.0151999
0.0146787
0.013481
0.0129389
0.0117602
0.0112198
0.0100282
0.00941388
0.00790807
0.00686912
0.00380359
0.00079995
-0.00939594
-0.0228291
-0.0731403
-0.164822
-0.179384
-0.28741
-0.363541
-0.586544
-0.54272
-0.128442
-0.0284627
-0.00643138
-67.4942
55.7301
1.85139
1.39777
1.1871
0.913191
0.800215
0.65678
0.59022
0.487533
0.43138
0.329027
0.303561
0.312177
0.312007
0.301056
0.292765
0.273576
0.262715
0.242175
0.23129
0.211928
0.201947
0.184698
0.176067
0.161688
0.155384
0.146936
0.149071
0.167687
0.216503
0.148545
0.106075
0.0914827
0.0776884
0.0717827
0.0635644
0.0596498
0.0534431
0.0503718
0.0452897
0.0427327
0.0384224
0.0362227
0.0324532
0.0304797
0.0269966
0.025067
0.0214532
0.0192754
0.0149684
0.0139439
0.014487
0.0145369
0.0141011
0.0137444
0.0128849
0.0123893
0.0114361
0.0109198
0.00997927
0.00946379
0.00850877
0.00792068
0.00670007
0.00569789
0.00316387
0.000234916
-0.00840029
-0.0215493
-0.0639928
-0.136017
-0.156396
-0.242543
-0.313797
-0.480635
-0.439356
-0.124083
-0.0299494
-0.00699525
-67.8803
58.3594
1.46129
1.15007
0.969441
0.75429
0.654194
0.540728
0.481693
0.400778
0.35129
0.272715
0.25018
0.255128
0.25477
0.246359
0.239067
0.224144
0.214564
0.198525
0.188914
0.173774
0.164958
0.15147
0.14385
0.132639
0.127109
0.120772
0.12284
0.138222
0.171984
0.122384
0.0881357
0.075027
0.0639331
0.0586717
0.0521921
0.0487258
0.0438566
0.0411408
0.0371589
0.0348987
0.0315225
0.0295781
0.0266248
0.0248799
0.0221485
0.0204419
0.017606
0.0156905
0.0123962
0.0114906
0.0118355
0.0118703
0.0115371
0.0112235
0.0105554
0.0101183
0.00937377
0.00891775
0.00818135
0.00772543
0.00697465
0.00645283
0.00548337
0.00458798
0.00253999
-0.000101823
-0.00722405
-0.0190977
-0.053662
-0.109278
-0.130777
-0.198271
-0.26023
-0.383052
-0.346952
-0.110878
-0.028589
-0.0068696
-68.2661
60.9685
1.10394
0.897133
0.753162
0.590787
0.508708
0.422499
0.374041
0.312767
0.272363
0.214161
0.1957
0.198292
0.197854
0.191618
0.185674
0.174498
0.166672
0.154618
0.146758
0.135367
0.128156
0.118008
0.111778
0.103364
0.098867
0.0942728
0.0960773
0.108022
0.130799
0.0956104
0.0693504
0.0584909
0.0499447
0.0456095
0.0406992
0.0378579
0.034184
0.0319605
0.0289593
0.0271094
0.0245654
0.022974
0.0207481
0.0193197
0.0172595
0.015862
0.0137219
0.0121609
0.00972861
0.00898729
0.00919637
0.00921849
0.00897233
0.00871687
0.00821667
0.00785957
0.00729995
0.00692694
0.00637225
0.0059989
0.00543141
0.00500292
0.00426374
0.0035242
0.0019399
-0.000259307
-0.0058577
-0.0157383
-0.042489
-0.0839028
-0.103318
-0.15422
-0.204228
-0.291825
-0.262547
-0.0915213
-0.0248058
-0.0060992
-68.6517
63.5611
0.771345
0.641687
0.537618
0.424071
0.363387
0.30276
0.266903
0.223921
0.194148
0.154018
0.140377
0.141577
0.14117
0.136865
0.132491
0.124719
0.118949
0.110543
0.104744
0.0967935
0.0914721
0.0843883
0.0797929
0.0739319
0.0706288
0.0675173
0.0689087
0.0773887
0.0919337
0.0684793
0.0499492
0.0418623
0.0357879
0.0325703
0.0291237
0.0270235
0.0244534
0.0228114
0.0207138
0.019348
0.0175702
0.0163952
0.0148396
0.0137848
0.0123441
0.0113119
0.00981482
0.00866608
0.00699338
0.00644601
0.00656478
0.0065774
0.00640796
0.00622003
0.00587227
0.00560901
0.0052187
0.00494343
0.00455593
0.00428016
0.00388263
0.00356546
0.00304415
0.00249423
0.00136443
-0.000280794
-0.00432002
-0.0117041
-0.0307294
-0.0594079
-0.0745999
-0.110204
-0.146722
-0.205273
-0.183811
-0.0679923
-0.0191022
-0.00477904
-69.0371
66.1415
0.456017
0.385217
0.322454
0.255242
0.218064
0.18203
0.160049
0.134547
0.116348
0.0928144
0.0844615
0.0849267
0.0846424
0.0821151
0.0794438
0.0748592
0.071331
0.0663632
0.0628157
0.0581144
0.0548585
0.0506695
0.0478585
0.0443976
0.0423831
0.0405817
0.0414566
0.0465129
0.0545882
0.0411513
0.0301304
0.0251533
0.0215169
0.0195404
0.0174944
0.0162078
0.0146858
0.0136806
0.012439
0.011603
0.0105509
0.00983179
0.00891103
0.00826536
0.00741229
0.00678035
0.00589378
0.00519228
0.00421315
0.00387811
0.00393745
0.00394363
0.00384435
0.00372961
0.00352452
0.00336354
0.00313286
0.00296444
0.00273515
0.00256632
0.00233066
0.00213618
0.00182573
0.00148749
0.000809591
-0.000206499
-0.00264853
-0.00720424
-0.0185837
-0.0354523
-0.045065
-0.0661525
-0.088335
-0.121921
-0.10885
-0.0417862
-0.0120159
-0.00304125
-69.4223
68.7147
0.150883
0.128426
0.107467
0.0852104
0.0726955
0.0607373
0.0533355
0.04488
0.0387608
0.0310041
0.0281928
0.028306
0.0282044
0.0273709
0.026473
0.0249575
0.0237709
0.0221271
0.0209337
0.0193776
0.0182823
0.0168957
0.0159502
0.0148054
0.0141288
0.0135391
0.0138373
0.0155164
0.0181032
0.0137267
0.0100698
0.00839067
0.00717957
0.0065133
0.00583474
0.00540166
0.00489746
0.00455921
0.00414807
0.00386678
0.00351839
0.00327642
0.00297151
0.00275425
0.00247169
0.00225903
0.00196536
0.0017296
0.00140718
0.00129444
0.00131227
0.00131408
0.00128137
0.00124281
0.00117502
0.00112088
0.00104455
0.000987887
0.00091197
0.000855153
0.000777053
0.000711558
0.000608429
0.000494335
0.000268297
-7.51528e-05
-0.000892465
-0.00243139
-0.00621832
-0.011787
-0.015071
-0.0220568
-0.0294918
-0.040436
-0.0360492
-0.0140883
-0.00409778
-0.00104319
-69.8074
68.7223
0.13674
0.103794
0.0777596
0.0524423
0.0390535
0.0275027
0.0210892
0.0150023
0.0125849
0.011923
0.011573
0.0110198
0.0105817
0.00996785
0.00952189
0.00893954
0.00852153
0.00797828
0.00758729
0.00707767
0.00671224
0.00623906
0.00590788
0.00549477
0.00524194
0.00500555
0.00508397
0.00563221
0.00650105
0.0048657
0.00348753
0.00284824
0.00237857
0.00211915
0.001855
0.00168787
0.00149573
0.00136866
0.00121682
0.00111462
0.000990372
0.000905612
0.000800961
0.000728067
0.000635706
0.00056863
0.000479495
0.000411326
0.000320835
0.000282082
0.000267368
0.000251105
0.000217052
0.000184122
0.000129685
8.1025e-05
3.72528e-06
-6.64937e-05
-0.000180243
-0.000288046
-0.000469081
-0.000651075
-0.000972103
-0.00132619
-0.00200133
-0.00287881
-0.0047816
-0.00793367
-0.0152982
-0.0252206
-0.0278902
-0.0350298
-0.0427968
-0.0539142
-0.0469768
-0.0182895
-0.0053136
-0.00135224
-69.1028
66.1648
0.413676
0.311106
0.23325
0.15685
0.117087
0.0823026
0.0632545
0.0448601
0.0376844
0.0357565
0.0347271
0.0330549
0.0317522
0.0298968
0.0285711
0.0268121
0.0255696
0.0239287
0.0227666
0.0212272
0.020141
0.0187115
0.0177269
0.0164779
0.0157252
0.015004
0.0152331
0.0168838
0.0196033
0.0145868
0.010433
0.00853792
0.0071273
0.00635763
0.00556111
0.00506462
0.00448459
0.00410698
0.00364848
0.00334474
0.00296954
0.00271763
0.00240161
0.00218498
0.0019061
0.00170677
0.00143764
0.00123487
0.000960434
0.000845285
0.000802164
0.000754026
0.000651111
0.000553226
0.000388824
0.00024422
1.08921e-05
-0.00019774
-0.000540969
-0.000861208
-0.0014072
-0.00194766
-0.00291499
-0.00396574
-0.0059959
-0.0085954
-0.0142948
-0.0236325
-0.0457924
-0.0759519
-0.0834919
-0.105064
-0.128256
-0.162465
-0.1418
-0.0542399
-0.0155802
-0.00394212
-67.3085
63.6009
0.701081
0.517429
0.388682
0.259792
0.194921
0.136473
0.105394
0.0742692
0.062574
0.0595541
0.057907
0.0550752
0.0529447
0.0498046
0.0476377
0.0446639
0.0426336
0.0398601
0.037961
0.0353587
0.0335835
0.0311661
0.0295565
0.0274412
0.0262071
0.0249645
0.0253254
0.0280926
0.033015
0.0242734
0.0172882
0.0142082
0.0118504
0.0105972
0.00925521
0.0084447
0.00746535
0.00684853
0.00607394
0.00557771
0.00494376
0.00453221
0.00399829
0.00364438
0.00317332
0.0028477
0.00239314
0.00206128
0.00159366
0.0014056
0.00133716
0.00125914
0.00108497
0.00092499
0.00064717
0.000410962
1.70696e-05
-0.000323604
-0.000902615
-0.00142534
-0.00234555
-0.00322718
-0.00485454
-0.00656611
-0.00996769
-0.014188
-0.0236625
-0.0388185
-0.0759665
-0.127588
-0.138532
-0.175034
-0.213276
-0.27321
-0.2393
-0.0882344
-0.024766
-0.00619443
-65.514
61.0265
1.00629
0.721556
0.54412
0.360173
0.272498
0.189549
0.147535
0.102901
0.0871167
0.0832968
0.0811342
0.0770674
0.0741777
0.0696735
0.0667365
0.062478
0.0597273
0.0557564
0.0531836
0.049457
0.0470517
0.0435885
0.0414064
0.0383692
0.0366894
0.0348609
0.0353214
0.0392153
0.0469732
0.0338897
0.0239871
0.0198496
0.0165293
0.0148403
0.012928
0.0118315
0.0104316
0.00959639
0.00848827
0.00781618
0.00690909
0.00635168
0.00558775
0.00510845
0.00443471
0.00399379
0.00334372
0.00289312
0.0022157
0.00196114
0.00187253
0.00176809
0.00151825
0.00130146
0.000903847
0.000584009
2.11159e-05
-0.000439937
-0.00126651
-0.00197358
-0.00328544
-0.00447686
-0.00679072
-0.00909888
-0.0139067
-0.0195704
-0.032803
-0.0531247
-0.105562
-0.180851
-0.19255
-0.244934
-0.297427
-0.387709
-0.341485
-0.118725
-0.0321559
-0.00790512
-63.7193
58.4379
1.33716
0.921392
0.699819
0.456703
0.349887
0.240987
0.18978
0.130379
0.111181
0.106973
0.104438
0.0990125
0.0954752
0.0894796
0.0858882
0.0802318
0.0768698
0.0715968
0.0684522
0.0635025
0.0605622
0.0559595
0.0532904
0.0492428
0.0471776
0.0446656
0.04518
0.0501833
0.0617651
0.0433788
0.0304554
0.0254583
0.0211429
0.0190923
0.0165682
0.0152305
0.0133753
0.0123551
0.0108851
0.010064
0.00886041
0.00817939
0.00716582
0.0065803
0.00568678
0.00514823
0.00428631
0.00373402
0.00282082
0.00251003
0.00240854
0.00228285
0.00195021
0.00168516
0.00115741
0.000766774
2.10848e-05
-0.000541653
-0.0016352
-0.00249762
-0.00423015
-0.00568166
-0.00872713
-0.0115317
-0.0178115
-0.0246501
-0.0416599
-0.0661464
-0.134243
-0.236658
-0.244941
-0.31483
-0.380067
-0.507669
-0.450733
-0.143768
-0.0370531
-0.00890299
-61.9244
55.8317
1.70227
1.11346
0.856379
0.547781
0.427359
0.290118
0.232354
0.156249
0.134645
0.130583
0.127857
0.120882
0.116871
0.10919
0.105123
0.0978938
0.0940888
0.087352
0.0837931
0.0774676
0.0741392
0.0682532
0.0652296
0.0600372
0.0576837
0.0543493
0.0548591
0.0608881
0.0777557
0.0526493
0.0366066
0.0310397
0.0256659
0.0233632
0.020161
0.0186501
0.0162855
0.0151319
0.013256
0.0123272
0.0107908
0.0100204
0.00872676
0.00806446
0.00692464
0.00631559
0.00521651
0.00458935
0.00340183
0.00305054
0.0029455
0.00280589
0.00237946
0.00207937
0.00140548
0.000963736
1.37309e-05
-0.00062214
-0.00201313
-0.00298687
-0.0051861
-0.00682269
-0.0106732
-0.0138254
-0.021694
-0.029323
-0.0502177
-0.0774237
-0.161551
-0.296231
-0.294868
-0.384913
-0.460212
-0.63501
-0.569981
-0.160801
-0.0388077
-0.0090651
-60.1292
53.2053
2.11106
1.29226
1.015
0.631331
0.505503
0.336069
0.275661
0.179938
0.157408
0.154139
0.151446
0.142633
0.138414
0.128755
0.124483
0.115419
0.111425
0.10298
0.0992446
0.0913128
0.0878185
0.0804324
0.0772555
0.070718
0.0682289