/*--------------------------------*- C++ -*----------------------------------*\
| =========                 |                                                 |
| \\      /  F ield         | OpenFOAM: The Open Source CFD Toolbox           |
|  \\    /   O peration     | Version:  5.x                                   |
|   \\  /    A nd           | Web:      www.OpenFOAM.org                      |
|    \\/     M anipulation  |                                                 |
\*---------------------------------------------------------------------------*/
FoamFile
{
    version     2.0;
    format      ascii;
    class       volScalarField;
    location    "4.5999";
    object      T;
}
// * * * * * * * * * * * * * * * * * * * * * * * * * * * * * * * * * * * * * //

dimensions      [0 0 0 1 0 0 0];

internalField   nonuniform List<scalar> 
6300
(
322.846
322.537
322.227
321.915
321.6
321.283
320.962
320.637
320.307
319.972
319.631
319.285
318.932
318.574
318.21
322.846
322.538
322.228
321.917
321.604
321.287
320.966
320.642
320.312
319.977
319.637
319.29
318.938
318.58
318.215
322.847
322.54
322.232
321.922
321.61
321.294
320.975
320.651
320.323
319.988
319.648
319.302
318.95
318.591
318.227
322.848
322.543
322.237
321.929
321.619
321.305
320.988
320.666
320.338
320.005
319.666
319.321
318.968
318.609
318.244
322.849
322.547
322.244
321.939
321.632
321.321
321.005
320.685
320.36
320.028
319.69
319.345
318.993
318.634
318.268
322.851
322.553
322.253
321.952
321.648
321.34
321.028
320.711
320.388
320.058
319.721
319.377
319.025
318.665
318.298
322.853
322.559
322.264
321.967
321.667
321.364
321.055
320.742
320.422
320.095
319.76
319.417
319.065
318.704
318.335
322.856
322.567
322.277
321.986
321.691
321.392
321.088
320.779
320.463
320.139
319.807
319.465
319.114
318.752
318.38
322.859
322.576
322.293
322.007
321.718
321.425
321.127
320.823
320.512
320.192
319.863
319.524
319.173
318.81
318.435
322.862
322.587
322.31
322.031
321.749
321.463
321.172
320.874
320.569
320.255
319.93
319.593
319.243
318.879
318.5
322.866
322.599
322.33
322.058
321.784
321.506
321.223
320.933
320.635
320.328
320.009
319.676
319.328
318.963
318.58
322.871
322.611
322.351
322.089
321.824
321.554
321.28
320.999
320.711
320.412
320.101
319.775
319.431
319.066
318.677
322.875
322.626
322.375
322.122
321.867
321.608
321.344
321.074
320.797
320.509
320.208
319.891
319.554
319.192
318.801
322.88
322.641
322.4
322.158
321.913
321.666
321.414
321.157
320.892
320.618
320.332
320.028
319.702
319.347
318.96
322.886
322.657
322.427
322.196
321.963
321.728
321.49
321.247
320.998
320.741
320.472
320.187
319.878
319.534
319.154
317.871
317.559
317.243
316.924
316.602
316.277
315.949
315.619
315.286
314.951
314.614
314.276
313.936
313.595
313.253
312.91
312.567
312.223
311.879
311.535
311.19
310.846
310.503
310.159
309.815
309.472
309.129
308.786
308.444
308.101
307.76
307.418
307.078
306.738
306.398
306.06
305.722
305.385
305.048
304.712
304.377
304.042
303.708
303.374
303.041
302.709
302.377
302.046
301.716
301.387
301.059
300.731
300.404
300.078
299.753
299.429
299.105
298.781
298.459
298.137
297.816
297.495
297.176
296.857
296.539
296.222
295.906
295.591
295.276
294.963
294.649
294.337
294.025
293.713
293.403
293.092
292.783
292.474
292.165
291.857
291.55
291.242
290.935
290.628
290.32
290.012
289.703
289.393
289.083
288.771
317.876
317.564
317.248
316.929
316.606
316.281
315.953
315.622
315.289
314.954
314.617
314.278
313.938
313.597
313.254
312.911
312.567
312.223
311.879
311.534
311.19
310.846
310.502
310.159
309.815
309.472
309.129
308.786
308.443
308.101
307.759
307.417
307.077
306.737
306.397
306.059
305.721
305.384
305.047
304.711
304.376
304.041
303.707
303.373
303.04
302.708
302.376
302.045
301.715
301.386
301.057
300.73
300.403
300.077
299.752
299.428
299.104
298.78
298.458
298.136
297.815
297.494
297.174
296.856
296.538
296.221
295.905
295.59
295.275
294.962
294.649
294.336
294.024
293.713
293.402
293.092
292.782
292.473
292.165
291.857
291.549
291.242
290.935
290.628
290.321
290.013
289.704
289.395
289.084
288.773
317.887
317.574
317.258
316.938
316.615
316.289
315.96
315.629
315.295
314.959
314.622
314.282
313.942
313.599
313.256
312.912
312.568
312.223
311.879
311.534
311.19
310.846
310.502
310.158
309.815
309.471
309.128
308.785
308.442
308.099
307.757
307.416
307.075
306.735
306.395
306.057
305.719
305.382
305.046
304.71
304.374
304.04
303.705
303.371
303.038
302.705
302.373
302.042
301.712
301.383
301.055
300.727
300.401
300.075
299.75
299.426
299.102
298.778
298.456
298.134
297.812
297.492
297.172
296.853
296.535
296.219
295.903
295.588
295.273
294.96
294.647
294.334
294.022
293.711
293.4
293.09
292.78
292.471
292.163
291.856
291.549
291.242
290.935
290.629
290.322
290.015
289.707
289.397
289.087
288.775
317.903
317.59
317.272
316.951
316.627
316.3
315.971
315.639
315.304
314.968
314.629
314.289
313.947
313.604
313.259
312.915
312.569
312.224
311.879
311.534
311.189
310.845
310.501
310.157
309.814
309.47
309.127
308.784
308.44
308.097
307.755
307.413
307.072
306.731
306.392
306.053
305.716
305.379
305.043
304.707
304.372
304.037
303.703
303.369
303.035
302.702
302.37
302.038
301.708
301.379
301.051
300.724
300.398
300.072
299.747
299.423
299.099
298.776
298.453
298.13
297.809
297.488
297.168
296.849
296.531
296.215
295.899
295.584
295.27
294.957
294.644
294.332
294.02
293.708
293.397
293.087
292.777
292.469
292.161
291.853
291.547
291.241
290.936
290.63
290.324
290.018
289.71
289.402
289.091
288.78
317.926
317.611
317.292
316.97
316.644
316.316
315.985
315.652
315.316
314.979
314.639
314.297
313.954
313.609
313.264
312.917
312.571
312.224
311.878
311.533
311.188
310.844
310.5
310.156
309.813
309.469
309.126
308.782
308.438
308.095
307.751
307.409
307.067
306.727
306.387
306.049
305.712
305.375
305.04
304.704
304.369
304.034
303.7
303.365
303.031
302.697
302.365
302.033
301.703
301.373
301.046
300.719
300.393
300.068
299.744
299.42
299.096
298.772
298.449
298.126
297.804
297.483
297.162
296.843
296.526
296.209
295.894
295.58
295.266
294.953
294.641
294.329
294.017
293.705
293.394
293.083
292.773
292.465
292.157
291.85
291.545
291.24
290.936
290.632
290.328
290.022
289.716
289.408
289.098
288.786
317.954
317.637
317.317
316.992
316.665
316.335
316.003
315.668
315.332
314.993
314.652
314.308
313.963
313.617
313.269
312.92
312.572
312.224
311.877
311.531
311.186
310.841
310.498
310.155
309.812
309.469
309.125
308.781
308.436
308.091
307.747
307.404
307.061
306.72
306.381
306.043
305.706
305.37
305.035
304.701
304.366
304.031
303.696
303.361
303.026
302.692
302.358
302.026
301.695
301.366
301.038
300.712
300.387
300.063
299.739
299.416
299.092
298.768
298.444
298.121
297.798
297.476
297.155
296.836
296.518
296.202
295.888
295.574
295.261
294.949
294.637
294.325
294.013
293.701
293.389
293.078
292.768
292.459
292.152
291.846
291.541
291.238
290.936
290.634
290.332
290.029
289.724
289.417
289.107
288.795
317.989
317.67
317.346
317.019
316.69
316.358
316.024
315.688
315.35
315.01
314.667
314.322
313.975
313.625
313.275
312.923
312.572
312.222
311.874
311.527
311.182
310.838
310.496
310.154
309.812
309.469
309.125
308.78
308.434
308.088
307.742
307.397
307.053
306.711
306.372
306.035
305.699
305.365
305.031
304.697
304.363
304.029
303.693
303.357
303.021
302.685
302.35
302.016
301.685
301.356
301.029
300.704
300.381
300.058
299.735
299.412
299.089
298.764
298.44
298.115
297.79
297.467
297.145
296.826
296.508
296.193
295.879
295.567
295.256
294.945
294.634
294.322
294.009
293.697
293.384
293.072
292.76
292.451
292.144
291.839
291.536
291.235
290.936
290.637
290.338
290.037
289.735
289.429
289.12
288.808
318.031
317.708
317.381
317.05
316.717
316.383
316.047
315.71
315.372
315.03
314.686
314.339
313.989
313.636
313.281
312.926
312.571
312.218
311.868
311.521
311.176
310.834
310.493
310.153
309.812
309.47
309.126
308.78
308.432
308.084
307.735
307.387
307.042
306.7
306.36
306.024
305.69
305.358
305.026
304.694
304.361
304.027
303.691
303.353
303.014
302.676
302.339
302.004
301.672
301.343
301.017
300.694
300.373
300.052
299.731
299.409
299.086
298.761
298.435
298.108
297.781
297.456
297.133
296.812
296.495
296.181
295.869
295.559
295.25
294.941
294.631
294.319
294.006
293.692
293.378
293.063
292.751
292.44
292.133
291.829
291.528
291.23
290.935
290.64
290.345
290.049
289.75
289.447
289.139
288.826
318.081
317.753
317.42
317.084
316.747
316.41
316.073
315.736
315.397
315.055
314.71
314.361
314.007
313.649
313.289
312.928
312.568
312.211
311.858
311.51
311.167
310.827
310.489
310.152
309.814
309.474
309.13
308.783
308.432
308.08
307.727
307.375
307.027
306.683
306.344
306.009
305.678
305.35
305.022
304.693
304.362
304.028
303.69
303.35
303.008
302.666
302.325
301.987
301.654
301.326
301.002
300.682
300.363
300.046
299.728
299.408
299.086
298.76
298.431
298.101
297.77
297.442
297.116
296.795
296.478
296.165
295.857
295.55
295.244
294.938
294.63
294.319
294.005
293.689
293.371
293.053
292.737
292.425
292.117
291.814
291.516
291.222
290.932
290.643
290.355
290.065
289.771
289.472
289.165
288.851
318.14
317.805
317.464
317.12
316.778
316.437
316.099
315.763
315.425
315.085
314.74
314.389
314.03
313.666
313.297
312.928
312.56
312.197
311.842
311.494
311.153
310.817
310.485
310.153
309.82
309.482
309.139
308.79
308.435
308.076
307.716
307.358
307.006
306.66
306.321
305.99
305.664
305.341
305.019
304.694
304.367
304.033
303.694
303.35
303.002
302.653
302.306
301.965
301.63
301.302
300.981
300.665
300.353
300.042
299.728
299.412
299.09
298.762
298.43
298.094
297.757
297.423
297.093
296.77
296.454
296.145
295.841
295.54
295.239
294.938
294.632
294.322
294.007
293.687
293.364
293.04
292.719
292.403
292.094
291.792
291.498
291.21
290.927
290.646
290.367
290.086
289.8
289.506
289.203
288.887
318.211
317.864
317.51
317.155
316.805
316.461
316.124
315.791
315.458
315.122
314.779
314.426
314.063
313.689
313.308
312.924
312.545
312.174
311.814
311.467
311.13
310.802
310.479
310.157
309.832
309.499
309.157
308.805
308.443
308.074
307.702
307.334
306.975
306.626
306.289
305.962
305.644
305.331
305.018
304.702
304.379
304.047
303.706
303.354
302.997
302.637
302.28
301.932
301.595
301.269
300.953
300.645
300.342
300.039
299.734
299.422
299.102
298.772
298.433
298.088
297.74
297.397
297.061
296.736
296.421
296.117
295.82
295.528
295.237
294.942
294.642
294.334
294.016
293.69
293.358
293.024
292.693
292.371
292.059
291.759
291.47
291.19
290.917
290.649
290.382
290.113
289.84
289.556
289.257
288.94
318.298
317.934
317.558
317.185
316.822
316.475
316.142
315.818
315.497
315.17
314.832
314.479
314.109
313.722
313.322
312.915
312.517
312.133
311.769
311.424
311.096
310.78
310.473
310.166
309.853
309.529
309.19
308.834
308.461
308.075
307.683
307.298
306.928
306.576
306.241
305.923
305.617
305.319
305.022
304.719
304.404
304.075
303.73
303.369
302.995
302.615
302.243
301.884
301.543
301.22
300.913
300.617
300.329
300.041
299.748
299.445
299.127
298.794
298.445
298.085
297.719
297.359
297.014
296.685
296.374
296.077
295.792
295.515
295.238
294.956
294.664
294.358
294.037
293.702
293.354
293.002
292.656
292.324
292.009
291.711
291.428
291.16
290.901
290.649
290.398
290.149
289.895
289.627
289.338
289.018
318.411
318.023
317.602
317.198
316.817
316.469
316.146
315.842
315.543
315.232
314.907
314.556
314.181
313.775
313.344
312.895
312.467
312.065
311.698
311.356
311.042
310.746
310.465
310.184
309.891
309.581
309.247
308.888
308.498
308.085
307.653
307.241
306.854
306.499
306.17
305.866
305.58
305.307
305.035
304.751
304.451
304.126
303.779
303.401
303.001
302.583
302.185
301.81
301.467
301.149
300.855
300.578
300.315
300.052
299.777
299.488
299.175
298.84
298.475
298.089
297.687
297.302
296.942
296.611
296.304
296.021
295.755
295.501
295.248
294.983
294.705
294.403
294.081
293.73
293.358
292.97
292.6
292.252
291.934
291.639
291.368
291.115
290.877
290.645
290.414
290.191
289.968
289.731
289.461
289.141
318.573
318.156
317.624
317.176
316.765
316.429
316.121
315.86
315.605
315.317
315.018
314.668
314.3
313.861
313.394
312.844
312.38
311.948
311.588
311.25
310.963
310.692
310.456
310.22
309.952
309.669
309.338
308.987
308.568
308.121
307.595
307.149
306.734
306.387
306.061
305.784
305.522
305.294
305.066
304.806
304.532
304.211
303.871
303.466
303.033
302.524
302.093
301.691
301.356
301.041
300.774
300.521
300.3
300.08
299.828
299.564
299.255
298.927
298.536
298.118
297.628
297.212
296.826
296.503
296.199
295.942
295.698
295.486
295.274
295.032
294.778
294.48
294.164
293.788
293.386
292.912
292.512
292.138
291.826
291.532
291.283
291.047
290.843
290.641
290.419
290.232
290.062
289.881
289.658
289.348
318.828
318.457
317.526
317.1
316.605
316.348
316.029
315.869
315.714
315.419
315.2
314.807
314.519
313.989
313.561
312.671
312.247
311.727
311.446
311.069
310.861
310.587
310.446
310.304
310.032
309.827
309.458
309.184
308.68
308.271
307.42
307.013
306.514
306.244
305.882
305.681
305.417
305.28
305.143
304.88
304.681
304.323
304.058
303.569
303.174
302.351
301.958
301.476
301.215
300.866
300.672
300.416
300.284
300.152
299.898
299.706
299.361
299.105
298.634
298.253
297.46
297.081
296.617
296.366
296.029
295.843
295.597
295.469
295.342
295.098
294.914
294.582
294.336
293.883
293.516
292.75
292.384
291.934
291.691
291.361
291.179
290.934
290.805
290.667
290.372
290.249
290.171
290.093
289.979
289.746
288.428
288.052
287.675
287.298
286.92
286.543
286.166
285.79
285.415
285.041
284.668
284.296
283.925
283.555
283.185
288.429
288.053
287.676
287.298
286.92
286.543
286.166
285.789
285.414
285.04
284.667
284.296
283.925
283.555
283.185
288.431
288.055
287.677
287.298
286.92
286.542
286.164
285.787
285.412
285.038
284.665
284.294
283.923
283.554
283.185
288.435
288.058
287.679
287.299
286.919
286.54
286.161
285.784
285.408
285.034
284.662
284.291
283.921
283.552
283.184
288.441
288.062
287.681
287.3
286.918
286.537
286.157
285.779
285.403
285.029
284.657
284.287
283.918
283.55
283.183
288.449
288.068
287.685
287.3
286.916
286.533
286.152
285.772
285.396
285.022
284.651
284.281
283.914
283.548
283.183
288.46
288.076
287.689
287.301
286.913
286.527
286.144
285.763
285.386
285.013
284.642
284.274
283.909
283.544
283.181
288.475
288.087
287.695
287.301
286.909
286.519
286.132
285.75
285.373
285
284.631
284.265
283.901
283.54
283.18
288.497
288.102
287.702
287.301
286.901
286.506
286.117
285.733
285.355
284.983
284.616
284.253
283.892
283.535
283.178
288.527
288.122
287.71
287.298
286.89
286.489
286.095
285.71
285.332
284.962
284.597
284.237
283.881
283.528
283.176
288.571
288.149
287.719
287.292
286.872
286.463
286.065
285.679
285.303
284.935
284.574
284.218
283.867
283.519
283.173
288.633
288.183
287.726
287.277
286.843
286.425
286.024
285.638
285.264
284.9
284.545
284.195
283.85
283.509
283.169
288.725
288.226
287.726
287.247
286.796
286.371
285.969
285.585
285.216
284.858
284.509
284.167
283.83
283.497
283.165
288.861
288.268
287.704
287.19
286.724
286.295
285.895
285.517
285.156
284.807
284.467
284.134
283.807
283.483
283.161
289.06
288.283
287.631
287.086
286.613
286.19
285.8
285.433
285.083
284.746
284.418
284.096
283.78
283.467
283.155
322.891
322.672
322.453
322.233
322.011
321.788
321.563
321.334
321.102
320.863
320.616
320.356
320.071
319.739
319.309
322.895
322.686
322.477
322.267
322.056
321.845
321.632
321.417
321.2
320.981
320.757
320.526
320.28
319.995
319.565
322.9
322.701
322.501
322.302
322.102
321.902
321.702
321.501
321.301
321.101
320.902
320.706
320.516
320.35
320.293
322.905
322.716
322.526
322.337
322.148
321.959
321.772
321.585
321.401
321.22
321.046
320.881
320.737
320.63
320.591
322.91
322.73
322.55
322.371
322.193
322.016
321.841
321.668
321.499
321.336
321.182
321.043
320.93
320.863
320.886
322.915
322.744
322.575
322.405
322.238
322.071
321.908
321.748
321.593
321.445
321.308
321.187
321.092
321.034
321.023
322.919
322.758
322.598
322.439
322.281
322.125
321.973
321.824
321.681
321.546
321.422
321.314
321.227
321.173
321.17
322.924
322.772
322.621
322.471
322.323
322.177
322.035
321.897
321.764
321.64
321.525
321.424
321.34
321.277
321.237
322.928
322.785
322.643
322.502
322.363
322.226
322.093
321.965
321.842
321.726
321.62
321.524
321.439
321.365
321.291
322.933
322.798
322.664
322.532
322.401
322.273
322.149
322.029
321.915
321.807
321.707
321.614
321.53
321.454
321.386
322.937
322.81
322.684
322.56
322.438
322.318
322.202
322.09
321.983
321.882
321.788
321.699
321.617
321.536
321.448
322.94
322.821
322.703
322.587
322.472
322.36
322.252
322.147
322.048
321.953
321.864
321.781
321.701
321.624
321.551
322.944
322.832
322.721
322.612
322.505
322.4
322.299
322.201
322.108
322.02
321.938
321.859
321.784
321.708
321.619
322.947
322.842
322.738
322.636
322.535
322.437
322.343
322.252
322.166
322.084
322.008
321.936
321.867
321.801
321.735
322.951
322.852
322.755
322.658
322.564
322.473
322.384
322.3
322.219
322.144
322.074
322.01
321.95
321.892
321.82
322.954
322.861
322.77
322.679
322.591
322.506
322.423
322.344
322.27
322.201
322.137
322.08
322.031
321.995
321.988
322.956
322.87
322.784
322.699
322.616
322.536
322.459
322.386
322.317
322.253
322.195
322.145
322.104
322.076
322.063
322.959
322.878
322.797
322.718
322.64
322.565
322.493
322.424
322.36
322.301
322.248
322.203
322.168
322.147
322.148
322.962
322.885
322.809
322.735
322.662
322.591
322.524
322.46
322.4
322.345
322.296
322.255
322.223
322.202
322.191
322.964
322.892
322.821
322.751
322.682
322.616
322.553
322.492
322.436
322.385
322.339
322.3
322.269
322.249
322.244
322.966
322.898
322.831
322.765
322.701
322.639
322.579
322.522
322.469
322.421
322.377
322.339
322.309
322.286
322.271
322.968
322.904
322.841
322.779
322.718
322.659
322.603
322.549
322.499
322.453
322.411
322.374
322.342
322.318
322.303
322.97
322.91
322.85
322.791
322.734
322.679
322.625
322.574
322.527
322.482
322.441
322.404
322.372
322.343
322.318
322.971
322.915
322.858
322.803
322.749
322.696
322.646
322.597
322.552
322.509
322.469
322.432
322.398
322.366
322.332
322.973
322.919
322.866
322.814
322.762
322.713
322.665
322.619
322.575
322.533
322.494
322.458
322.423
322.389
322.357
322.974
322.924
322.873
322.824
322.775
322.728
322.682
322.638
322.596
322.556
322.518
322.482
322.447
322.412
322.374
322.976
322.928
322.88
322.833
322.787
322.742
322.698
322.656
322.616
322.578
322.541
322.506
322.471
322.437
322.403
322.977
322.931
322.886
322.841
322.797
322.755
322.713
322.673
322.635
322.598
322.563
322.529
322.495
322.461
322.422
322.978
322.935
322.892
322.849
322.807
322.767
322.727
322.689
322.653
322.617
322.584
322.551
322.52
322.488
322.456
322.979
322.938
322.897
322.856
322.817
322.778
322.74
322.704
322.669
322.636
322.604
322.574
322.544
322.516
322.482
322.98
322.941
322.902
322.863
322.825
322.788
322.753
322.718
322.685
322.653
322.623
322.595
322.569
322.546
322.533
322.981
322.944
322.906
322.869
322.833
322.798
322.764
322.731
322.699
322.669
322.641
322.615
322.591
322.571
322.556
322.982
322.946
322.91
322.875
322.841
322.807
322.774
322.743
322.712
322.684
322.657
322.632
322.611
322.593
322.582
322.983
322.948
322.914
322.881
322.848
322.815
322.784
322.754
322.725
322.697
322.672
322.648
322.628
322.61
322.596
322.984
322.951
322.918
322.886
322.854
322.823
322.793
322.764
322.736
322.71
322.685
322.662
322.642
322.625
322.613
322.984
322.953
322.921
322.89
322.86
322.83
322.801
322.773
322.746
322.721
322.697
322.674
322.654
322.637
322.621
322.985
322.954
322.924
322.894
322.865
322.836
322.808
322.781
322.755
322.731
322.707
322.685
322.665
322.647
322.632
322.985
322.956
322.927
322.898
322.87
322.842
322.815
322.789
322.764
322.74
322.717
322.695
322.674
322.655
322.637
322.986
322.958
322.93
322.902
322.874
322.848
322.822
322.796
322.772
322.748
322.725
322.704
322.683
322.662
322.641
322.986
322.959
322.932
322.905
322.879
322.853
322.827
322.803
322.779
322.756
322.733
322.712
322.691
322.67
322.65
322.987
322.96
322.934
322.908
322.882
322.857
322.833
322.809
322.785
322.763
322.741
322.719
322.698
322.677
322.655
322.987
322.961
322.936
322.911
322.886
322.861
322.837
322.814
322.791
322.769
322.748
322.727
322.706
322.685
322.665
322.988
322.963
322.938
322.913
322.889
322.865
322.842
322.819
322.797
322.775
322.754
322.734
322.714
322.693
322.671
322.988
322.964
322.939
322.915
322.892
322.869
322.846
322.824
322.802
322.781
322.761
322.741
322.721
322.702
322.683
322.988
322.964
322.941
322.917
322.894
322.872
322.85
322.828
322.807
322.786
322.767
322.748
322.729
322.711
322.691
322.988
322.965
322.942
322.919
322.897
322.875
322.853
322.832
322.811
322.791
322.772
322.754
322.736
322.72
322.707
322.989
322.966
322.943
322.921
322.899
322.877
322.856
322.835
322.815
322.796
322.777
322.76
322.743
322.728
322.714
322.989
322.966
322.944
322.922
322.9
322.879
322.858
322.838
322.819
322.8
322.782
322.765
322.749
322.734
322.722
322.989
322.967
322.945
322.923
322.902
322.881
322.86
322.841
322.821
322.803
322.785
322.769
322.753
322.739
322.726
322.989
322.967
322.946
322.924
322.903
322.882
322.862
322.843
322.824
322.806
322.788
322.772
322.757
322.743
322.731
322.989
322.968
322.946
322.925
322.904
322.884
322.864
322.844
322.826
322.808
322.791
322.775
322.76
322.746
322.733
322.989
322.968
322.946
322.925
322.905
322.884
322.864
322.845
322.827
322.809
322.792
322.776
322.762
322.748
322.735
322.989
322.968
322.947
322.926
322.905
322.885
322.865
322.846
322.828
322.81
322.793
322.778
322.763
322.749
322.736
322.989
322.968
322.947
322.926
322.905
322.885
322.865
322.846
322.828
322.81
322.794
322.778
322.763
322.75
322.737
322.989
322.968
322.946
322.925
322.904
322.884
322.865
322.846
322.827
322.81
322.793
322.778
322.763
322.75
322.737
322.989
322.967
322.946
322.925
322.904
322.883
322.864
322.845
322.826
322.809
322.792
322.777
322.762
322.749
322.737
322.989
322.967
322.945
322.924
322.903
322.882
322.862
322.843
322.825
322.807
322.791
322.775
322.761
322.748
322.736
322.989
322.967
322.945
322.923
322.901
322.881
322.86
322.841
322.822
322.805
322.788
322.773
322.758
322.745
322.735
322.989
322.966
322.944
322.921
322.9
322.879
322.858
322.838
322.82
322.802
322.785
322.769
322.755
322.742
322.731
322.988
322.965
322.942
322.92
322.898
322.876
322.855
322.835
322.816
322.798
322.781
322.765
322.75
322.737
322.726
322.988
322.964
322.941
322.918
322.895
322.873
322.852
322.831
322.812
322.793
322.776
322.76
322.745
322.73
322.716
322.988
322.963
322.939
322.915
322.892
322.87
322.848
322.827
322.807
322.788
322.77
322.754
322.738
322.724
322.71
322.987
322.962
322.937
322.913
322.889
322.865
322.843
322.822
322.801
322.782
322.764
322.747
322.731
322.716
322.701
322.987
322.961
322.935
322.91
322.885
322.861
322.838
322.816
322.795
322.775
322.757
322.74
322.724
322.709
322.695
322.986
322.959
322.932
322.906
322.88
322.855
322.832
322.809
322.787
322.767
322.749
322.732
322.716
322.701
322.686
322.986
322.958
322.93
322.902
322.875
322.849
322.825
322.801
322.779
322.759
322.74
322.723
322.707
322.693
322.68
322.985
322.956
322.926
322.898
322.87
322.843
322.817
322.793
322.77
322.749
322.73
322.713
322.697
322.684
322.671
322.984
322.953
322.923
322.893
322.863
322.835
322.808
322.783
322.759
322.738
322.718
322.701
322.687
322.675
322.665
322.984
322.951
322.919
322.887
322.856
322.827
322.798
322.772
322.747
322.725
322.705
322.688
322.674
322.664
322.659
322.983
322.948
322.914
322.881
322.848
322.817
322.787
322.759
322.734
322.71
322.69
322.672
322.659
322.65
322.645
322.982
322.945
322.909
322.874
322.84
322.807
322.775
322.746
322.718
322.694
322.672
322.654
322.641
322.633
322.632
322.981
322.942
322.904
322.867
322.83
322.795
322.762
322.73
322.701
322.675
322.652
322.633
322.619
322.611
322.608
322.979
322.938
322.898
322.858
322.82
322.782
322.747
322.713
322.682
322.654
322.629
322.608
322.593
322.584
322.588
322.978
322.935
322.892
322.849
322.808
322.768
322.731
322.695
322.661
322.631
322.603
322.58
322.562
322.55
322.546
322.977
322.93
322.885
322.84
322.796
322.753
322.713
322.674
322.638
322.605
322.575
322.548
322.526
322.51
322.509
322.975
322.926
322.877
322.829
322.782
322.737
322.694
322.652
322.614
322.578
322.544
322.514
322.486
322.459
322.425
322.974
322.921
322.869
322.817
322.768
322.719
322.673
322.629
322.587
322.548
322.511
322.477
322.445
322.413
322.382
322.972
322.916
322.86
322.805
322.752
322.7
322.651
322.603
322.559
322.517
322.477
322.44
322.403
322.367
322.323
322.97
322.91
322.85
322.792
322.735
322.68
322.627
322.576
322.528
322.483
322.441
322.401
322.362
322.324
322.289
322.968
322.904
322.84
322.778
322.717
322.658
322.601
322.547
322.496
322.448
322.404
322.361
322.321
322.281
322.236
322.966
322.897
322.829
322.762
322.697
322.634
322.574
322.516
322.462
322.411
322.364
322.32
322.279
322.24
322.204
322.963
322.89
322.817
322.746
322.676
322.609
322.544
322.483
322.425
322.372
322.323
322.278
322.237
322.198
322.156
322.961
322.882
322.805
322.728
322.654
322.581
322.512
322.447
322.385
322.329
322.278
322.232
322.192
322.157
322.129
322.958
322.874
322.791
322.709
322.629
322.552
322.478
322.408
322.342
322.283
322.229
322.183
322.144
322.113
322.096
322.955
322.865
322.777
322.689
322.603
322.521
322.441
322.366
322.296
322.232
322.176
322.129
322.09
322.057
322.018
322.952
322.856
322.761
322.668
322.576
322.487
322.401
322.32
322.244
322.176
322.117
322.069
322.032
322.007
321.984
322.949
322.847
322.745
322.645
322.546
322.45
322.358
322.27
322.188
322.114
322.05
322
321.967
321.954
321.96
322.945
322.836
322.728
322.62
322.515
322.411
322.311
322.216
322.126
322.044
321.974
321.919
321.888
321.888
321.929
322.942
322.826
322.71
322.595
322.482
322.371
322.262
322.157
322.058
321.967
321.886
321.823
321.786
321.794
321.876
322.938
322.815
322.691
322.569
322.447
322.328
322.21
322.095
321.985
321.881
321.787
321.708
321.654
321.649
321.753
289.268
288.181
287.466
286.923
286.467
286.063
285.691
285.34
285.005
284.682
284.366
284.057
283.752
283.45
283.15
288.884
287.831
287.198
286.714
286.299
285.925
285.576
285.245
284.927
284.617
284.315
284.018
283.725
283.434
283.144
287.367
287.189
286.826
286.456
286.104
285.77
285.45
285.141
284.841
284.548
284.26
283.976
283.695
283.417
283.139
286.77
286.677
286.458
286.185
285.896
285.604
285.316
285.032
284.752
284.476
284.203
283.933
283.665
283.398
283.133
286.205
286.251
286.127
285.926
285.689
285.437
285.179
284.919
284.659
284.401
284.144
283.888
283.634
283.38
283.127
285.95
285.944
285.851
285.692
285.493
285.274
285.042
284.805
284.566
284.325
284.084
283.842
283.601
283.361
283.12
285.684
285.699
285.62
285.484
285.312
285.118
284.91
284.694
284.473
284.249
284.023
283.797
283.569
283.342
283.114
285.565
285.518
285.428
285.302
285.147
284.972
284.784
284.587
284.383
284.175
283.964
283.751
283.537
283.323
283.108
285.47
285.367
285.262
285.139
284.996
284.836
284.664
284.483
284.295
284.102
283.905
283.706
283.506
283.304
283.101
285.306
285.216
285.109
284.989
284.856
284.709
284.551
284.384
284.211
284.032
283.849
283.663
283.475
283.286
283.095
285.2
285.077
284.966
284.85
284.724
284.589
284.444
284.29
284.13
283.964
283.794
283.621
283.445
283.268
283.089
285.024
284.93
284.826
284.716
284.6
284.476
284.342
284.201
284.054
283.9
283.742
283.581
283.417
283.251
283.084
284.91
284.79
284.689
284.588
284.482
284.368
284.246
284.117
283.981
283.839
283.692
283.542
283.389
283.234
283.078
284.717
284.636
284.552
284.464
284.369
284.266
284.156
284.037
283.912
283.781
283.645
283.506
283.363
283.219
283.073
284.577
284.486
284.417
284.344
284.262
284.17
284.07
283.962
283.847
283.726
283.601
283.471
283.339
283.204
283.068
284.303
284.319
284.285
284.23
284.161
284.08
283.99
283.892
283.787
283.675
283.559
283.439
283.315
283.19
283.063
284.181
284.188
284.168
284.126
284.068
283.997
283.916
283.827
283.73
283.627
283.52
283.408
283.294
283.177
283.059
284.046
284.075
284.065
284.033
283.983
283.921
283.848
283.766
283.678
283.583
283.483
283.38
283.273
283.165
283.055
283.978
283.988
283.979
283.951
283.908
283.852
283.786
283.711
283.629
283.542
283.45
283.354
283.255
283.154
283.051
283.898
283.914
283.906
283.881
283.841
283.79
283.73
283.661
283.585
283.504
283.419
283.329
283.237
283.143
283.048
283.857
283.857
283.845
283.82
283.783
283.735
283.679
283.615
283.545
283.47
283.39
283.307
283.221
283.133
283.045
283.809
283.809
283.794
283.768
283.731
283.686
283.633
283.574
283.508
283.438
283.364
283.286
283.206
283.125
283.042
283.786
283.772
283.751
283.722
283.686
283.642
283.592
283.536
283.475
283.41
283.34
283.268
283.193
283.116
283.039
283.766
283.739
283.713
283.682
283.645
283.603
283.555
283.503
283.445
283.384
283.319
283.251
283.181
283.109
283.036
283.732
283.707
283.678
283.645
283.609
283.568
283.522
283.472
283.418
283.36
283.299
283.235
283.169
283.102
283.034
283.71
283.676
283.645
283.612
283.576
283.536
283.492
283.444
283.393
283.338
283.281
283.221
283.159
283.096
283.032
283.673
283.644
283.613
283.58
283.545
283.507
283.465
283.419
283.371
283.319
283.265
283.208
283.15
283.09
283.03
283.648
283.614
283.583
283.551
283.517
283.48
283.44
283.396
283.35
283.301
283.25
283.197
283.142
283.085
283.029
283.608
283.581
283.553
283.523
283.49
283.455
283.417
283.376
283.332
283.285
283.237
283.186
283.134
283.081
283.027
283.579
283.549
283.524
283.496
283.466
283.432
283.396
283.357
283.315
283.271
283.225
283.177
283.127
283.077
283.026
283.524
283.515
283.496
283.471
283.443
283.412
283.377
283.34
283.3
283.258
283.214
283.168
283.121
283.073
283.024
283.499
283.489
283.472
283.449
283.423
283.393
283.36
283.325
283.287
283.246
283.204
283.16
283.116
283.07
283.023
283.473
283.466
283.451
283.43
283.405
283.377
283.346
283.311
283.275
283.236
283.196
283.154
283.111
283.067
283.022
283.461
283.45
283.434
283.414
283.39
283.363
283.332
283.3
283.264
283.227
283.188
283.148
283.106
283.064
283.021
283.447
283.436
283.421
283.401
283.377
283.351
283.321
283.289
283.255
283.219
283.182
283.143
283.103
283.062
283.021
283.44
283.426
283.41
283.39
283.367
283.34
283.312
283.281
283.247
283.212
283.176
283.138
283.099
283.06
283.02
283.433
283.419
283.402