/*--------------------------------*- C++ -*----------------------------------*\
| =========                 |                                                 |
| \\      /  F ield         | OpenFOAM: The Open Source CFD Toolbox           |
|  \\    /   O peration     | Version:  5.x                                   |
|   \\  /    A nd           | Web:      www.OpenFOAM.org                      |
|    \\/     M anipulation  |                                                 |
\*---------------------------------------------------------------------------*/
FoamFile
{
    version     2.0;
    format      ascii;
    class       volScalarField;
    location    "13.1001";
    object      gradTx;
}
// * * * * * * * * * * * * * * * * * * * * * * * * * * * * * * * * * * * * * //

dimensions      [0 -1 0 1 0 0 0];

internalField   nonuniform List<scalar> 
6300
(
-31.9229
-31.9937
-32.1346
-32.3441
-32.6201
-32.9593
-33.3575
-33.8093
-34.308
-34.8453
-35.4121
-35.9978
-36.5915
-37.1818
-37.7581
-31.8522
-31.9237
-32.0659
-32.2777
-32.5569
-32.9003
-33.304
-33.7625
-34.2692
-34.816
-35.3931
-35.99
-36.5948
-37.1958
-37.7814
-31.71
-31.7828
-31.9278
-32.144
-32.4293
-32.7812
-33.1956
-33.6676
-34.1905
-34.7561
-35.3545
-35.9741
-36.6021
-37.2251
-37.8301
-31.495
-31.5697
-31.7186
-31.941
-32.2354
-32.5994
-33.0297
-33.5217
-34.0691
-34.6636
-35.2947
-35.9498
-36.6143
-37.2724
-37.9082
-31.2053
-31.2823
-31.4361
-31.6662
-31.9718
-32.3513
-32.8021
-33.3205
-33.9006
-34.5344
-35.2109
-35.9161
-36.633
-37.3419
-38.0227
-30.8387
-30.9181
-31.0772
-31.3159
-31.6343
-32.0318
-32.5071
-33.0576
-33.6785
-34.3625
-35.0985
-35.8709
-36.6595
-37.4397
-38.1843
-30.3926
-30.4744
-30.6387
-30.8861
-31.2177
-31.6345
-32.1369
-32.7241
-33.3934
-34.1387
-34.9496
-35.8093
-36.6943
-37.5731
-38.408
-29.8646
-29.9484
-30.117
-30.3721
-30.716
-31.1517
-31.6819
-32.3086
-33.0322
-33.8494
-34.7517
-35.7226
-36.7353
-37.7504
-38.7154
-29.2528
-29.3377
-29.5089
-29.7692
-30.1226
-30.5743
-31.1303
-31.7963
-32.5773
-33.4749
-34.4851
-35.594
-36.7738
-37.9777
-39.1345
-28.5562
-28.6408
-28.8118
-29.0733
-29.431
-29.8928
-30.4685
-31.169
-32.0057
-32.9879
-34.1196
-35.3943
-36.7883
-38.2521
-39.6973
-27.775
-27.8573
-28.0244
-28.2811
-28.6352
-29.0974
-29.6818
-30.4056
-31.2886
-32.3513
-33.6109
-35.075
-36.7328
-38.5448
-40.4248
-26.9116
-26.9893
-27.1473
-27.3915
-27.7312
-28.1798
-28.7556
-29.4828
-30.3916
-31.5175
-32.8975
-34.5616
-36.5224
-38.7689
-41.2744
-25.9707
-26.0408
-26.184
-26.4065
-26.7184
-27.1349
-27.678
-28.3782
-29.2773
-30.4294
-31.8991
-33.7503
-36.0241
-38.7307
-41.9726
-24.9596
-25.0193
-25.1415
-25.332
-25.6009
-25.9635
-26.4431
-27.0746
-27.9096
-29.0232
-30.518
-32.513
-35.0858
-38.1439
-41.5566
-23.889
-23.9354
-24.0306
-24.1793
-24.3897
-24.675
-25.0563
-25.5672
-26.2629
-27.2349
-28.6341
-30.6901
-33.6411
-37.1542
-37.5619
-38.2672
-38.707
-39.1227
-39.5124
-39.875
-40.2106
-40.5196
-40.8023
-41.0592
-41.2899
-41.494
-41.6705
-41.8182
-41.9365
-42.0253
-42.0854
-42.1187
-42.1282
-42.1177
-42.0914
-42.0537
-42.0083
-41.9581
-41.9048
-41.8491
-41.7904
-41.727
-41.6572
-41.579
-41.491
-41.3924
-41.2836
-41.1662
-41.0423
-40.9148
-40.7866
-40.6602
-40.5376
-40.4195
-40.3057
-40.1952
-40.0858
-39.9753
-39.8615
-39.7426
-39.6176
-39.4867
-39.351
-39.2123
-39.0732
-38.9362
-38.8035
-38.6768
-38.5567
-38.4429
-38.3341
-38.2284
-38.1234
-38.017
-37.9074
-37.7937
-37.6759
-37.555
-37.4327
-37.3114
-37.1936
-37.0813
-36.9761
-36.8788
-36.7892
-36.7061
-36.6279
-36.5529
-36.4794
-36.4064
-36.3337
-36.2624
-36.1948
-36.1338
-36.0834
-36.0476
-36.0301
-36.0338
-36.0604
-36.1102
-36.1814
-36.2706
-36.373
-36.4823
-36.5916
-38.2974
-38.7418
-39.1603
-39.5512
-39.914
-40.249
-40.5572
-40.8396
-41.0967
-41.3284
-41.5338
-41.7118
-41.8606
-41.979
-42.0666
-42.1239
-42.153
-42.157
-42.1404
-42.108
-42.0648
-42.0152
-41.9624
-41.9084
-41.8536
-41.7969
-41.7364
-41.6693
-41.5932
-41.5061
-41.407
-41.2962
-41.1755
-41.0475
-40.9158
-40.7839
-40.6549
-40.531
-40.4132
-40.3012
-40.1934
-40.0874
-39.9801
-39.8688
-39.7512
-39.6262
-39.4937
-39.3552
-39.213
-39.0702
-38.9299
-38.7949
-38.6672
-38.5476
-38.4357
-38.3297
-38.2273
-38.1255
-38.0216
-37.9134
-37.7996
-37.6804
-37.5569
-37.4313
-37.3065
-37.1855
-37.071
-36.9649
-36.8679
-36.7797
-36.6989
-36.6234
-36.5508
-36.4787
-36.4058
-36.3317
-36.2573
-36.1851
-36.1186
-36.0625
-36.0213
-35.9995
-36.0007
-36.0272
-36.0793
-36.1553
-36.2518
-36.363
-36.4822
-36.6015
-38.3603
-38.8137
-39.2376
-39.6306
-39.9928
-40.326
-40.6321
-40.9133
-41.1708
-41.4045
-41.6133
-41.7949
-41.9466
-42.066
-42.1514
-42.2032
-42.2232
-42.2156
-42.1857
-42.1401
-42.0851
-42.0265
-41.9685
-41.9132
-41.8606
-41.8091
-41.7551
-41.6945
-41.6234
-41.5385
-41.4383
-41.3231
-41.1951
-41.0582
-40.9172
-40.7771
-40.6422
-40.5156
-40.3986
-40.2906
-40.1892
-40.0907
-39.9908
-39.8852
-39.7707
-39.6454
-39.5094
-39.3647
-39.2146
-39.0635
-38.9159
-38.7759
-38.6461
-38.5276
-38.4198
-38.3202
-38.2252
-38.1306
-38.0324
-37.9273
-37.8135
-37.6911
-37.5617
-37.4287
-37.2961
-37.1682
-37.0487
-36.9404
-36.8442
-36.7595
-36.6841
-36.6148
-36.5477
-36.4793
-36.4071
-36.33
-36.249
-36.167
-36.0887
-36.0199
-35.9669
-35.9358
-35.9314
-35.9571
-36.0138
-36.1
-36.2115
-36.3416
-36.4818
-36.6225
-38.4609
-38.9282
-39.3595
-39.7541
-40.1136
-40.4418
-40.743
-41.0212
-41.279
-41.5166
-41.7319
-41.9211
-42.0793
-42.2016
-42.2849
-42.328
-42.3334
-42.3061
-42.2538
-42.1856
-42.1107
-42.0372
-41.9706
-41.9139
-41.8664
-41.8247
-41.7832
-41.7349
-41.6733
-41.593
-41.4912
-41.3683
-41.2276
-41.0748
-40.9173
-40.7627
-40.6175
-40.4864
-40.371
-40.2705
-40.1808
-40.0961
-40.0095
-39.9144
-39.8056
-39.68
-39.5378
-39.3819
-39.2176
-39.0517
-38.8911
-38.742
-38.6086
-38.4923
-38.392
-38.304
-38.2226
-38.1411
-38.0531
-37.9537
-37.8398
-37.7117
-37.5719
-37.4254
-37.2788
-37.1386
-37.0105
-36.8985
-36.804
-36.7259
-36.6607
-36.603
-36.5465
-36.4855
-36.4153
-36.3339
-36.2421
-36.1437
-36.0451
-35.9546
-35.8811
-35.8334
-35.8188
-35.8423
-35.906
-36.0084
-36.1444
-36.3057
-36.4808
-36.6569
-38.608
-39.0943
-39.5343
-39.928
-40.2796
-40.5964
-40.8868
-41.1586
-41.4162
-41.6606
-41.8881
-42.0921
-42.2635
-42.3937
-42.4759
-42.5074
-42.4905
-42.4325
-42.3447
-42.2408
-42.1344
-42.0377
-41.9587
-41.9012
-41.8637
-41.8402
-41.8209
-41.7946
-41.75
-41.6783
-41.5747
-41.4393
-41.2773
-41.0981
-40.9133
-40.7347
-40.5727
-40.4343
-40.3223
-40.2346
-40.1651
-40.1041
-40.0406
-39.9636
-39.8645
-39.7386
-39.5859
-39.4111
-39.2229
-39.0321
-38.8498
-38.6857
-38.5463
-38.4339
-38.3466
-38.2784
-38.22
-38.1608
-38.0905
-38.0007
-37.8869
-37.749
-37.5915
-37.4226
-37.2524
-37.0915
-36.9491
-36.8312
-36.7401
-36.6738
-36.6265
-36.5893
-36.552
-36.5047
-36.4397
-36.3528
-36.2447
-36.1206
-35.9899
-35.8647
-35.7582
-35.6834
-35.6513
-35.6697
-35.7423
-35.8682
-36.0411
-36.2498
-36.4785
-36.709
-38.8154
-39.3272
-39.7759
-40.1626
-40.4957
-40.7888
-41.0578
-41.3162
-41.5727
-41.8287
-42.0784
-42.3097
-42.5072
-42.6547
-42.7399
-42.7565
-42.7069
-42.6018
-42.4589
-42.2993
-42.1444
-42.0124
-41.9159
-41.8597
-41.841
-41.8494
-41.8689
-41.8806
-41.8658
-41.8097
-41.7038
-41.5484
-41.352
-41.1296
-40.9002
-40.6828
-40.4938
-40.3443
-40.2384
-40.1728
-40.1371
-40.1159
-40.091
-40.0445
-39.9621
-39.8359
-39.6658
-39.4598
-39.232
-39.0002
-38.7824
-38.5939
-38.445
-38.3394
-38.2739
-38.2385
-38.2185
-38.1966
-38.1558
-38.0823
-37.9686
-37.8145
-37.6277
-37.4214
-37.2125
-37.018
-36.8524
-36.7254
-36.6406
-36.5945
-36.5776
-36.5757
-36.5718
-36.5495
-36.4955
-36.4024
-36.2704
-36.1071
-35.9268
-35.7477
-35.5897
-35.472
-35.4111
-35.4189
-35.502
-35.6603
-35.8863
-36.1649
-36.4737
-36.7858
-39.1046
-39.6509
-40.1068
-40.4745
-40.7692
-41.0162
-41.2438
-41.4766
-41.7297
-42.0059
-42.295
-42.5762
-42.8225
-43.0057
-43.1026
-43.1009
-43.0029
-42.8257
-42.5972
-42.3512
-42.1214
-41.9363
-41.8148
-41.7643
-41.7793
-41.8426
-41.9281
-42.0047
-42.0412
-42.0126
-41.9044
-41.7167
-41.464
-41.1714
-40.8697
-40.5899
-40.3581
-40.1915
-40.0967
-40.0678
-40.0882
-40.133
-40.1724
-40.177
-40.1228
-39.9963
-39.7974
-39.5397
-39.2469
-38.9483
-38.6728
-38.445
-38.2812
-38.1873
-38.1576
-38.1765
-38.2199
-38.2598
-38.268
-38.2218
-38.1083
-37.9273
-37.6918
-37.4241
-37.1519
-36.9028
-36.7
-36.559
-36.4851
-36.473
-36.5073
-36.5648
-36.6181
-36.6399
-36.6076
-36.5081
-36.341
-36.1182
-35.8619
-35.6002
-35.3632
-35.179
-35.0718
-35.0597
-35.1533
-35.3548
-35.6559
-36.0364
-36.4642
-36.8982
-39.5087
-40.1048
-40.5649
-40.8913
-41.1116
-41.2716
-41.4224
-41.6077
-41.8537
-42.1646
-42.5228
-42.8931
-43.2289
-43.4808
-43.6071
-43.5839
-43.4133
-43.1233
-42.7605
-42.3797
-42.0342
-41.7683
-41.6115
-41.5746
-41.648
-41.804
-42.0002
-42.1863
-42.3106
-42.3299
-42.2193
-41.9788
-41.6334
-41.2261
-40.8078
-40.428
-40.1282
-39.9356
-39.8599
-39.8917
-40.0044
-40.1578
-40.3041
-40.3943
-40.3877
-40.2608
-40.0136
-39.67
-39.2704
-38.863
-38.4945
-38.204
-38.0169
-37.9425
-37.9716
-38.079
-38.2264
-38.3684
-38.4586
-38.4583
-38.3451
-38.1188
-37.8021
-37.4333
-37.0581
-36.7209
-36.4587
-36.2958
-36.2408
-36.2849
-36.4035
-36.56
-36.7099
-36.8082
-36.8163
-36.7113
-36.4917
-36.1775
-35.8047
-35.4174
-35.0604
-34.7751
-34.5957
-34.5482
-34.6494
-34.9059
-35.3112
-35.8399
-36.4456
-37.0642
-40.0784
-40.7544
-41.2158
-41.461
-41.5408
-41.5402
-41.5516
-41.6514
-41.8842
-42.2552
-42.7334
-43.2596
-43.7558
-44.137
-44.3269
-44.2791
-43.9954
-43.5257
-42.9498
-42.3573
-41.8323
-41.4433
-41.2357
-41.2259
-41.3979
-41.7072
-42.0871
-42.4569
-42.731
-42.8345
-42.7213
-42.3918
-41.892
-41.2968
-40.6902
-40.1512
-39.744
-39.5113
-39.4682
-39.5991
-39.8618
-40.1931
-40.5163
-40.7509
-40.826
-40.6984
-40.3688
-39.8808
-39.3052
-38.7215
-38.2042
-37.8138
-37.5905
-37.5485
-37.673
-37.9237
-38.2408
-38.5516
-38.7796
-38.8576
-38.7445
-38.4406
-37.9873
-37.4518
-36.9095
-36.4311
-36.0743
-35.8774
-35.8537
-35.9892
-36.2454
-36.5644
-36.8763
-37.1062
-37.188
-37.0796
-36.7785
-36.3211
-35.7686
-35.1908
-34.6546
-34.2186
-33.9297
-33.8226
-33.9216
-34.2429
-34.7886
-35.5326
-36.4086
-37.313
-40.8906
-41.713
-42.1779
-42.2688
-42.0861
-41.7918
-41.5535
-41.5036
-41.7157
-42.1914
-42.8748
-43.6691
-44.4486
-45.0686
-45.3888
-45.314
-44.8455
-44.0809
-43.1628
-42.2378
-41.4346
-40.8569
-40.575
-40.6153
-40.9501
-41.5086
-42.1887
-42.865
-43.3974
-43.6509
-43.5348
-43.0499
-42.288
-41.3838
-40.4753
-39.6844
-39.1085
-38.8141
-38.8257
-39.1169
-39.6206
-40.2398
-40.8562
-41.3373
-41.556
-41.4272
-40.952
-40.2178
-39.3517
-38.4845
-37.7309
-37.183
-36.9032
-36.9148
-37.1925
-37.6729
-38.2641
-38.854
-39.3168
-39.532
-39.4186
-38.9774
-38.291
-37.4802
-36.6688
-35.9661
-35.4598
-35.2094
-35.2374
-35.52
-35.9966
-36.5794
-37.1604
-37.6178
-37.8333
-37.7255
-37.2904
-36.6018
-35.769
-34.904
-34.1046
-33.4504
-33.0018
-32.8002
-32.8738
-33.2566
-33.9807
-35.0351
-36.3308
-37.6943
-42.0555
-43.1867
-43.6787
-43.47
-42.7921
-41.9633
-41.2843
-40.9787
-41.1679
-41.8285
-42.8565
-44.1
-45.3709
-46.4321
-47.0195
-46.9158
-46.1219
-44.8573
-43.3859
-41.9427
-40.7122
-39.8446
-39.4505
-39.5807
-40.1801
-41.1351
-42.2956
-43.4806
-44.4651
-44.9997
-44.8795
-44.1067
-42.8892
-41.4767
-40.0913
-38.9078
-38.0679
-37.6762
-37.7806
-38.3288
-39.2129
-40.2907
-41.391
-42.3013
-42.7866
-42.6546
-41.9082
-40.7445
-39.3999
-38.084
-36.9614
-36.166
-35.7964
-35.8977
-36.4204
-37.2625
-38.2894
-39.3392
-40.2104
-40.6798
-40.5647
-39.8672
-38.774
-37.5092
-36.2717
-35.2183
-34.4765
-34.1407
-34.2545
-34.7713
-35.5948
-36.5969
-37.6226
-38.4775
-38.9444
-38.8425
-38.1673
-37.0901
-35.8158
-34.5229
-33.3453
-32.3862
-31.7183
-31.3816
-31.3806
-31.7787
-32.6974
-34.19
-36.1552
-38.2956
-43.7022
-45.5839
-46.1891
-45.345
-43.7138
-41.9198
-40.4779
-39.7417
-39.9412
-40.9368
-42.5279
-44.4917
-46.595
-48.4778
-49.6456
-49.5112
-48.076
-45.9313
-43.5687
-41.3411
-39.4671
-38.1504
-37.571
-37.8704
-38.898
-40.4658
-42.367
-44.3848
-46.1809
-47.2911
-47.1641
-45.804
-43.771
-41.5307
-39.4168
-37.6363
-36.3817
-35.8238
-36.0966
-37.0569
-38.5264
-40.309
-42.1993
-43.8774
-44.9061
-44.7667
-43.4651
-41.5319
-39.4069
-37.4049
-35.7208
-34.5358
-34.0113
-34.2738
-35.1882
-36.586
-38.2818
-40.0817
-41.6826
-42.6695
-42.5493
-41.3267
-39.5042
-37.4989
-35.6095
-34.0218
-32.9088
-32.4247
-32.6911
-33.5811
-34.9358
-36.5804
-38.3306
-39.896
-40.8746
-40.785
-39.6233
-37.862
-35.8896
-33.9755
-32.2716
-30.9026
-29.9577
-29.4798
-29.3126
-29.5514
-30.5874
-32.6643
-35.7275
-39.2815
-45.8242
-49.8305
-50.7976
-48.3513
-44.8621
-41.3682
-38.6563
-37.158
-37.5686
-39.1877
-41.6626
-44.6826
-48.1367
-51.5528
-54.1469
-53.9798
-51.0518
-47.319
-43.557
-40.2301
-37.4198
-35.3945
-34.426
-35.1114
-36.8382
-39.3164
-42.2705
-45.6084
-48.8843
-51.3643
-51.2243
-48.4701
-44.9514
-41.4026
-38.2621
-35.6074
-33.6924
-32.7754
-33.4223
-35.0519
-37.3892
-40.1723
-43.313
-46.3888
-48.7075
-48.5524
-45.9316
-42.5954
-39.2369
-36.2682
-33.7612
-31.9548
-31.0929
-31.7112
-33.2601
-35.4802
-38.1244
-41.1105
-44.039
-46.2532
-46.1214
-43.65
-40.4975
-37.3215
-34.5131
-32.1416
-30.4354
-29.6278
-30.2298
-31.7216
-33.8594
-36.4119
-39.3049
-42.1596
-44.3429
-44.2713
-41.9428
-38.9378
-35.8793
-33.1255
-30.7157
-28.8083
-27.5247
-27.1305
-26.66
-26.1762
-26.9784
-29.7185
-34.5929
-40.9834
-47.3525
-58.4787
-60.3859
-52.8854
-45.9977
-39.6802
-35.0849
-31.825
-33.4557
-36.2062
-40.0125
-44.2483
-49.7333
-55.8117
-62.624
-62.4244
-55.1862
-48.749
-42.9185
-38.3754
-34.2418
-31.1169
-28.8994
-30.8529
-33.6962
-37.4818
-41.6215
-46.921
-52.7339
-59.21
-59.0492
-52.2368
-46.1754
-40.6866
-36.4078
-32.5133
-29.5661
-27.475
-29.333
-32.0277
-35.6099
-39.5205
-44.5203
-49.9905
-56.0711
-55.8888
-49.4284
-43.6908
-38.5057
-34.4666
-30.7929
-28.0134
-26.0432
-27.8086
-30.3655
-33.7636
-37.4749
-42.2222
-47.4241
-53.215
-53.0626
-46.9542
-41.5248
-36.6147
-32.7875
-29.3036
-26.6679
-24.801
-26.4872
-28.9319
-32.1857
-35.7534
-40.3341
-45.3899
-51.0582
-51.0075
-45.2366
-40.0905
-35.4304
-31.7801
-28.4362
-25.8157
-23.8108
-24.8909
-24.0266
-20.9493
-20.579
-23.699
-31.2753
-44.1161
-40.9191
-80.3355
-83.7514
-56.7716
-46.3456
-35.5087
-29.5899
-19.45
-27.7301
-31.7047
-37.7441
-42.0153
-50.4753
-59.0138
-81.1982
-81.0044
-58.1672
-49.3051
-40.426
-35.9312
-29.6113
-25.5324
-17.3668
-25.3129
-29.1972
-35.1373
-39.3023
-47.4944
-55.6284
-76.6131
-76.4522
-54.9222
-46.5747
-38.2281
-34.0004
-28.0548
-24.2071
-16.4879
-24.0387
-27.7255
-33.3579
-37.3003
-45.0503
-52.713
-72.4535
-72.2655
-51.8842
-43.9906
-36.1241
-32.1388
-26.537
-22.9066
-15.6143
-22.7661
-26.2594
-31.5961
-35.3333
-42.6795
-49.961
-68.7353
-68.5806
-49.2804
-41.8045
-34.3484
-30.5678
-25.244
-21.7934
-14.8577
-21.6526
-24.9771
-30.0598
-33.6361
-40.6791
-47.7382
-66.0088
-65.9808
-47.6308
-40.5435
-33.5272
-29.9934
-25.1153
-21.9365
-15.6547
-25.4515
-24.5798
-11.8241
-9.15367
-11.2624
-20.377
-50.2245
-36.7032
-36.8062
-36.8806
-36.9209
-36.9254
-36.8959
-36.8371
-36.7559
-36.6604
-36.5593
-36.4607
-36.3723
-36.3001
-36.2493
-36.223
-36.7231
-36.8348
-36.9146
-36.9567
-36.9594
-36.9251
-36.8595
-36.7701
-36.6661
-36.5567
-36.4507
-36.3559
-36.2789
-36.2247
-36.1968
-36.7653
-36.8954
-36.9865
-37.0318
-37.0304
-36.9858
-36.9055
-36.7991
-36.6773
-36.5508
-36.4294
-36.3217
-36.2348
-36.1739
-36.1425
-36.8349
-36.9951
-37.104
-37.1538
-37.1445
-37.0822
-36.9776
-36.8434
-36.6931
-36.5397
-36.3944
-36.2668
-36.1647
-36.0935
-36.057
-36.9409
-37.1462
-37.2805
-37.3349
-37.3115
-37.2211
-37.0792
-36.9038
-36.7122
-36.5204
-36.3416
-36.1866
-36.0635
-35.9784
-35.9349
-37.0976
-37.3683
-37.5369
-37.5937
-37.5457
-37.4113
-37.2145
-36.9803
-36.7317
-36.488
-36.265
-36.0743
-35.9246
-35.8217
-35.7694
-37.3283
-37.6925
-37.905
-37.9573
-37.8663
-37.6639
-37.3871
-37.0712
-36.7461
-36.4352
-36.156
-35.921
-35.7387
-35.6145
-35.5516
-37.6711
-38.1684
-38.4334
-38.4642
-38.2982
-37.9908
-37.5989
-37.1714
-36.7462
-36.3505
-36.0029
-35.7151
-35.4947
-35.3459
-35.2709
-38.1899
-38.8767
-39.196
-39.1679
-38.8715
-38.4024
-37.8463
-37.2693
-36.7168
-36.2179
-35.7898
-35.442
-35.1791
-35.0033
-34.9153
-38.9966
-39.9524
-40.306
-40.1399
-39.6175
-38.9008
-38.1148
-37.3427
-36.6338
-36.0144
-35.4964
-35.0838
-34.7765
-34.573
-34.4717
-40.3004
-41.6303
-41.9357
-41.4682
-40.5577
-39.4684
-38.3694
-37.3528
-36.4614
-35.7096
-35.0977
-34.6203
-34.27
-34.0404
-33.9269
-42.5223
-44.3328
-44.3384
-43.2395
-41.6768
-40.0459
-38.5414
-37.2378
-36.1493
-35.2647
-34.5647
-34.0296
-33.6429
-33.3919
-33.2685
-46.6019
-48.84
-47.8456
-45.4747
-42.864
-40.497
-38.5127
-36.9076
-35.6333
-34.6353
-33.8667
-33.2906
-32.8799
-32.6158
-32.4866
-54.9196
-56.5797
-52.7292
-47.9498
-43.8074
-40.5655
-38.1046
-36.2466
-34.8409
-33.7766
-32.9762
-32.3862
-31.9703
-31.7049
-31.5755
-74.5063
-69.8301
-58.5419
-49.7877
-43.8504
-39.8528
-37.0938
-35.1333
-33.7069
-32.6541
-31.8754
-31.3076
-30.9103
-30.6578
-30.5351
-22.8649
-22.8973
-22.9633
-23.0661
-23.2107
-23.4059
-23.6661
-24.0159
-24.4998
-25.2029
-26.3012
-28.1841
-31.7535
-38.9583
-51.8004
-21.9116
-21.9301
-21.9676
-22.0249
-22.1037
-22.207
-22.3399
-22.5124
-22.7444
-23.0804
-23.6308
-24.7123
-27.4227
-36.4866
-77.7159
-20.9455
-20.9499
-20.9581
-20.9688
-20.9798
-20.9874
-20.9862
-20.9674
-20.9168
-20.8091
-20.5889
-20.0847
-18.5303
-11.6606
25.3103
-19.9763
-19.967
-19.9469
-19.9126
-19.8581
-19.774
-19.6446
-19.4444
-19.1289
-18.6165
-17.7459
-16.177
-13.1935
-7.72213
-3.91524
-19.0136
-18.9917
-18.9456
-18.8703
-18.7571
-18.5919
-18.3522
-18.0014
-17.4777
-16.6733
-15.3919
-13.2637
-9.56168
-2.61254
13.4648
-18.0662
-18.0333
-17.9647
-17.8544
-17.6921
-17.4614
-17.1369
-16.6782
-16.0211
-15.0608
-13.6265
-11.45
-8.18637
-3.83636
-1.97146
-17.1416
-17.0997
-17.0128
-16.8746
-16.6745
-16.3961
-16.0146
-15.4928
-14.7749
-13.7771
-12.376
-10.3931
-7.56649
-3.33316
4.92741
-16.2463
-16.1973
-16.0965
-15.9378
-15.7114
-15.4024
-14.9898
-14.4436
-13.7229
-12.7735
-11.529
-9.92248
-7.92379
-5.62644
-3.47693
-15.3849
-15.331
-15.2205
-15.0481
-14.8055
-14.4807
-14.0576
-13.5155
-12.8298
-11.9747
-10.9332
-9.72426
-8.48861
-7.81702
-10.3886
-14.5611
-14.5039
-14.3874
-14.2072
-13.9568
-13.6274
-13.2081
-12.6871
-12.0542
-11.3054
-10.4536
-9.54456
-8.66176
-7.75539
-5.04277
-13.777
-13.7181
-13.5986
-13.4151
-13.163
-12.8364
-12.4291
-11.9366
-11.3591
-10.7076
-10.0138
-9.34662
-8.85126
-8.94811
-11.8564
-13.0339
-12.9744
-12.8542
-12.6708
-12.421
-12.1014
-11.7093
-11.245
-10.7154
-10.1392
-9.55538
-9.02939
-8.6295
-8.18842
-5.55544
-12.3322
-12.273
-12.1536
-11.9725
-11.7275
-11.4167
-11.0396
-10.5989
-10.104
-9.57603
-9.05686
-8.62458
-8.43635
-8.95086
-12.5599
-11.6715
-11.6133
-11.496
-11.3187
-11.0798
-10.7782
-10.4141
-9.99049
-9.51555
-9.0068
-8.49802
-8.0503
-7.7552
-7.56425
-5.43652
-11.0514
-10.9945
-10.8802
-10.7076
-10.4755
-10.183
-9.82997
-9.41773
-8.95059
-8.43762
-7.89679
-7.37004
-7.00174
-7.52258
-13.4694
-10.4708
-10.4156
-10.3049
-10.1378
-9.91326
-9.63
-9.28693
-8.8831
-8.4175
-7.88779
-7.28579
-6.57977
-5.63082
-3.71286
3.58687
-9.92843
-9.87536
-9.76881
-9.60801
-9.39176
-9.11851
-8.78611
-8.3914
-7.92893
-7.38819
-6.74703
-5.9582
-4.93286
-3.64043
-3.50607
-9.42296
-9.37223
-9.2704
-9.11668
-8.90987
-8.64811
-8.32859
-7.94675
-7.49474
-6.95833
-6.31085
-5.5009
-4.42037
-2.76374
0.960558
-8.95274
-8.90461
-8.80802
-8.66225
-8.46614
-8.21783
-7.91436
-7.55085
-7.11919
-6.60561
-5.98752
-5.23149
-4.30798
-3.32289
-3.45249
-8.51595
-8.47065
-8.37979
-8.24279
-8.05868
-7.82588
-7.54182
-7.20231
-6.80053
-6.32547
-5.76
-5.07841
-4.23834
-3.10792
-0.8206
-8.11064
-8.06835
-7.98361
-7.85606
-7.68505
-7.46954
-7.20779
-6.89702
-6.53276
-6.10813
-5.61312
-5.0354
-4.37034
-3.69631
-3.73502
-7.73469
-7.69553
-7.61717
-7.49951
-7.34233
-7.14531
-6.90782
-6.62889
-6.30694
-5.93967
-5.52369
-5.05305
-4.50859
-3.78973
-2.27769
-7.38594
-7.34995
-7.27804
-7.1704
-7.0273
-6.84918
-6.63665
-6.39064
-6.11261
-5.80503
-5.47224
-5.12198
-4.76794
-4.43395
-4.16876
-7.0622
-7.02931
-6.96373
-6.86592
-6.73661
-6.57696
-6.38873
-6.17463
-5.93881
-5.68792
-5.43292
-5.19354
-5.01337
-5.03039
-5.87556
-6.76131
-6.73138
-6.67182
-6.58332
-6.46699
-6.32459
-6.1588
-5.9737
-5.77549
-5.57368
-5.38276
-5.224
-5.12187
-5.05169
-4.50698
-6.48122
-6.45403
-6.40003
-6.32005
-6.21548
-6.08847
-5.9423
-5.78188
-5.61467
-5.45187
-5.31029
-5.21513
-5.2082
-5.40251
-6.42226
-6.22002
-6.1953
-6.14628
-6.07387
-5.97956
-5.86567
-5.73568
-5.5948
-5.4508
-5.31535
-5.20559
-5.14499
-5.15478
-5.18009
-4.55596
-5.97599
-5.95345
-5.90879
-5.8429
-5.75724
-5.65406
-5.53665
-5.40989
-5.28101
-5.16099
-5.06677
-5.02598
-5.0906
-5.40866
-6.74577
-5.74763
-5.72697
-5.68605
-5.62566
-5.54711
-5.45234
-5.34412
-5.22645
-5.10509
-4.98871
-4.89085
-4.83378
-4.85042
-4.92952
-4.39318
-5.53361
-5.51458
-5.47683
-5.42105
-5.34826
-5.25996
-5.15817
-5.04557
-4.92573
-4.80357
-4.68662
-4.59039
-4.56688
-4.87776
-7.1389
-5.33282
-5.31519
-5.28016
-5.22824
-5.16019
-5.07696
-4.97973
-4.86972
-4.748
-4.61484
-4.46799
-4.29652
-4.05114
-3.47162
-0.963305
-5.14429
-5.12788
-5.09522
-5.04666
-4.98266
-4.9037
-4.81016
-4.70202
-4.57822
-4.43561
-4.26648
-4.05399
-3.76746
-3.40489
-3.53718
-4.96717
-4.95186
-4.92134
-4.87582
-4.81552
-4.74057
-4.65076
-4.54519
-4.42153
-4.27481
-4.0951
-3.86288
-3.53658
-2.99448
-1.62435
-4.8007
-4.7864
-4.75788
-4.71524
-4.65857
-4.58776
-4.50232
-4.40093
-4.28085
-4.13692
-3.96019
-3.73712
-3.45558
-3.15907
-3.33842
-4.64416
-4.63083
-4.60423
-4.56442
-4.51144
-4.44513
-4.36495
-4.26966
-4.15676
-4.02182
-3.85746
-3.65199
-3.38498
-2.9932
-2.08279
-4.49689
-4.48449
-4.45975
-4.42276
-4.37358
-4.31214
-4.2381
-4.15062
-4.04798
-3.92715
-3.78329
-3.6096
-3.40104
-3.18745
-3.28897
-4.35823
-4.34673
-4.3238
-4.28957
-4.24423
-4.1879
-4.1206
-4.04212
-3.95183
-3.84849
-3.72985
-3.59143
-3.42061
-3.16286
-2.51306
-4.22758
-4.21691
-4.19569
-4.16412
-4.12252
-4.07129
-4.01087
-3.94182
-3.86475
-3.78048
-3.69017
-3.59575
-3.50056
-3.41051
-3.33829
-4.10434
-4.09444
-4.07477
-4.04565
-4.00752
-3.96106
-3.90716
-3.8471
-3.78269
-3.71666
-3.65334
-3.60063
-3.57696
-3.64575
-4.11325
-3.98799
-3.97874
-3.96043
-3.93343
-3.89832
-3.85599
-3.80773
-3.75541
-3.70177
-3.65096
-3.60916
-3.58534
-3.58916
-3.6041
-3.36768
-3.87806
-3.86936
-3.85214
-3.82684
-3.79414
-3.75506
-3.71114
-3.66463
-3.61891
-3.57901
-3.55251
-3.55088
-3.59365
-3.73697
-4.30293
-3.77419
-3.76589
-3.74948
-3.72541
-3.69439
-3.6575
-3.61635
-3.57332
-3.532
-3.49776
-3.4786
-3.48558
-3.52834
-3.57632
-3.27705
-3.6761
-3.66805
-3.65215
-3.62881
-3.59872
-3.5629
-3.52287
-3.48085
-3.44019
-3.40603
-3.38656
-3.39545
-3.45941
-3.6568
-4.3973
-3.5836
-3.57567
-3.55999
-3.53691
-3.50704
-3.47125
-3.43077
-3.38743
-3.34386
-3.30413
-3.27482
-3.26708
-3.29782
-3.3601
-3.08707
-3.49662
-3.48868
-3.47296
-3.44974
-3.41949
-3.38284
-3.34069
-3.29418
-3.24488
-3.19501
-3.1481
-3.11202
-3.11434
-3.29623
-4.53177
-3.41515
-3.40712
-3.39115
-3.36747
-3.33638
-3.29828
-3.25362
-3.20287
-3.14632
-3.08383
-3.01388
-2.93028
-2.80617
-2.50063
-1.14942
-3.33928
-3.33106
-3.31471
-3.29034
-3.25814
-3.21827
-3.17081
-3.11559
-3.05188
-2.97783
-2.88915
-2.77668
-2.62401
-2.43118
-2.51362
-3.26911
-3.26067
-3.24383
-3.21867
-3.18525
-3.14355
-3.09339
-3.0342
-2.96464
-2.88201
-2.78095
-2.65101
-2.46974
-2.17056
-1.41639
-3.20481
-3.19612
-3.17875
-3.15274
-3.1181
-3.07471
-3.02226
-2.96001
-2.88649
-2.79898
-2.69282
-2.561
-2.39734
-2.22589
-2.31394
-3.14656
-3.13759
-3.11967
-3.09282
-3.05702
-3.01217
-2.95794
-2.89367
-2.81807
-2.72891
-2.62252
-2.49311
-2.33038
-2.10098
-1.59285
-3.09454
-3.08529
-3.0668
-3.03912
-3.00225
-2.95614
-2.9006
-2.83519
-2.75907
-2.67081
-2.56821
-2.44836
-2.30971
-2.16964
-2.19852
-3.04896
-3.0394
-3.02033
-2.9918
-2.9539
-2.90667
-2.85013
-2.78416
-2.7085
-2.62268
-2.5259
-2.41666
-2.29004
-2.12094
-1.75795
-3.01002
-3.00013
-2.98042
-2.951
-2.91202
-2.86368
-2.80621
-2.73987
-2.66501
-2.58215
-2.49224
-2.39704
-2.29988
-2.20688
-2.13146
-2.97794
-2.96769
-2.94727
-2.91685
-2.87666
-2.82704
-2.76845
-2.7015
-2.62707
-2.54654
-2.46226
-2.37879
-2.30683
-2.2806
-2.45252
-2.953
-2.94232
-2.92108
-2.88947
-2.84784
-2.79664
-2.73651
-2.66833
-2.59338
-2.51353
-2.43172
-2.35256
-2.28204
-2.21669
-2.04753
-2.93547
-2.9243
-2.90208
-2.86908
-2.82567
-2.77244
-2.71016
-2.63988
-2.56309
-2.48188
-2.39936
-2.32035
-2.25365
-2.22485
-2.37039
-2.9257
-2.91395
-2.89059
-2.8559
-2.81034
-2.75454
-2.68936
-2.61596
-2.53587
-2.45115
-2.36456
-2.27958
-2.19896
-2.11192
-1.89793
-2.9241
-2.91167
-2.88696
-2.85028
-2.80212
-2.74315
-2.67428
-2.59669
-2.51187
-2.42173
-2.32865
-2.2358
-2.14874
-2.08713
-2.17313
-2.93114
-2.91793
-2.89166
-2.85265
-2.80141
-2.73864
-2.66526
-2.58243
-2.49158
-2.39435
-2.29259
-2.18801
-2.08084
-1.95983
-1.72539
-2.94736
-2.93325
-2.90519
-2.86351
-2.80872
-2.74151
-2.66281
-2.57376
-2.47571
-2.37014
-2.25849
-2.14203
-2.02255
-1.91129
-1.89739
-2.97338
-2.95827
-2.9282
-2.88349
-2.82465
-2.75236
-2.66755
-2.57134
-2.46507
-2.35014
-2.22775
-2.09814
-1.95855
-1.79512
-1.53951
-3.00991
-2.99368
-2.96137
-2.91329
-2.84992
-2.77192
-2.68021
-2.57592
-2.46045
-2.33533
-2.20201
-2.06119
-1.91112
-1.74295
-1.52425
-3.05771
-3.04026
-3.0055
-2.95372
-2.88534
-2.80101
-2.7016
-2.58828
-2.46252
-2.32621
-2.1815
-2.03067
-1.87625
-1.72588
-1.63584
-3.11762
-3.09887
-3.06147
-3.00567
-2.93185
-2.84058
-2.73267
-2.60926
-2.47194
-2.32293
-2.16524
-2.00266
-1.83858
-1.66688
-1.40609
-3.19057
-3.17042
-3.13021
-3.07013
-2.99048
-2.89171
-2.77451
-2.6399
-2.48948
-2.32569
-2.15238
-1.97569
-1.8062
-1.66974
-1.6862
-3.27751
-3.25591
-3.21277
-3.14819
-3.06239
-2.95564
-2.82843
-2.68154
-2.5163
-2.33505
-2.14187
-1.94371
-1.75087
-1.56642
-1.2867
-3.37946
-3.35637
-3.31021
-3.24101
-3.14884
-3.03378
-2.89603
-2.73592
-2.55426
-2.35271
-2.13481
-1.90806
-1.68973
-1.52923
-1.62122
-3.49745
-3.47285
-3.42364
-3.34978
-3.25118
-3.1277
-2.97914
-2.80528
-2.60602
-2.38172
-2.13389
-1.86657
-1.58843
-1.3167
-1.09128
-3.63252
-3.60643
-3.5542
-3.47573
-3.3708
-3.23904
-3.07983
-2.89229
-2.67518
-2.42706
-2.14652
-1.83259
-1.48267
-1.072
-0.404759
-3.78571
-3.75816
-3.70299
-3.62006
-3.50906
-3.36943
-3.2002
-2.99983
-2.76589
-2.49491
-2.18236
-1.8236
-1.41911
-1.00547
-0.873227
-3.95803
-3.92907
-3.87107
-3.7839
-3.66721
-3.52037
-3.34221
-3.13068
-2.88232
-2.59163
-2.25028
-1.84638
-1.3619
-0.743506
0.368553
-4.15048
-4.12014
-4.05942
-3.96822
-3.84629
-3.69307
-3.5074
-3.2871
-3.02816
-2.72355
-2.36164
-1.92511
-1.3977
-0.824361
-0.736484
-4.364
-4.3323
-4.26893
-4.17389
-4.04712
-3.8883
-3.69665
-3.47037
-3.2057
-2.89526
-2.52481
-2.06695
-1.46539
-0.568085
1.33865
-4.59953
-4.56647
-4.50044
-4.40161
-4.27019
-4.10633
-3.90996
-3.68028
-3.41503
-3.10865
-2.7487
-2.30859
-1.73847
-1.01279
-0.820019
-4.85803
-4.82354
-4.75473
-4.65196
-4.51578
-4.34696
-4.14638
-3.91491
-3.65293
-3.35924
-3.02825
-2.64051
-2.11958
-1.08741
2.71315
-5.14048
-5.10444
-5.0326
-4.92551
-4.78405
-4.60964
-4.40426
-4.17074
-3.91285
-3.63572
-3.34723
-3.06492
-2.85573
-3.08453
-6.07146
-5.44796
-5.4102
-5.33497
-5.22292
-5.07522
-4.89381
-4.6817
-4.44349
-4.18613
-3.9201
-3.66192
-3.43857
-3.2877
-3.16627
-1.97321
-5.78167
-5.74199
-5.6629
-5.54508
-5.38981
-5.1993
-4.97725
-4.72956
-4.46542
-4.19902
-3.95242
-3.76187
-3.69924
-3.99221
-5.90483
-6.14294
-6.10113
-6.01773
-5.89326
-5.72887
-5.5267
-5.29062
-5.02704
-4.74629
-4.4642
-4.20399
-3.99636
-3.86383
-3.69337
-2.30623
-6.53324
-6.48917
-6.40108
-6.26917
-6.09415
-5.87767
-5.62307
-5.33646
-5.02809
-4.71418
-4.41906
-4.17868
-4.05478
-4.23945
-5.88574
-6.95415
-6.90779
-6.81485
-6.67503
-6.48823
-6.2551
-5.97776
-5.66098
-5.31374
-4.95111
-4.59612
-4.28012
-4.03143
-3.77051
-2.46707
-7.40726
-7.35876
-7.26118
-7.1135
-6.9145
-6.66324
-6.35983
-6.00666
-5.61009
-5.18274
-4.7461
-4.33482
-4.01658
-4.02553
-5.62085
-7.89405
-7.8438
-7.7423
-7.58761
-7.37706
-7.10759
-6.77646
-6.38247
-5.92782
-5.42082
-4.87847
-4.32492
-3.77452
-3.1789
-2.40483
-8.41574
-8.36444
-8.26036
-8.10052
-7.88053
-7.59475
-7.23676
-6.80041
-6.28189
-5.68346
-5.0186
-4.31284
-3.56385
-2.4562
1.34874
-8.97305
-8.92174
-8.81715
-8.65521
-8.4297
-8.13206
-7.75147
-7.27541
-6.69146
-5.99224
-5.18714
-4.33078
-3.60225
-3.60661
-6.95689
-9.56599
-9.51605
-9.41375
-9.25405
-9.02895
-8.72697
-8.33249
-7.82532
-7.18108
-6.37455
-5.39129
-4.25994
-3.1317
-2.43347
-2.88755
-10.1936
-10.1467
-10.0502
-9.89831
-9.6816
-9.38611
-8.99178
-8.47044
-7.78339
-6.8796
-5.69827
-4.18694
-2.36252
-0.460103
0.866467
-10.8538
-10.8119
-10.7252
-10.5876
-10.389
-10.1139
-9.73927
-9.23062
-8.53621
-7.57738
-6.23443
-4.33137
-1.64752
1.91316
5.54173
-11.5431
-11.5081
-11.4354
-11.3192
-11.1494
-10.9108
-10.5798
-10.1198
-9.47267
-8.54191
-7.15955
-5.01802
-1.54144
4.23929
12.7368
-12.2566
-12.2306
-12.176
-12.0879
-11.9577
-11.772
-11.5099
-11.139
-10.6061
-9.82006
-8.61188
-6.63178
-3.03544
4.67872
25.8331
-146.509
-88.0371
-61.5472
-48.8903
-42.1118
-38.0642
-35.4352
-33.6233
-32.325
-31.3739
-30.673
-30.1627
-29.8058
-29.5791
-29.4689
-182.241
-82.3794
-54.6732
-43.9921
-38.6348
-35.4531
-33.36
-31.8939
-30.8275
-30.0364
-29.4474
-29.0153
-28.7114
-28.5175
-28.4231
46.9572
-26.6134
-35.9763
-35.397
-33.6468
-32.0859
-30.8493
-29.887
-29.1389
-28.5586
-28.1129
-27.7789
-27.5404
-27.3869
-27.3117
-7.033
-15.4362
-24.1836
-27.615
-28.5275
-28.4936
-28.148
-27.7314
-27.3338
-26.9872
-26.7009
-26.4761
-26.3106
-26.2019
-26.1481
25.9374
-4.01994
-16.0827
-21.5821
-24.0654
-25.1178
-25.4959
-25.5627
-25.4934
-25.3738
-25.2463
-25.132
-25.0412
-24.9788
-24.9472
-1.41345
-5.03048
-12.5396
-17.6438
-20.597
-22.2103
-23.0601
-23.4884
-23.6878
-23.7659
-23.7826
-23.7717
-23.752
-23.7344
-23.7243
11.4812
-3.33815
-10.6667
-15.1992
-18.059
-19.833
-20.9171
-21.5729
-21.9665
-22.2006
-22.3381
-22.4173
-22.4615
-22.4847
-22.4945
-3.06667
-6.84771
-10.7356
-13.9163
-16.2749
-17.9348
-19.0714
-19.8396
-20.356
-20.7025
-20.9341
-21.0873
-21.1857
-21.2442
-21.2714
-14.9888
-10.2831
-11.2954
-13.2043
-14.9761
-16.4001
-17.4816
-18.281
-18.8636