/*--------------------------------*- C++ -*----------------------------------*\
| =========                 |                                                 |
| \\      /  F ield         | OpenFOAM: The Open Source CFD Toolbox           |
|  \\    /   O peration     | Version:  5.x                                   |
|   \\  /    A nd           | Web:      www.OpenFOAM.org                      |
|    \\/     M anipulation  |                                                 |
\*---------------------------------------------------------------------------*/
FoamFile
{
    version     2.0;
    format      ascii;
    class       volScalarField;
    location    "2.9";
    object      gradTy;
}
// * * * * * * * * * * * * * * * * * * * * * * * * * * * * * * * * * * * * * //

dimensions      [0 -1 0 1 0 0 0];

internalField   nonuniform List<scalar> 
6300
(
32285.1
32255.2
32225.2
32195.1
32164.7
32134
32102.9
32071.5
32039.5
32007
31974
31940.5
31906.3
31871.5
31836.2
0.0520086
0.155542
0.257597
0.357089
0.452779
0.543236
0.626822
0.701709
0.76594
0.81755
0.854745
0.87614
0.881035
0.869676
0.84344
0.0872016
0.26084
0.432128
0.599312
0.760371
0.912939
1.05426
1.18123
1.29045
1.37843
1.44194
1.47835
1.48621
1.46574
1.41919
0.123162
0.368496
0.610774
0.847676
1.07647
1.29391
1.49609
1.67854
1.83621
1.96383
2.05626
2.10916
2.11979
2.08791
2.01662
0.160114
0.47921
0.794798
1.10415
1.40395
1.69012
1.95767
2.20061
2.41205
2.58443
2.71013
2.78224
2.79586
2.74952
2.6467
0.198195
0.593435
0.985065
1.37017
1.74505
2.10497
2.44387
2.7542
3.02694
3.25173
3.41757
3.51382
3.53191
3.46761
3.32378
0.237429
0.71127
1.18186
1.64641
2.10112
2.54084
2.95863
3.34541
3.68976
3.978
4.19462
4.32357
4.35034
4.26526
4.06802
0.277683
0.832353
1.38472
1.93248
2.47218
2.99865
3.5044
3.97904
4.40873
4.77588
5.05935
5.23552
5.28064
5.17507
4.91007
0.318632
0.955746
1.59217
2.22662
2.85649
3.47719
4.08129
4.65763
5.19024
5.65744
6.0314
6.27853
6.36164
6.24432
5.89933
0.359732
1.07983
1.8016
2.52534
3.24998
3.97232
4.68597
5.37997
6.03717
6.63228
7.13027
7.48559
7.64308
7.54126
7.11835
0.400197
1.20225
2.00908
2.82316
3.64578
4.47616
5.31029
6.13914
6.94619
7.70424
8.37185
8.8905
9.18385
9.1593
8.70496
0.439005
1.31989
2.2093
3.11247
4.03382
4.97625
5.9399
6.92012
7.90424
8.86666
9.76243
10.5207
11.0425
11.2071
10.8703
0.474937
1.42902
2.39576
3.38359
4.4008
5.45515
6.55296
7.69723
8.88401
10.0957
11.2905
12.3875
13.2584
13.7564
13.8285
0.506655
1.52551
2.56115
3.62534
4.73064
5.89059
7.11957
8.43187
9.83883
11.3418
12.9164
14.4804
15.847
16.7315
17.2385
0.532835
1.6052
2.69799
3.82599
5.00584
6.25701
7.60288
9.07185
10.6976
12.5164
14.5528
16.7705
18.9178
20.084
17.7327
31803.3
31773
31742.3
31711.4
31680
31648.4
31616.6
31584.4
31552.1
31519.5
31486.7
31453.7
31420.6
31387.3
31354
31320.5
31287
31253.4
31219.8
31186.1
31152.4
31118.8
31085.1
31051.4
31017.7
30984
30950.3
30916.6
30882.9
30849.2
30815.6
30781.9
30748.3
30714.7
30681.2
30647.7
30614.2
30580.8
30547.4
30514
30480.7
30447.3
30414
30380.8
30347.5
30314.3
30281.1
30248
30214.9
30181.8
30148.9
30115.9
30083
30050.2
30017.4
29984.6
29951.9
29919.2
29886.5
29853.9
29821.3
29788.7
29756.2
29723.8
29691.4
29659.1
29626.9
29594.7
29562.5
29530.5
29498.4
29466.4
29434.4
29402.5
29370.6
29338.8
29307
29275.3
29243.6
29211.9
29180.3
29148.7
29117.1
29085.5
29053.9
29022.2
28990.4
28958.6
28926.6
28894.5
0.808056
0.769472
0.726662
0.681755
0.636534
0.5922
0.549243
0.507466
0.466147
0.424319
0.381092
0.335964
0.289049
0.241165
0.193777
0.148787
0.108221
0.0738655
0.0469426
0.0278721
0.016177
0.0105386
0.00899287
0.00923153
0.00895891
0.00624748
-0.000165222
-0.0106872
-0.0248243
-0.0412856
-0.05823
-0.0736097
-0.0855504
-0.0926945
-0.094447
-0.0910807
-0.0836905
-0.0740072
-0.0641073
-0.0560654
-0.0516084
-0.0518247
-0.0569786
-0.0664637
-0.0789057
-0.0924034
-0.104865
-0.114382
-0.119561
-0.11977
-0.115233
-0.106992
-0.0967173
-0.0864226
-0.078124
-0.0734978
-0.0735949
-0.0786581
-0.0880748
-0.100478
-0.113983
-0.126514
-0.136173
-0.141565
-0.14203
-0.137748
-0.129681
-0.119398
-0.108782
-0.0996938
-0.0936271
-0.0914245
-0.0930898
-0.0977368
-0.103685
-0.108693
-0.110296
-0.106181
-0.0945586
-0.074448
-0.0458635
-0.00987142
0.0314744
0.0753055
0.118203
0.156533
0.186822
0.206154
0.212521
0.205083
1.35672
1.28891
1.21416
1.13646
1.05916
0.984469
0.913162
0.844652
0.777298
0.708969
0.637693
0.562279
0.482765
0.400613
0.318596
0.240383
0.16992
0.110709
0.065158
0.0341195
0.0167096
0.0104198
0.0114985
0.0155313
0.0181276
0.0156032
0.00555341
-0.0127777
-0.0383977
-0.0687653
-0.100265
-0.128882
-0.150946
-0.163806
-0.166301
-0.15896
-0.1439
-0.12447
-0.104681
-0.0885405
-0.0793883
-0.0793325
-0.0888887
-0.106881
-0.130638
-0.156456
-0.180259
-0.198329
-0.207968
-0.207955
-0.198741
-0.182351
-0.162025
-0.141662
-0.125165
-0.115781
-0.115552
-0.124957
-0.142815
-0.166473
-0.192266
-0.216158
-0.234463
-0.244484
-0.244969
-0.23629
-0.220347
-0.200207
-0.17955
-0.162018
-0.150558
-0.14687
-0.151042
-0.161444
-0.174903
-0.187154
-0.19348
-0.189451
-0.171617
-0.138056
-0.0886967
-0.0254192
0.0480777
0.126592
0.203894
0.27332
0.328462
0.363896
0.37586
0.362778
1.92133
1.81842
1.70596
1.59066
1.47812
1.37194
1.27314
1.18026
1.08994
0.997954
0.90035
0.794596
0.68038
0.559973
0.438041
0.320928
0.215528
0.127998
0.0625918
0.0208609
0.00135118
-0.000184798
0.00987716
0.0240292
0.034802
0.0359297
0.0233336
-0.00423332
-0.0449942
-0.0944719
-0.146307
-0.193444
-0.229449
-0.249695
-0.25217
-0.2378
-0.210251
-0.175297
-0.139844
-0.110797
-0.0939125
-0.0928415
-0.108492
-0.13884
-0.179245
-0.223251
-0.263746
-0.294259
-0.310115
-0.30923
-0.292423
-0.26322
-0.227228
-0.191179
-0.161807
-0.144726
-0.143483
-0.158932
-0.189051
-0.229245
-0.273137
-0.313701
-0.344536
-0.360994
-0.360961
-0.345153
-0.316921
-0.281625
-0.245684
-0.215466
-0.196169
-0.190872
-0.199901
-0.220627
-0.247744
-0.27403
-0.291461
-0.292488
-0.271217
-0.224307
-0.151471
-0.0555842
0.0575505
0.179717
0.301014
0.410759
0.498563
0.555511
0.575339
0.555382
2.50938
2.36169
2.20186
2.04087
1.88794
1.74878
1.62459
1.51217
1.405
1.29503
1.17474
1.0391
0.886911
0.721528
0.550548
0.384606
0.235403
0.113426
0.0259302
-0.0243993
-0.0398929
-0.0274943
0.00236201
0.0373891
0.0653605
0.0760139
0.0626666
0.0233049
-0.039044
-0.11679
-0.199123
-0.274043
-0.330653
-0.361181
-0.362305
-0.335625
-0.287276
-0.226849
-0.165793
-0.115547
-0.0856749
-0.0822815
-0.10694
-0.156326
-0.222676
-0.295111
-0.361619
-0.411307
-0.43638
-0.433446
-0.403966
-0.353877
-0.292525
-0.231093
-0.180762
-0.150877
-0.147387
-0.171795
-0.220789
-0.286704
-0.35881
-0.425265
-0.475321
-0.501261
-0.49968
-0.471917
-0.423678
-0.363979
-0.303585
-0.253198
-0.221629
-0.214249
-0.231922
-0.27061
-0.321787
-0.373661
-0.413068
-0.427635
-0.407738
-0.347892
-0.247436
-0.110585
0.0540189
0.234098
0.414769
0.579796
0.713099
0.800582
0.832108
0.80325
3.13036
2.92243
2.69943
2.47948
2.27794
2.10406
1.95909
1.83653
1.72409
1.60695
1.47126
1.30742
1.11244
0.891136
0.655794
0.424172
0.216062
0.0491934
-0.0642626
-0.119835
-0.121314
-0.0799557
-0.0126126
0.0608955
0.120843
0.150644
0.139445
0.0839291
-0.0109392
-0.132519
-0.26263
-0.381025
-0.469436
-0.515026
-0.5125
-0.464673
-0.381714
-0.279329
-0.176198
-0.0909809
-0.0393302
-0.0313488
-0.0698058
-0.149405
-0.257368
-0.375529
-0.483736
-0.563824
-0.603
-0.595914
-0.54521
-0.460777
-0.357962
-0.255047
-0.170301
-0.119043
-0.111146
-0.149277
-0.228186
-0.335271
-0.452645
-0.560469
-0.640854
-0.681181
-0.676123
-0.628186
-0.54696
-0.447353
-0.347098
-0.26385
-0.212275
-0.201569
-0.233695
-0.302625
-0.394837
-0.491256
-0.570454
-0.612417
-0.601793
-0.52996
-0.395815
-0.205554
0.0282033
0.287626
0.551054
0.794516
0.993621
1.12623
1.17583
1.13487
3.79757
3.50487
3.19261
2.89156
2.62813
2.41772
2.26133
2.14629
2.04996
1.94557
1.80831
1.62057
1.37587
1.08095
0.755673
0.429872
0.13732
-0.0919656
-0.237821
-0.293179
-0.264436
-0.169851
-0.036481
0.103913
0.219717
0.284299
0.28002
0.201202
0.0556102
-0.135982
-0.34303
-0.531208
-0.669905
-0.738183
-0.727951
-0.644336
-0.50415
-0.332908
-0.160833
-0.0181059
0.0698713
0.0864282
0.0265462
-0.101669
-0.277404
-0.47031
-0.646373
-0.775282
-0.836268
-0.821222
-0.735053
-0.594177
-0.423575
-0.252869
-0.111646
-0.0248021
-0.00865353
-0.0680715
-0.195037
-0.369053
-0.560261
-0.735214
-0.8641
-0.926481
-0.914338
-0.832418
-0.696738
-0.531683
-0.366145
-0.228915
-0.144091
-0.12723
-0.182489
-0.301133
-0.461846
-0.633662
-0.781468
-0.872936
-0.883994
-0.801761
-0.625002
-0.363153
-0.0345649
0.335394
0.716104
1.07313
1.36991
1.57142
1.64999
1.592
4.53224
4.11546
3.66969
3.24947
2.90198
2.65357
2.50404
2.42909
2.38745
2.33154
2.21803
2.01573
1.71161
1.31449
0.856293
0.387683
-0.0325359
-0.353279
-0.54171
-0.587647
-0.502387
-0.315615
-0.0704814
0.182319
0.392334
0.517095
0.527913
0.414608
0.188378
-0.11721
-0.450629
-0.752666
-0.971803
-1.07442
-1.0491
-0.905489
-0.671338
-0.387716
-0.103236
0.133579
0.281888
0.314246
0.221267
0.0144656
-0.272746
-0.589378
-0.876946
-1.08458
-1.17906
-1.14898
-1.00371
-0.770418
-0.489372
-0.208269
0.025277
0.171206
0.20262
0.110367
-0.0941692
-0.378109
-0.69132
-0.976326
-1.18315
-1.27913
-1.25306
-1.1141
-0.888844
-0.616737
-0.344456
-0.118545
0.0219348
0.0509355
-0.0400313
-0.239081
-0.512885
-0.810657
-1.07362
-1.24925
-1.30054
-1.20968
-0.976711
-0.616847
-0.156887
0.367706
0.9153
1.43853
1.88346
2.1937
2.32086
2.23856
5.37248
4.76783
4.10997
3.50267
3.03317
2.74703
2.63938
2.66392
2.74547
2.80044
2.75563
2.55749
2.18129
1.63596
0.971902
0.2758
-0.345649
-0.805133
-1.05081
-1.07106
-0.886532
-0.545437
-0.11554
0.32232
0.687699
0.913949
0.954524
0.790605
0.435401
-0.0583833
-0.603441
-1.09353
-1.44151
-1.59493
-1.54062
-1.29705
-0.909791
-0.443792
0.0229708
0.41268
0.660843
0.722521
0.579859
0.246359
-0.225756
-0.750329
-1.22266
-1.55687
-1.70123
-1.64265
-1.39916
-1.01546
-0.555289
-0.0952232
0.288332
0.532077
0.591936
0.45046
0.121003
-0.345052
-0.863027
-1.33006
-1.66183
-1.80755
-1.75439
-1.52006
-1.14845
-0.702074
-0.256022
0.11482
0.348463
0.401829
0.258043
-0.0694017
-0.529427
-1.03779
-1.49155
-1.80462
-1.92179
-1.82221
-1.51114
-1.01465
-0.372236
0.366954
1.14966
1.91676
2.59107
3.07972
3.29351
3.177
6.39374
5.49683
4.47746
3.55748
2.90033
2.58348
2.58437
2.81667
3.14179
3.41302
3.51404
3.35567
2.8945
2.1284
1.13365
0.0564088
-0.892005
-1.56489
-1.88454
-1.84935
-1.49616
-0.903153
-0.172084
0.566676
1.18339
1.57816
1.67559
1.44203
0.881959
0.0742551
-0.835438
-1.63904
-2.19142
-2.41459
-2.3047
-1.89555
-1.26167
-0.500997
0.260104
0.895575
1.30831
1.42501
1.21322
0.677825
-0.103258
-0.986552
-1.76728
-2.30259
-2.51568
-2.40262
-1.99655
-1.37065
-0.621097
0.127958
0.752676
1.15771
1.27114
1.0612
0.53284
-0.237266
-1.10812
-1.87861
-2.40848
-2.62239
-2.51661
-2.12376
-1.51573
-0.786977
-0.0593188
0.54572
0.93456
1.0366
0.820558
0.291173
-0.476386
-1.34355
-2.11207
-2.64209
-2.85512
-2.73929
-2.31251
-1.62253
-0.726878
0.303623
1.40661
2.52872
3.56622
4.36173
4.74201
4.58108
7.75795
6.40219
4.7018
3.23384
2.27743
1.96242
2.19611
2.83576
3.61572
4.27072
4.64596
4.58986
4.04682
2.95008
1.41417
-0.348505
-1.83514
-2.83332
-3.22925
-3.0856
-2.45114
-1.45971
-0.239726
0.986751
1.99867
2.67051
2.87326
2.56362
1.68508
0.353728
-1.22024
-2.54634
-3.41545
-3.71391
-3.49975
-2.81769
-1.79616
-0.558868
0.678105
1.69917
2.38201
2.60049
2.31255
1.46303
0.16638
-1.37052
-2.66534
-3.51238
-3.79981
-3.58458
-2.91057
-1.90393
-0.686243
0.530134
1.53332
2.20318
2.41593
2.13043
1.29274
0.0155537
-1.49782
-2.77368
-3.61014
-3.89763
-3.69227
-3.03736
-2.05691
-0.870339
0.313915
1.2879
1.93361
2.12935
1.83426
0.994685
-0.279943
-1.79137
-3.07603
-3.93602
-4.26201
-4.10409
-3.49286
-2.52649
-1.27564
0.135965
1.63607
3.26251
4.88983
6.24178
6.96995
6.76874
9.8347
7.80372
4.59137
2.17352
0.730941
0.551206
1.22327
2.6528
4.2696
5.53124
6.399
6.52525
5.99647
4.40413
2.02122
-1.15095
-3.48171
-4.96905
-5.35099
-5.02868
-3.92019
-2.34544
-0.316767
1.71575
3.30359
4.43833
4.80871
4.50438
3.14019
0.982516
-1.96203
-4.11176
-5.46127
-5.75148
-5.36863
-4.22878
-2.6414
-0.616356
1.40693
2.98976
4.12429
4.50515
4.22048
2.89202
0.781899
-2.10316
-4.20828
-5.52808
-5.80786
-5.42726
-4.30364
-2.74122
-0.749582
1.23922
2.79386
3.90683
4.27809
3.99475
2.6854
0.608399
-2.2296
-4.30155
-5.60241
-5.88264
-5.51533
-4.41983
-2.89498
-0.950433
0.989858
2.50273
3.58056
3.92881
3.63195
2.32461
0.257434
-2.56575
-4.65156
-5.99893
-6.36571
-6.12161
-5.18458
-3.84006
-2.0559
-0.159258
1.68324
3.99441
6.60918
9.01928
10.5355
10.3884
13.4802
10.9062
3.33666
-0.291403
-2.63416
-2.08666
-0.840368
2.20009
5.43486
7.35891
9.21977
9.40381
9.47759
6.99655
3.76471
-3.1651
-6.3429
-8.69667
-8.48699
-8.104
-6.06081
-3.88493
-0.399473
3.08495
5.26088
7.30671
7.71561
7.97122
5.73778
2.74427
-3.84851
-6.82968
-9.03263
-8.75843
-8.32779
-6.28445
-4.11708
-0.671483
2.76985
4.92574
6.95169
7.368
7.63131
5.44641
2.51315
-3.95909
-6.88225
-9.0416
-8.76705
-8.3401
-6.32877
-4.19679
-0.809023
2.57329
4.69021
6.67834
7.0827
7.33631
5.18329
2.2969
-4.06469
-6.93997
-9.06455
-8.80027
-8.38714
-6.42073
-4.33757
-1.02456
2.28112
4.34384
6.27793
6.65708
6.88457
4.74856
1.88332
-4.40206
-7.29052
-9.47395
-9.34911
-9.13697
-7.46308
-5.78679
-2.99837
-0.377109
1.05432
4.28715
8.62034
13.0807
16.4931
16.9868
20.3762
21.2026
-3.59365
-4.60725
-10.1613
-5.73084
-5.48762
1.46755
8.48757
9.27757
14.4552
12.4412
16.6377
10.6701
10.8333
-10.5822
-10.3908
-16.1157
-11.8726
-13.57
-8.39254
-7.31027
-0.480738
6.33836
7.40545
12.5323
10.8432
15.0223
9.42983
9.68894
-10.9358
-10.6683
-16.1712
-11.9907
-13.6093
-8.51879
-7.43349
-0.720527
5.98374
7.04877
12.0969
10.4511
14.5675
9.07838
9.34047
-10.9258
-10.6562
-16.06
-11.9458
-13.5345
-8.52771
-7.46076
-0.860695
5.72946
6.77194
11.7304
10.1043
14.1434
8.73716
8.98958
-10.9201
-10.6595
-15.9667
-11.9323
-13.4957
-8.5898
-7.5512
-1.08821
5.36217
6.37009
11.2143
9.60365
13.5406
8.22254
8.43414
-11.13
-10.9447
-16.2729
-12.4582
-14.2572
-9.74491
-9.33504
-3.70055
1.11738
-2.17038
2.99362
10.4462
18.6486
26.6514
31.1275
30.1912
68.3971
-44.769
-2.38292
-32.0644
-3.34345
-19.798
0.64369
20.5136
4.88029
30.0487
6.53782
38.4364
5.51804
48.9777
-49.1102
-5.91599
-37.8855
-6.70076
-28.9326
-4.82374
-19.0081
-0.543461
17.8782
3.70765
27.5764
5.52446
36.1481
4.69956
46.7103
-48.1036
-6.1934
-37.2494
-6.86804
-28.5475
-4.9812
-18.8493
-0.752542
17.3226
3.4407
26.8859
5.24136
35.3402
4.43327
45.7333
-47.4594
-6.25563
-36.7798
-6.90737
-28.2217
-5.04849
-18.6877
-0.893336
16.879
3.21942
26.2689
4.97272
34.5563
4.14727
44.7204
-46.8164
-6.35682
-36.3164
-6.99923
-27.9159
-5.18572
-18.5718
-1.1296
16.2845
2.87605
25.4498
4.56556
33.5275
3.73752
43.4656
-46.2937
-6.65647
-36.2345
-7.48055
-28.4632
-6.11703
-20.405
-3.22548
14.2854
-17.5549
-1.58439
11.2039
24.516
41.9003
69.8712
28859.2
28820.4
28781.6
28742.7
28703.8
28665
28626.1
28587.4
28548.8
28510.2
28471.8
28433.5
28395.3
28357.1
28319
0.18222
0.14073
0.0876175
0.0289175
-0.0292233
-0.0813881
-0.123431
-0.152695
-0.167974
-0.169307
-0.157706
-0.134876
-0.102985
-0.0644756
-0.0219425
0.321772
0.247206
0.152032
0.0474171
-0.0554646
-0.146986
-0.21999
-0.270093
-0.295505
-0.296595
-0.275353
-0.234886
-0.179006
-0.111925
-0.0380647
0.491215
0.374342
0.225937
0.06423
-0.0930244
-0.231062
-0.339418
-0.412151
-0.447332
-0.446193
-0.412207
-0.350297
-0.266219
-0.166152
-0.0564553
0.707531
0.533013
0.313146
0.076591
-0.1498
-0.344817
-0.494467
-0.591758
-0.635478
-0.628634
-0.576985
-0.487875
-0.369419
-0.230008
-0.0780594
0.993942
0.737031
0.417043
0.0787854
-0.23795
-0.50394
-0.701874
-0.824935
-0.874187
-0.85588
-0.779222
-0.654796
-0.493572
-0.306401
-0.103833
1.38353
1.00413
0.53921
0.0594573
-0.376846
-0.731119
-0.984154
-1.13192
-1.18045
-1.14147
-1.02923
-0.858513
-0.643673
-0.398188
-0.134706
1.92515
1.35678
0.676222
-0.00331279
-0.597773
-1.05954
-1.3717
-1.53813
-1.57423
-1.50034
-1.33769
-1.10636
-0.824416
-0.507972
-0.171509
2.69331
1.82171
0.81226
-0.151128
-0.951385
-1.53755
-1.905
-2.07467
-2.07799
-1.94794
-1.71485
-1.4048
-1.03966
-0.637773
-0.214869
3.80562
2.42466
0.902375
-0.461983
-1.51905
-2.23425
-2.63605
-2.77758
-2.7151
-2.4986
-2.16896
-1.75832
-1.29166
-0.788587
-0.265059
5.4531
3.16914
0.834784
-1.07996
-2.42847
-3.2443
-3.62737
-3.68447
-3.50624
-3.1624
-2.70405
-2.16785
-1.58007
-0.959854
-0.32184
7.94901
3.96396
0.347765
-2.26393
-3.87041
-4.687
-4.94463
-4.82667
-4.46297
-3.94069
-3.31698
-2.62897
-1.9009
-1.14892
-0.384288
11.7668
4.38859
-1.14424
-4.45303
-6.10208
-6.68857
-6.6374
-6.21459
-5.57825
-4.82041
-3.99421
-3.13014
-2.24565
-1.35062
-0.450679
17.2664
2.96604
-4.8617
-8.30217
-9.39628
-9.32772
-8.70177
-7.81599
-6.815
-5.76849
-4.70927
-3.65173
-2.60094
-1.55722
-0.518485
21.9452
-4.92955
-12.9677
-14.4982
-13.8532
-12.5242
-11.0259
-9.53258
-8.09725
-6.72927
-5.42265
-4.16656
-2.94916
-1.75885
-0.584521
0.551245
1.66121
2.79407
3.96672
5.19877
6.51426
7.94399
9.5292
11.3269
13.4172
15.9105
18.9373
22.5269
25.876
23.247
0.562289
1.6947
2.85112
4.04945
5.31074
6.66134
8.13617
9.78426
11.6785
13.9349
16.7526
20.5136
26.0704
35.7524
57.5577
0.567899
1.71151
2.87908
4.08846
5.36069
6.72216
8.20807
9.86838
11.7788
14.0627
16.9395
20.843
26.7491
37.2102
60.0288
0.568086
1.71168
2.87801
4.08385
5.34869
6.69658
8.15887
9.77884
11.6197
13.7788
16.4136
19.7816
24.2648
30.0864
34.7959
0.563119
1.69607
2.84951
4.03826
5.27903
6.59157
8.0002
9.53594
11.2395
13.1647
15.3785
17.946
20.8511
23.7348
25.4087
0.55349
1.66624
2.7965
3.95654
5.15953
6.41986
7.75327
9.1765
10.7055
12.35
14.0979
15.8758
17.4526
18.2236
16.721
0.539851
1.62426
2.72282
3.84501
5.00023
6.19741
7.44397
8.74361
10.0914
11.4636
12.7966
13.9454
14.6136
14.2912
12.5955
0.522943
1.57245
2.63273
3.71055
4.81181
5.94067
7.09784
8.27729
9.46032
10.6044
11.623
12.3489
12.4626
11.3126
7.16808
0.50352
1.51317
2.53048
3.55981
4.60422
5.6643
6.73624
7.8085
8.8563
9.83239
10.6529
11.1774
11.1893
10.4136
8.81817
0.482283
1.44859
2.41987
3.39861
4.38577
5.37971
6.37442
7.35673
8.3021
9.16842
9.88826
10.362
10.4628
10.0838
9.29079
0.459839
1.38054
2.30409
3.23156
4.16261
5.0946
6.02123
6.93064
7.8028
8.6062
9.29454
9.80567
10.0695
10.0415
9.79959
0.436684
1.31053
2.1856
3.06203
3.93881
4.81323
5.68001
6.53042
7.35126
8.12391
8.8239
9.42106
9.879
10.1477
10.1274
0.4132
1.23966
2.06617
2.89225
3.71668
4.53717
5.35016
6.15076
6.93321
7.6921
8.42469
9.13315
9.81989
10.4546
10.8835
0.389673
1.16877
1.94704
2.72363
3.49728
4.26633
5.02892
5.78372
6.53153
7.27856
8.04227
8.86032
9.79694
10.9045
11.8854
0.366318
1.09846
1.82909
2.55705
3.28108
3.99998
4.71311
5.42155
6.13042
6.85344
7.62213
8.50518
9.65528
11.4424
14.9078
0.343303
1.02921
1.71299
2.39321
3.06846
3.73765
4.40056
5.0591
5.71949
6.39664
7.12258
7.96462
9.07126
10.8149
14.3419
0.320776
0.961429
1.59938
2.23283
2.86006
3.47967
4.09108
4.69537
5.29693
5.90597
6.54241
7.24034
8.04489
8.94891
9.44461
0.298873
0.895528
1.4889
2.07677
2.65695
3.22741
3.78653
4.33355
4.8692
5.39628
5.91957
6.44202
6.94949
7.3665
7.50195
0.277729
0.831911
1.38223
1.92605
2.4606
2.98303
3.4904
3.97965
4.44741
4.88925
5.29733
5.65413
5.91691
5.97965
5.56566
0.257474
0.770976
1.2801
1.78177
2.27267
2.74913
3.20687
3.64067
4.04364
4.40569
4.7107
4.93154
5.02326
4.9239
4.62243
0.238222
0.713084
1.18314
1.64497
2.09479
2.52823
2.93996
3.32313
3.6683
3.96174
4.18255
4.29864
4.26233
4.0085
3.4404
0.220069
0.658532
1.0919
1.51652
1.92829
2.3224
2.6929
3.03197
3.3289
3.56824
3.72715
3.77158
3.65246
3.31136
2.76694
0.203078
0.607521
1.00674
1.39699
1.77406
2.13299
2.46766
2.7701
3.0295
3.2306
3.35125
3.35812
3.19675
2.75543
1.68312
0.18728
0.560137
0.927819
1.28662
1.63243
1.96044
2.26482
2.53814
2.7706
2.94884
3.05438
3.0615
2.93547
2.63771
2.19231
0.172663
0.516351
0.855064
1.18528
1.50316
1.8043
2.08355
2.33456
2.54935
2.71759
2.82587
2.85737
2.79344
2.62254
2.36525
0.159185
0.476021
0.788212
1.09253
1.38551
1.66338
1.92189
2.15615
2.36045
2.52797
2.6507
2.71952
2.72572
2.66739
2.57277
0.146774
0.438918
0.726834
1.00764
1.27836
1.53591
1.77708
1.99857
2.19708
2.36948
2.51299
2.62516
2.70282
2.73745
2.69946
0.135337
0.404754
0.670398
0.929762
1.18037
1.41983
1.64595
1.85696
2.05187
2.23107
2.39704
2.55479
2.70983
2.85796
2.96064
0.124775
0.373212
0.618327
0.857971
1.09012
1.31301
1.52531
1.72653
1.91758
2.10186
2.28682
2.4863
2.72167
3.01006
3.26685
0.114987
0.34398
0.570059
0.791387
1.00632
1.21355
1.41239
1.60317
1.78801
1.97218
2.16655
2.39291
2.6967
3.18412
4.15042
0.10588
0.316772
0.525094
0.729251
0.927866
1.11993
1.30507
1.48393
1.65893
1.83542
2.02407
2.24576
2.54425
3.02565
4.01054
0.0973772
0.291353
0.483023
0.670969
0.853968
1.03113
1.20211
1.3674
1.52882
1.69025
1.85866
2.0453
2.2648
2.51757
2.66585
0.0894159
0.267535
0.443543
0.616127
0.784128
0.946635
1.10311
1.25356
1.39872
1.54024
1.6806
1.82205
1.96226
2.08206
2.13029
0.0819501
0.245186
0.406445
0.564473
0.718109
0.866333
1.00831
1.14341
1.27116
1.39104
1.5018
1.59966
1.67392
1.69628
1.59055
0.0749465
0.22421
0.371595
0.515873
0.655854
0.790379
0.918293
1.03836
1.14907
1.24819
1.33198
1.39368
1.42165
1.39948
1.32525
0.0683806
0.204542
0.338904
0.470263
0.597395
0.719022
0.833733
0.939829
1.03504
1.11601
1.1775
1.21115
1.20421
1.13884
0.987772
0.0622317
0.186126
0.308303
0.427592
0.542764
0.652476
0.755165
0.848866
0.930902
0.997373
1.04236
1.05682
1.02735
0.937747
0.79367
0.0564792
0.168903
0.279711
0.387785
0.491932
0.590814
0.682847
0.766015
0.837587
0.893662
0.928451
0.933004
0.892272
0.77449
0.478214
0.0510988
0.152804
0.25302
0.35071
0.44476
0.533917
0.616694
0.691226
0.755043
0.804747
0.835546
0.840651
0.810713
0.735202
0.621204
0.0460611
0.137742
0.228086
0.316168
0.400993
0.481456
0.556275
0.623886
0.682311
0.728971
0.760498
0.772646
0.760815
0.722652
0.665562
0.0413308
0.123609
0.204728
0.283892
0.360259
0.432923
0.500869
0.562937
0.617759
0.663718
0.698919
0.721309
0.729217
0.723261
0.712418
0.0368677
0.110282
0.182731
0.253561
0.322104
0.387672
0.449555
0.507027
0.559374
0.605946
0.64625
0.680043
0.707262
0.727281
0.735883
0.032628
0.0976281
0.161862
0.224824
0.286021
0.344988
0.401312
0.454687
0.505011
0.55254
0.598117
0.643356
0.690326
0.739246
0.782056
0.0285667
0.0855081
0.141878
0.197316
0.251493
0.304147
0.355125
0.404476
0.452599
0.500503
0.550233
0.605483
0.672056
0.755473
0.839519
0.0246394
0.0737865
0.122546
0.170688
0.218029
0.264476
0.310076
0.355127
0.40035
0.447211
0.49853
0.559764
0.642109
0.771287
1.01672
0.0208042
0.062336
0.103646
0.144619
0.185193
0.225399
0.265416
0.305668
0.346975
0.390837
0.439955
0.499403
0.579659
0.706394
0.95939
0.017023
0.051041
0.0849837
0.118832
0.152618
0.18646
0.220602
0.255485
0.291839
0.330824
0.374222
0.424611
0.484955
0.553848
0.593163
0.0132619
0.0398002
0.0663898
0.0930918
0.120011
0.147319
0.175282
0.20429
0.234886
0.267759
0.303647
0.342923
0.384336
0.421866
0.442083
0.00949133
0.0285256
0.0477208
0.0672051
0.0871393
0.107731
0.129244
0.152002
0.176361
0.202614
0.230734
0.259768
0.286433
0.301927
0.283052
0.00568555
0.0171411
0.0288539
0.04101
0.0538166
0.0675084
0.0823482
0.0986106
0.116532
0.136183
0.157201
0.178271
0.196305
0.205874
0.203598
0.00182179
0.00557955
0.00968203
0.0143672
0.0198842
0.0264955
0.0344723
0.0440763
0.0555109
0.0688135
0.0836431
0.0988968
0.11207
0.118063
0.104894
-0.00212065
-0.00621971
-0.00989163
-0.0128494
-0.014803
-0.0154596
-0.0145262
-0.0117208
-0.00679778
0.00039438
0.00980259
0.0209801
0.0328342
0.0435726
0.0526441
-0.00616127
-0.018314
-0.0299585
-0.0407595
-0.0503861
-0.0585127
-0.0648178
-0.0689804
-0.0706731
-0.0695536
-0.0652557
-0.0573946
-0.0456144
-0.0297485
-0.010276
-0.0103192
-0.0307596
-0.0506085
-0.0694813
-0.087006
-0.102825
-0.11659
-0.127947
-0.136493
-0.141699
-0.142778
-0.13848
-0.126889
-0.105564
-0.0739399
-0.0146143
-0.0436143
-0.0719338
-0.0991357
-0.124806
-0.148558
-0.170029
-0.188859
-0.204622
-0.216702
-0.224024
-0.224618
-0.214912
-0.18852
-0.131844
-0.0190675
-0.05694
-0.0940328
-0.12985
-0.163933
-0.195868
-0.225296
-0.251891
-0.275303
-0.294999
-0.309933
-0.317899
-0.314511
-0.292497
-0.247014
-0.0237024
-0.0708058
-0.117015
-0.161766
-0.204547
-0.244915
-0.282524
-0.317128
-0.348555
-0.376593
-0.400669
-0.419054
-0.427034
-0.412758
-0.346019
-0.028546
-0.0852911
-0.141007
-0.195048
-0.246831
-0.295873
-0.341833
-0.384564
-0.424152
-0.46093
-0.495349
-0.527422
-0.555001
-0.569437
-0.551605
-0.03363
-0.10049
-0.166161
-0.229894
-0.291014
-0.348965
-0.40338
-0.454175
-0.501691
-0.546897
-0.591646
-0.638898
-0.692082
-0.748511
-0.755435
-0.0389916
-0.116512
-0.192657
-0.266552
-0.337394
-0.404509
-0.467434
-0.526055
-0.580828
-0.633172
-0.686196
-0.746243
-0.826894
-0.961946
-1.2578
-0.044674
-0.133489
-0.220715
-0.305326
-0.386357
-0.462957
-0.534473
-0.600601
-0.661643
-0.718967
-0.775858
-0.839267
-0.923914
-1.0637
-1.34855
-0.0507258
-0.151568
-0.250587
-0.346583
-0.438395
-0.524931
-0.605247
-0.678671
-0.745033
-0.805054
-0.860984
-0.91753
-0.98263
-1.06469
-1.14611
-0.0572004
-0.170912
-0.282555
-0.390744
-0.494091
-0.591219
-0.680802
-0.76164
-0.83282
-0.893974
-0.945673
-0.989842
-1.02955
-1.0661
-1.08933
-0.064153
-0.191692
-0.316921
-0.438265
-0.554103
-0.662744
-0.762423
-0.851311
-0.927564
-0.989451
-1.03558
-1.06524
-1.07866
-1.07676
-1.05894
-0.0716377
-0.214075
-0.353981
-0.489608
-0.619109
-0.740489
-0.851535
-0.94975
-1.03228
-1.09586
-1.13692
-1.1519
-1.13841
-1.09845
-1.04643
-0.0797039
-0.238215
-0.394012
-0.545202
-0.689753
-0.825405
-0.949552
-1.05908
-1.15014
-1.21791
-1.25637
-1.25832
-1.21653
-1.12852
-1.01067
-0.0883926
-0.264238
-0.43724
-0.605404
-0.766573
-0.918307
-1.05772
-1.18122
-1.28417
-1.36031
-1.40117
-1.3951
-1.32673
-1.17931
-0.963798
-0.097733
-0.292236
-0.483826
-0.670463
-0.849942
-1.01976
-1.17693
-1.31764
-1.43679
-1.52722
-1.57854
-1.57516
-1.49182
-1.27738
-0.772891
-0.107742
-0.322257
-0.533848
-0.74049
-0.940015
-1.13
-1.30757
-1.46903
-1.60937
-1.72129
-1.79389
-1.81073
-1.74793
-1.57688
-1.3051
-0.118422
-0.354308
-0.587307
-0.815456
-1.03671
-1.24886
-1.44938
-1.63509
-1.80166
-1.94265
-2.04796
-2.10161
-2.07922
-1.94633
-1.64895
-0.129768
-0.388363
-0.644132
-0.895208
-1.13973
-1.37581
-1.60146
-1.81443
-2.01172
-2.18879
-2.3379
-2.44528
-2.48725
-2.42999
-2.26427
-0.141769
-0.424377
-0.704216
-0.979511
-1.2486
-1.50998
-1.76236
-2.00466
-2.23582
-2.45435
-2.65682
-2.83439
-2.96417
-2.98898
-2.76063
-0.154415
-0.462315
-0.767455
-1.06812
-1.36282
-1.6504
-1.93027
-2.20261
-2.4687
-2.73104
-2.99304
-3.25667
-3.51398
-3.72376
-3.78397
-0.167708
-0.502167
-0.833798
-1.16088
-1.48198
-1.79617
-2.10339
-2.40491
-2.70417
-3.00796
-3.32812
-3.68333
-4.09681
-4.56242
-4.80947
-0.181665
-0.543982
-0.9033
-1.25779
-1.60593
-1.94679
-2.28046
-2.60876
-2.93649
-3.27351
-3.63886
-4.06952
-4.64343
-5.55284
-7.3912
-0.196327
-0.587878
-0.976153
-1.3591
-1.73494
-2.10241
-2.46126
-2.81302
-3.16235
-3.5194
-3.90424
-4.35623
-4.95706
-5.89816
-7.71162
-0.211754
-0.634047
-1.05271
-1.46535
-1.86975
-2.264
-2.64698
-3.01896
-3.38284
-3.74597
-4.12298
-4.53958
-5.0344
-5.63767
-6.1985
-0.228024
-0.68274
-1.13343
-1.57733
-2.0116
-2.43343
-2.84032
-3.23052
-3.60386
-3.96291
-4.31423
-4.66862
-5.03642
-5.40666
-5.69602
-0.245218
-0.734226
-1.21887
-1.69599
-2.16208
-2.61324
-3.04525
-3.45377
-3.83479
-4.18522
-4.50335
-4.78835
-5.03675
-5.23182
-5.31781
-0.263404
-0.788741
-1.30953
-1.82231
-2.32292
-2.80635
-3.26649
-3.69612
-4.08697
-4.42995
-4.71546
-4.93351
-5.07412
-5.13273
-5.14072
-0.282609
-0.84641
-1.40577
-1.95707
-2.4957
-3.01562
-3.50891
-3.96541
-4.37239
-4.71459
-4.97443
-5.13246
-5.16843
-5.06882
-4.86458
-0.302798
-0.907164
-1.50759
-2.10062
-2.68146
-3.24337
-3.77689
-4.26907
-4.70278
-5.05642
-5.3041
-5.41616
-5.35691
-5.07754
-4.57987
-0.323842
-0.970651
-1.61455
-2.25263
-2.88037
-3.49084
-4.07357
-4.61332
-5.08879
-5.47182
-5.72796
-5.81883
-5.6982
-5.23777
-3.68733
-0.345493
-1.03616
-1.72556
-2.4118
-3.09127
-3.75756
-4.40009
-5.0022
-5.53899
-5.97534
-6.26659
-6.36834
-6.27537
-6.15479
-6.83925
-0.367366
-1.10254
-1.83874
-2.57568
-3.31132
-4.04079
-4.75466
-5.43644
-6.05892
-6.57963
-6.93681
-7.05303
-6.87156
-6.51248
-6.87036
-0.388934
-1.1682
-1.95143
-2.74045
-3.53564
-4.33484
-5.13152
-5.91184
-6.64953
-7.29748
-7.77433
-7.94437
-7.59086
-6.37209
-3.59706
-0.40953
-1.2311
-2.06008
-2.90092
-3.75717
-4.63061
-5.51974
-6.41685
-7.30243
-8.13416
-8.82491
-9.19921
-8.91076
-7.31231
-3.39247
-0.428381
-1.28886
-2.16049
-3.0507
-3.96676
-4.91549
-5.9024
-6.92985
-7.99273
-9.06873
-10.0953
-10.9143
-11.1402
-9.86447
-5.17748
-0.444651
-1.33887
-2.248
-3.18251
-4.15365
-5.17383
-6.2569
-7.41822
-8.6739
-10.0376
-11.5097
-13.0412
-14.4124
-14.7855
-10.8986
-0.457503
-1.37852
-2.31789
-3.28887
-4.30648
-5.38849
-6.55705
-7.84103
-9.28003
-10.9313
-12.8829
-15.2794
-18.3778
-22.6651
-29.0575
-12.0336
-27.3168
-25.8077
-22.0427
-18.5481
-15.6189
-13.1655
-11.0654
-9.221
-7.56154
-6.03611
-4.60726
-3.24639
-1.93067
-0.640755
-117.424
-61.2547
-39.5521
-28.8316
-22.4398
-18.0934
-14.8529
-12.27
-10.105
-8.218
-6.52144
-4.95684
-3.48267
-2.06744
-0.685551
-130.522
-71.2571
-45.6692
-32.614
-24.911
-19.7998
-16.0836
-13.1845
-10.7959
-8.7422
-6.9151
-5.24361
-3.678
-2.18107
-0.722851
-71.6703
-57.8716
-43.0824
-32.6795
-25.5823
-20.5374
-16.747
-13.7442
-11.2543
-9.10899
-7.2007
-5.45683
-3.82562
-2.2678
-0.751459
-50.5769
-45.1733
-37.4489
-30.4491
-24.8284
-20.404
-16.8632
-13.9479
-11.4733
-9.31118
-7.37211
-5.59182
-3.92227
-2.32573
-0.770744
-32.1155
-34.0862
-31.3122
-27.2607
-23.2439
-19.6568
-16.5451
-13.8456
-11.4752
-9.35845
-7.43323
-5.64988
-3.96821
-2.35479
-0.780654
-23.6949
-26.2937
-26.0624
-24.0483
-21.3609
-18.5794
-15.9406
-13.5148
-11.3011
-9.27266
-7.39582
-5.63733
-3.96674
-2.35656
-0.781655
-13.1835
-20.4666
-22.0507
-21.3035
-19.5433
-17.4028
-15.1883
-13.0366
-10.9982
-9.08159
-7.2762
-5.56372
-3.92331
-2.33383
-0.774604
-15.9249
-18.5972
-19.6578
-19.2622
-17.9898
-16.2775
-14.3923
-12.4797
-10.6108
-8.81327
-7.09205
-5.44005
-3.84449
-2.29009