/*--------------------------------*- C++ -*----------------------------------*\
| =========                 |                                                 |
| \\      /  F ield         | OpenFOAM: The Open Source CFD Toolbox           |
|  \\    /   O peration     | Version:  5.x                                   |
|   \\  /    A nd           | Web:      www.OpenFOAM.org                      |
|    \\/     M anipulation  |                                                 |
\*---------------------------------------------------------------------------*/
FoamFile
{
    version     2.0;
    format      ascii;
    class       volScalarField;
    location    "11.3";
    object      gradTx;
}
// * * * * * * * * * * * * * * * * * * * * * * * * * * * * * * * * * * * * * //

dimensions      [0 -1 0 1 0 0 0];

internalField   nonuniform List<scalar> 
3200
(
45.2118
3.71169
1.64865
1.54011
0.81493
0.771344
0.466723
0.447267
0.293827
0.282721
0.170835
0.166692
0.180696
0.180846
0.173154
0.172312
0.15953
0.158412
0.144287
0.143104
0.128816
0.127646
0.113841
0.112746
0.100204
0.0993164
0.0901398
0.0901333
0.0950608
0.164723
0.0824825
0.0552431
0.053415
0.0416677
0.0408406
0.0332437
0.032685
0.0269689
0.0265393
0.0219817
0.0216353
0.0178971
0.0176095
0.0144625
0.0142154
0.0114482
0.0112212
0.00855969
0.00832106
0.00519979
0.00506905
0.00506797
0.00502036
0.0039557
0.00384267
0.00219269
0.00202729
-0.000278624
-0.000515982
-0.003873
-0.00423532
-0.00950104
-0.0101061
-0.0191786
-0.0203267
-0.0381865
-0.0408595
-0.0840595
-0.0929845
-0.238845
-0.617591
-0.436431
-0.681951
-0.713326
-1.26875
-1.24312
-0.0558189
-0.00753257
-0.00152611
-52.9454
47.8962
3.10507
1.57722
1.35444
0.774039
0.680989
0.436314
0.394714
0.271787
0.248194
0.160332
0.151487
0.160987
0.161195
0.155215
0.153441
0.143358
0.140994
0.129815
0.127308
0.115994
0.113514
0.102584
0.100265
0.090358
0.0884942
0.081421
0.0815711
0.0883528
0.137343
0.0765842
0.051604
0.0475331
0.0380016
0.0362279
0.0301716
0.0289832
0.0244433
0.0235314
0.0199152
0.0191798
0.0162145
0.0156043
0.0131077
0.0125832
0.0103868
0.00990489
0.00779086
0.00728719
0.00485118
0.00457339
0.00452787
0.00442387
0.00358346
0.00334392
0.00203544
0.00168424
-0.000148097
-0.000652641
-0.00332391
-0.00409493
-0.00829259
-0.0095828
-0.0168405
-0.0192991
-0.0337016
-0.0394918
-0.0750803
-0.0950068
-0.227189
-0.517964
-0.415051
-0.602345
-0.666942
-1.08549
-1.03182
-0.121896
-0.0209065
-0.00438835
-54.7416
50.5639
2.57631
1.45359
1.18308
0.713655
0.596699
0.397783
0.345414
0.245773
0.216238
0.146669
0.135548
0.141649
0.141791
0.137109
0.134903
0.126879
0.123928
0.114997
0.111865
0.102818
0.0997197
0.0909824
0.088087
0.0801906
0.0778802
0.0724133
0.0727435
0.0799565
0.114353
0.0692547
0.0471286
0.0418695
0.0340252
0.0317865
0.0269047
0.0254154
0.0217726
0.0206315
0.0177333
0.0168136
0.0144377
0.0136745
0.0116739
0.0110179
0.00925692
0.00865385
0.0069576
0.00633061
0.00441623
0.00406842
0.0039901
0.00385683
0.00318717
0.00288791
0.00183989
0.00140043
-7.06902e-05
-0.00070264
-0.00285083
-0.00381747
-0.00720045
-0.00882077
-0.0146942
-0.0177938
-0.0295611
-0.0369322
-0.0667277
-0.0925389
-0.209189
-0.434085
-0.382063
-0.527647
-0.6064
-0.921124
-0.854776
-0.155616
-0.0309016
-0.00673419
-56.5376
53.2109
2.11311
1.29586
1.01968
0.639172
0.515687
0.353389
0.298005
0.216955
0.185883
0.130667
0.118921
0.122549
0.12258
0.118903
0.116598
0.110196
0.107102
0.0999459
0.0966582
0.0894038
0.086151
0.0791472
0.0761093
0.0697997
0.0673925
0.0631737
0.0636406
0.0704727
0.0945419
0.0610062
0.0419785
0.0363093
0.0298245
0.0274508
0.0235021
0.0219337
0.0190018
0.017802
0.0154723
0.0145055
0.0125963
0.0117942
0.0101864
0.00949677
0.00808066
0.00744653
0.00608155
0.00542551
0.0039186
0.00355267
0.00345451
0.00331122
0.00277606
0.00246184
0.00161999
0.00115787
-2.68581e-05
-0.000691997
-0.00242501
-0.00344337
-0.00617882
-0.00788861
-0.012659
-0.0159418
-0.0255965
-0.0334756
-0.0585344
-0.0864375
-0.18686
-0.361282
-0.34117
-0.455623
-0.536419
-0.771998
-0.703043
-0.166358
-0.0368748
-0.00833437
-58.3335
55.8365
1.70403
1.1165
0.86045
0.554408
0.436227
0.304719
0.251623
0.186139
0.156494
0.112927
0.101678
0.103594
0.103518
0.100643
0.0984569
0.0933806
0.0904373
0.0847405
0.0816102
0.0758298
0.0727322
0.0671533
0.0642625
0.0592528
0.0569772
0.0537466
0.0542831
0.0602995
0.0770353
0.0521774
0.0362939
0.0307818
0.0254593
0.023178
0.0200043
0.0185065
0.0161617
0.0150175
0.0131567
0.0122352
0.0107106
0.00994607
0.00866208
0.00800466
0.0068731
0.00626842
0.00517714
0.00455443
0.00337533
0.0030262
0.00292072
0.00278129
0.0023561
0.00205687
0.00138489
0.000944207
-3.81666e-06
-0.000638645
-0.00202779
-0.0030006
-0.00519822
-0.00683403
-0.0106832
-0.013835
-0.0217029
-0.0293318
-0.0502274
-0.0774354
-0.16157
-0.296261
-0.294895
-0.384945
-0.460248
-0.635054
-0.57002
-0.160812
-0.0388104
-0.00906586
-60.129
58.4419
1.33862
0.923875
0.703219
0.462129
0.357301
0.252913
0.205736
0.153888
0.127662
0.093894
0.0839092
0.0847179
0.0845673
0.0823547
0.0804312
0.0764802
0.0738832
0.0694324
0.0666681
0.0621484
0.0594128
0.0550519
0.0525004
0.0485964
0.0466001
0.0441689
0.0447063
0.0496974
0.0611924
0.0429896
0.0301945
0.0252466
0.0209724
0.0189409
0.0164394
0.0151132
0.0132735
0.0122618
0.0108035
0.00998892
0.00879456
0.00811872
0.00711271
0.0065315
0.00564446
0.00510977
0.00425397
0.00370559
0.00279885
0.00248998
0.00238829
0.00226278
0.00193109
0.0016668
0.00114053
0.000750832
6.69087e-06
-0.000555126
-0.00164723
-0.00250883
-0.0042401
-0.00569091
-0.00873539
-0.0115395
-0.0178188
-0.0246574
-0.0416679
-0.0661562
-0.134258
-0.236683
-0.244964
-0.314857
-0.380096
-0.507704
-0.450763
-0.143778
-0.0370557
-0.00890376
-61.9243
61.0297
1.00743
0.723487
0.546806
0.3644
0.278356
0.198818
0.160036
0.120613
0.0991313
0.0739097
0.0657083
0.0658803
0.0656993
0.0640551
0.0624866
0.0595255
0.0574033
0.0540569
0.0517962
0.0483957
0.0461583
0.0428781
0.0407925
0.0378637
0.0362403
0.0344723
0.0349514
0.0388351
0.0465374
0.0335854
0.0237812
0.0196844
0.0163959
0.0147226
0.0128274
0.0117404
0.0103522
0.00952388
0.00842463
0.00775783
0.00685773
0.00630456
0.00554633
0.00507057
0.00440171
0.00396394
0.00331849
0.00287109
0.00219845
0.00194546
0.00185679
0.0017525
0.00150338
0.00128721
0.000890703
0.00057163
9.9004e-06
-0.0004504
-0.00127589
-0.00198228
-0.0032932
-0.00448406
-0.00679716
-0.00910494
-0.0139124
-0.0195761
-0.0328093
-0.0531325
-0.105574
-0.18087
-0.192568
-0.244955
-0.29745
-0.387736
-0.341509
-0.118733
-0.0321581
-0.00790582
-63.7192
63.6031
0.701901
0.518808
0.390621
0.262816
0.199152
0.143093
0.114362
0.0866202
0.0707503
0.0532446
0.0471725
0.0470569
0.0468899
0.0457524
0.0445977
0.0425373
0.0409724
0.0386379
0.0369699
0.0345965
0.0329455
0.0306565
0.0291182
0.0270787
0.0258863
0.0246859
0.0250603
0.0278201
0.0327085
0.0240553
0.0171395
0.0140899
0.0117547
0.0105131
0.00918314
0.00837967
0.00740854
0.00679679
0.0060284
0.00553607
0.00490701
0.00449859
0.00396865
0.00361735
0.0031497
0.00282642
0.00237509
0.00204558
0.00158125
0.00139436
0.00132592
0.00124802
0.00107434
0.000914819
0.000637773
0.00040213
9.04886e-06
-0.00033107
-0.000909325
-0.00143155
-0.0023511
-0.00323231
-0.00485915
-0.00657044
-0.00997175
-0.0141921
-0.023667
-0.0388241
-0.0759752
-0.127601
-0.138545
-0.175049
-0.213292
-0.273229
-0.239316
-0.0882404
-0.0247677
-0.006195
-65.514
66.1661
0.414169
0.311934
0.234421
0.158667
0.119643
0.0862748
0.068648
0.0521524
0.0424348
0.0321221
0.0283984
0.0282355
0.0281192
0.0274504
0.0267451
0.0255292
0.0245722
0.0231923
0.0221718
0.0207683
0.0197582
0.0184048
0.0174639
0.0162599
0.0155327
0.0148364
0.0150737
0.0167199
0.0194212
0.0144557
0.0103432
0.00846679
0.00706969
0.00630719
0.00551779
0.00502562
0.00445046
0.00407595
0.00362112
0.00331977
0.00294746
0.00269747
0.00238381
0.00216877
0.00189192
0.00169402
0.0014268
0.00122547
0.000952958
0.00083852
0.000795422
0.000747361
0.000644735
0.000547129
0.000383183
0.000238924
6.07606e-06
-0.000202217
-0.000544999
-0.000864932
-0.00141054
-0.00195074
-0.00291776
-0.00396834
-0.00599834
-0.00859786
-0.0142975
-0.0236359
-0.0457976
-0.0759598
-0.0834997
-0.105073
-0.128266
-0.162476
-0.14181
-0.0542436
-0.0155813
-0.0039425
-67.3085
68.7228
0.136905
0.10407
0.0781514
0.0530485
0.0399086
0.0288268
0.0228888
0.0174135
0.0141431
0.0107361
0.00948194
0.0094122
0.00937069
0.00914993
0.00891283
0.00851081
0.00818894
0.00773227
0.00738897
0.00692444
0.00658462
0.0061367
0.00582023
0.00542203
0.00517778
0.00494959
0.00503078
0.00557753
0.00644066
0.00482196
0.0034575
0.0028245
0.00235934
0.00210234
0.00184055
0.00167487
0.00148435
0.00135832
0.0012077
0.0011063
0.000983009
0.000898893
0.000795024
0.000722667
0.000630975
0.000564381
0.000475878
0.000408193
0.000318337
0.000279824
0.000265121
0.000248884
0.000214927
0.000182091
0.000127805
7.92604e-05
2.11938e-06
-6.79853e-05
-0.000181587
-0.000289287
-0.000470192
-0.000652101
-0.000973028
-0.00132706
-0.00200214
-0.00287962
-0.00478251
-0.0079348
-0.0153
-0.0252232
-0.0278928
-0.0350327
-0.0428001
-0.0539179
-0.04698
-0.0182907
-0.00531397
-0.00135237
-69.1028
68.7145
0.150884
0.128426
0.107467
0.0852097
0.0726948
0.0607368
0.0533353
0.0448802
0.0387612
0.0310047
0.0281937
0.0283072
0.0282057
0.0273725
0.0264748
0.0249595
0.023773
0.0221294
0.0209361
0.0193801
0.0182848
0.0168984
0.0159529
0.0148081
0.0141316
0.013542
0.0138405
0.0155204
0.0181081
0.0137307
0.010073
0.00839354
0.00718223
0.00651586
0.00583718
0.00540403
0.00489974
0.00456143
0.00415021
0.00386885
0.00352038
0.00327834
0.00297334
0.00275601
0.00247335
0.0022606
0.00196678
0.00173089
0.00140827
0.00129548
0.00131336
0.0013152
0.0012825
0.00124394
0.00117612
0.00112196
0.00104559
0.000988905
0.000912951
0.000856108
0.000777976
0.000712462
0.000609317
0.000495227
0.00026922
-7.41557e-05
-0.000891277
-0.00242985
-0.00621594
-0.0117835
-0.0150678
-0.0220535
-0.0294884
-0.0404326
-0.0360464
-0.0140873
-0.00409748
-0.00104313
-69.8075
66.1412
0.456022
0.385217
0.322452
0.255239
0.218062
0.182028
0.160048
0.134547
0.116349
0.0928164
0.0844641
0.0849301
0.0846465
0.08212
0.0794492
0.0748653
0.0713374
0.0663701
0.0628228
0.0581219
0.0548662
0.0506774
0.0478665
0.0444057
0.0423914
0.0405904
0.0414662
0.0465248
0.0546031
0.0411632
0.03014
0.0251619
0.0215249
0.0195481
0.0175017
0.016215
0.0146926
0.0136872
0.0124454
0.0116093
0.0105569
0.00983755
0.00891652
0.00827064
0.00741725
0.00678503
0.00589803
0.00519614
0.00421641
0.00388121
0.00394073
0.00394699
0.00384774
0.00373298
0.00352783
0.00336678
0.003136
0.00296749
0.00273809
0.00256918
0.00233343
0.00213889
0.00182839
0.00149016
0.000812359
-0.000203514
-0.00264497
-0.00719964
-0.0185765
-0.0354419
-0.0450552
-0.0661426
-0.0883248
-0.121911
-0.108842
-0.0417832
-0.012015
-0.00304106
-69.4223
63.5604
0.771353
0.641687
0.537616
0.424068
0.363384
0.302757
0.266902
0.223922
0.19415
0.154021
0.140382
0.141583
0.141177
0.136873
0.1325
0.124729
0.118959
0.110554
0.104756
0.096806
0.0914849
0.0844014
0.0798063
0.0739454
0.0706427
0.0675318
0.0689247
0.0774086
0.0919588
0.0684991
0.0499652
0.0418767
0.0358012
0.0325831
0.0291359
0.0270353
0.0244648
0.0228225
0.0207245
0.0193583
0.0175801
0.0164049
0.0148487
0.0137936
0.0123523
0.0113197
0.0098219
0.00867251
0.00699879
0.00645117
0.00657024
0.00658301
0.00641361
0.00622566
0.00587778
0.00561441
0.00522392
0.00494852
0.00456082
0.00428493
0.00388724
0.00356997
0.00304859
0.00249869
0.00136903
-0.000275837
-0.00431412
-0.0116965
-0.0307176
-0.0593904
-0.0745836
-0.110188
-0.146705
-0.205256
-0.183798
-0.0679873
-0.0191008
-0.00477873
-69.0371
60.9676
1.10395
0.897133
0.753158
0.590781
0.508703
0.422496
0.37404
0.312769
0.272366
0.214166
0.195706
0.1983
0.197863
0.191629
0.185687
0.174512
0.166687
0.154634
0.146775
0.135385
0.128174
0.118026
0.111797
0.103383
0.0988864
0.0942931
0.0960996
0.10805
0.130835
0.0956381
0.0693726
0.0585109
0.0499633
0.0456273
0.0407163
0.0378745
0.0341999
0.031976
0.0289743
0.0271239
0.0245792
0.0229874
0.0207609
0.019332
0.0172711
0.015873
0.0137319
0.0121699
0.00973615
0.00899449
0.00920402
0.00922634
0.00898025
0.00872475
0.00822438
0.00786713
0.00730726
0.00693407
0.0063791
0.00600558
0.00543785
0.00500924
0.00426994
0.00353042
0.00194633
-0.000252404
-0.00584948
-0.0157278
-0.0424725
-0.083878
-0.103296
-0.154196
-0.204204
-0.291801
-0.262527
-0.0915145
-0.024804
-0.00609879
-68.6517
58.3583
1.46131
1.15007
0.969437
0.754283
0.654187
0.540724
0.481691
0.40078
0.351293
0.272721
0.250188
0.255139
0.254782
0.246374
0.239083
0.224162
0.214584
0.198546
0.188935
0.173797
0.164981
0.151494
0.143874
0.132664
0.127134
0.120799
0.122869
0.138258
0.172031
0.12242
0.088164
0.0750528
0.063957
0.0586946
0.052214
0.0487471
0.0438771
0.0411608
0.0371781
0.0349173
0.0315403
0.0295954
0.0266413
0.0248958
0.0221634
0.020456
0.0176187
0.0157022
0.0124059
0.0114998
0.0118453
0.0118804
0.0115473
0.0112337
0.0105653
0.010128
0.00938316
0.00892691
0.00819015
0.00773402
0.00698292
0.00646096
0.00549133
0.00459596
0.00254824
-9.301e-05
-0.00721356
-0.0190844
-0.0536409
-0.109245
-0.130748
-0.198241
-0.260199
-0.38302
-0.346926
-0.11087
-0.0285869
-0.00686912
-68.2662
55.7287
1.85141
1.39777
1.1871
0.913182
0.800206
0.656775
0.590217
0.487535
0.431384
0.329035
0.30357
0.31219
0.312022
0.301074
0.292785
0.273598
0.262739
0.242201
0.231317
0.211956
0.201975
0.184727
0.176096
0.161717
0.155414
0.146968
0.149105
0.16773
0.216562
0.148588
0.10611
0.0915141
0.0777174
0.0718108
0.0635912
0.059676
0.0534682
0.0503962
0.0453131
0.0427555
0.0384442
0.0362439
0.0324733
0.0304991
0.0270147
0.0250843
0.0214687
0.0192897
0.01498
0.013955
0.0144991
0.0145493
0.0141136
0.0137568
0.012897
0.0124012
0.0114476
0.010931
0.00999001
0.0094743
0.00851887
0.00793061
0.00670978
0.00570763
0.00317393
0.000245593
-0.00838759
-0.0215336
-0.0639674
-0.135976
-0.156361
-0.242506
-0.313759
-0.480596
-0.439323
-0.124074
-0.0299473
-0.00699474
-67.8804
53.0759
2.28288
1.63576
1.40728
1.06564
0.947444
0.769751
0.700189
0.572429
0.513323
0.382273
0.355589
0.369592
0.369694
0.355668
0.346922
0.322701
0.311281
0.28547
0.274037
0.24974
0.239259
0.217616
0.208548
0.190448
0.18378
0.172714
0.174683
0.195995
0.265765
0.173736
0.12294
0.107944
0.0911624
0.0850196
0.0747964
0.0706966
0.0629339
0.0597123
0.0533471
0.0506639
0.0452637
0.0429553
0.0382336
0.0361629
0.031804
0.0297801
0.0252614
0.0229625
0.0174228
0.0163476
0.0171726
0.0172377
0.0166768
0.0163002
0.0152142
0.0146928
0.0134945
0.0129521
0.0117729
0.0112322
0.0100402
0.00942561
0.00791952
0.0068806
0.00381544
0.000812434
-0.00938104
-0.0228111
-0.0731107
-0.164772
-0.179343
-0.287367
-0.363496
-0.586497
-0.542679
-0.128433
-0.0284606
-0.00643089
-67.4943
50.3984
2.76484
1.85701
1.632
1.20917
1.09706
0.878402
0.812488
0.654576
0.59814
0.431337
0.405981
0.427551
0.427931
0.41005
0.401678
0.371292
0.360399
0.328164
0.317273
0.286971
0.27699
0.250001
0.241361
0.218722
0.212322
0.197939
0.199486
0.222321
0.321441
0.197235
0.138339
0.124445
0.104182
0.0983917
0.0857567
0.0818638
0.0722182
0.0691541
0.0612341
0.0586811
0.0519597
0.0497633
0.043888
0.0419183
0.0365
0.0345758
0.0289653
0.026765
0.0196871
0.0186642
0.0198767
0.0199511
0.0192327
0.0188719
0.0175088
0.0170115
0.0155153
0.0149988
0.0135303
0.0130162
0.0115384
0.0109563
0.00911063
0.00813467
0.00445452
0.00166695
-0.010245
-0.0226138
-0.0805995
-0.196651
-0.198587
-0.333504
-0.407358
-0.70307
-0.660852
-0.120221
-0.0238563
-0.00519657
-67.1081
47.6972
3.30683
2.05094
1.86463
1.34026
1.25094
0.980944
0.928466
0.732665
0.687371
0.474742
0.454496
0.486357
0.486898
0.464052
0.457316
0.419104
0.410371
0.370004
0.361285
0.32339
0.315402
0.281653
0.274734
0.246346
0.241183
0.222527
0.223439
0.245596
0.38605
0.218122
0.151938
0.1412
0.116623
0.112038
0.0963676
0.0932614
0.0812393
0.0787904
0.0689064
0.0668651
0.0584747
0.0567185
0.0493862
0.0478117
0.0410563
0.039519
0.0325329
0.0307627
0.0217092
0.0208915
0.0226263
0.0226963
0.0217744
0.0214838
0.0197689
0.0193702
0.017497
0.0170836
0.0152496
0.0148388
0.0130009
0.0125376
0.010267
0.00949696
0.00505795
0.00288649
-0.0110906
-0.0205918
-0.0857654
-0.233094
-0.212511
-0.382083
-0.442346
-0.833159
-0.798962
-0.0942384
-0.0161437
-0.00338656
-66.7217
44.9769
3.91825
2.20209
2.11078
1.45396
1.41204
1.07478
1.05018
0.804733
0.783296
0.510453
0.500927
0.546416
0.546801
0.517411
0.514212
0.465736
0.461608
0.410579
0.406464
0.358613
0.354844
0.312232
0.308966
0.273042
0.270584
0.246332
0.246542
0.26414
0.462995
0.234939
0.163319
0.15851
0.128264
0.126127
0.106476
0.105016
0.0898777
0.0887242
0.0762652
0.0753033
0.0647246
0.063897
0.0546543
0.0539126
0.045404
0.0446803
0.035892
0.0350519
0.023402
0.0230167
0.0254425
0.0254813
0.0242909
0.0241528
0.0219765
0.021788
0.0194203
0.0192253
0.016912
0.0167186
0.0144084
0.0141913
0.0113634
0.0110061
0.00557073
0.00457833
-0.0121151
-0.0163427
-0.0876451
-0.276254
-0.218829
-0.435034
-0.464111
-0.980249
-0.963892
-0.0431905
-0.00581769
-0.00117776
-66.3352
44.9769
3.91824
2.20209
2.11078
1.45396
1.41204
1.07478
1.05018
0.804733
0.783296
0.510453
0.500927
0.546416
0.546801
0.517411
0.514212
0.465736
0.461609
0.410579
0.406464
0.358613
0.354845
0.312233
0.308966
0.273042
0.270584
0.246332
0.246542
0.264141
0.462996
0.23494
0.16332
0.158511
0.128264
0.126128
0.106476
0.105016
0.089878
0.0887244
0.0762655
0.0753035
0.0647248
0.0638972
0.0546545
0.0539127
0.0454042
0.0446804
0.0358921
0.035052
0.023402
0.0230167
0.0254426
0.0254814
0.024291
0.0241529
0.0219766
0.0217881
0.0194204
0.0192254
0.0169121
0.0167187
0.0144085
0.0141914
0.0113635
0.0110062
0.00557084
0.00457844
-0.012115
-0.0163426
-0.0876448
-0.276253
-0.218829
-0.435034
-0.46411
-0.980249
-0.963892
-0.0431905
-0.00581768
-0.00117779
-66.3352
47.6972
3.30683
2.05094
1.86463
1.34026
1.25094
0.980943
0.928466
0.732665
0.687371
0.474742
0.454496
0.486357
0.486898
0.464053
0.457316
0.419104
0.410371
0.370004
0.361285
0.32339
0.315402
0.281654
0.274734
0.246347
0.241183
0.222527
0.223439
0.245597
0.386051
0.218122
0.151938
0.141201
0.116623
0.112038
0.0963678
0.0932616
0.0812396
0.0787906
0.0689067
0.0668654
0.058475
0.0567187
0.0493864
0.0478119
0.0410565
0.0395191
0.0325331
0.0307628
0.0217093
0.0208915
0.0226264
0.0226964
0.0217745
0.0214839
0.019769
0.0193703
0.0174971
0.0170837
0.0152497
0.014839
0.013001
0.0125377
0.0102671
0.00949707
0.00505805
0.0028866
-0.0110904
-0.0205916
-0.0857652
-0.233094
-0.212511
-0.382082
-0.442345
-0.833159
-0.798962
-0.0942383
-0.0161437
-0.00338658
-66.7217
50.3984
2.76484
1.85701
1.632
1.20917
1.09706
0.878402
0.812488
0.654576
0.59814
0.431337
0.405981
0.427551
0.427931
0.41005
0.401679
0.371292
0.360399
0.328164
0.317273
0.286971
0.276991
0.250002
0.241361
0.218722
0.212322
0.197939
0.199487
0.222322
0.321442
0.197235
0.138339
0.124445
0.104182
0.098392
0.085757
0.0818641
0.0722184
0.0691544
0.0612343
0.0586813
0.0519599
0.0497634
0.0438882
0.0419184
0.0365002
0.0345759
0.0289654
0.0267651
0.0196871
0.0186643
0.0198767
0.0199512
0.0192328
0.018872
0.0175089
0.0170116
0.0155154
0.0149989
0.0135304
0.0130163
0.0115385
0.0109564
0.00911072
0.00813476
0.00445461
0.00166704
-0.0102449
-0.0226137
-0.0805993
-0.19665
-0.198587
-0.333504
-0.407358
-0.703069
-0.660852
-0.120221
-0.0238563
-0.00519655
-67.1081
53.0759
2.28287
1.63576
1.40728
1.06564
0.947443
0.769751
0.700188
0.572429
0.513323
0.382273
0.355589
0.369592
0.369694
0.355668
0.346922
0.322701
0.311281
0.28547
0.274037
0.24974
0.239259
0.217616
0.208548
0.190449
0.18378
0.172714
0.174683
0.195995
0.265766
0.173736
0.122941
0.107944
0.0911626
0.0850198
0.0747966
0.0706968
0.0629342
0.0597125
0.0533473
0.0506641
0.0452639
0.0429554
0.0382338
0.036163
0.0318042
0.0297802
0.0252615
0.0229626
0.0174229
0.0163477
0.0171727
0.0172377
0.0166769
0.0163002
0.0152143
0.0146929
0.0134946
0.0129522
0.011773
0.0112323
0.0100402
0.0094257
0.0079196
0.00688068
0.00381552
0.000812513
-0.00938096
-0.022811
-0.0731106
-0.164771
-0.179343
-0.287367
-0.363496
-0.586496
-0.542679
-0.128433
-0.0284606
-0.00643083
-67.4943
55.7287
1.85141
1.39777
1.1871
0.913182
0.800206
0.656775
0.590217
0.487535
0.431384
0.329035
0.30357
0.31219
0.312022
0.301074
0.292785
0.273598
0.262739
0.242201
0.231317
0.211956
0.201975
0.184727
0.176096
0.161718
0.155414
0.146968
0.149106
0.167731
0.216562
0.148588
0.10611
0.0915143
0.0777176
0.071811
0.0635914
0.0596761
0.0534684
0.0503964
0.0453132
0.0427556
0.0384443
0.036244
0.0324735
0.0304992
0.0270149
0.0250844
0.0214688
0.0192898
0.0149801
0.0139551
0.0144991
0.0145494
0.0141137
0.0137569
0.0128971
0.0124013
0.0114476
0.0109311
0.00999009
0.00947437
0.00851894
0.00793068
0.00670985
0.0057077
0.00317399
0.000245658
-0.00838752
-0.0215335
-0.0639673
-0.135976
-0.156361
-0.242506
-0.313759
-0.480596
-0.439323
-0.124074
-0.0299472
-0.00699466
-67.8804
58.3583
1.4613
1.15007
0.969436
0.754283
0.654187
0.540724
0.481691
0.40078
0.351293
0.272721
0.250188
0.255139
0.254782
0.246374
0.239083
0.224162
0.214584
0.198546
0.188935
0.173797
0.164981
0.151494
0.143875
0.132664
0.127134
0.120799
0.122869
0.138258
0.172031
0.12242
0.0881642
0.075053
0.0639572
0.0586948
0.0522141
0.0487473
0.0438772
0.0411609
0.0371782
0.0349175
0.0315404
0.0295956
0.0266414
0.0248959
0.0221635
0.0204561
0.0176188
0.0157022
0.0124059
0.0114998
0.0118454
0.0118805
0.0115474
0.0112337
0.0105653
0.0101281
0.00938322
0.00892697
0.00819021
0.00773408
0.00698298
0.00646101
0.00549138
0.00459602
0.00254829
-9.29598e-05
-0.00721351
-0.0190844
-0.0536409
-0.109245
-0.130748
-0.19824
-0.260199
-0.38302
-0.346926
-0.110869
-0.0285869
-0.00686902
-68.2662
60.9676
1.10395
0.897133
0.753158
0.590781
0.508703
0.422496
0.37404
0.312769
0.272366
0.214166
0.195706
0.1983
0.197863
0.19163
0.185687
0.174512
0.166687
0.154634
0.146775
0.135385
0.128174
0.118026
0.111797
0.103383
0.0988865
0.0942933
0.0960997
0.10805
0.130835
0.0956384
0.0693728
0.0585111
0.0499634
0.0456275
0.0407164
0.0378747
0.0342
0.0319761
0.0289744
0.027124
0.0245793
0.0229875
0.020761
0.0193321
0.0172712
0.015873
0.0137319
0.0121699
0.00973619
0.00899452
0.00920405
0.00922637
0.00898029
0.00872479
0.00822442
0.00786718
0.00730731
0.00693412
0.00637915
0.00600563
0.00543789
0.00500928
0.00426998
0.00353046
0.00194637
-0.000252368
-0.00584945
-0.0157278
-0.0424725
-0.0838779
-0.103295
-0.154196
-0.204204
-0.2918
-0.262527
-0.0915144
-0.0248039
-0.00609868
-68.6517
63.5604
0.771352
0.641687
0.537615
0.424067
0.363384
0.302757
0.266902
0.223922
0.19415
0.154021
0.140382
0.141583
0.141177
0.136873
0.1325
0.124729
0.118959
0.110554
0.104756
0.0968061
0.091485
0.0844015
0.0798063
0.0739455
0.0706428
0.0675319
0.0689248
0.0774087
0.091959
0.0684993
0.0499653
0.0418768
0.0358013
0.0325832
0.029136
0.0270354
0.0244649
0.0228226
0.0207245
0.0193584
0.0175802
0.0164049
0.0148488
0.0137936
0.0123524
0.0113197
0.00982194
0.00867255
0.00699882
0.00645119
0.00657026
0.00658303
0.00641364
0.00622569
0.00587781
0.00561444
0.00522395
0.00494856
0.00456086
0.00428497
0.00388727
0.00357
0.00304862
0.00249871
0.00136906
-0.000275813
-0.0043141
-0.0116965
-0.0307176
-0.0593903
-0.0745835
-0.110188
-0.146705
-0.205256
-0.183797
-0.0679872
-0.0191007
-0.00477863
-69.0371
66.1412
0.456021
0.385217
0.322452
0.255239
0.218062
0.182028
0.160048
0.134547
0.116349
0.0928164
0.0844641
0.0849301
0.0846465
0.08212
0.0794492
0.0748653
0.0713375
0.0663702
0.0628229
0.058122
0.0548662
0.0506775
0.0478666
0.0444058
0.0423915
0.0405905
0.0414663
0.0465249
0.0546032
0.0411633
0.0301401
0.025162
0.021525
0.0195481
0.0175018
0.016215
0.0146926
0.0136873
0.0124455
0.0116093
0.0105569
0.00983759
0.00891656
0.00827067
0.00741728
0.00678506
0.00589806
0.00519616
0.00421643
0.00388123
0.00394074
0.003947
0.00384776
0.003733
0.00352785
0.0033668
0.00313601
0.00296751
0.00273811
0.0025692
0.00233344
0.00213891
0.00182841
0.00149018
0.000812374
-0.000203501
-0.00264496
-0.00719963
-0.0185765
-0.0354419
-0.0450551
-0.0661425
-0.0883247
-0.121911
-0.108842
-0.0417831
-0.012015
-0.00304099
-69.4223
68.7145
0.150884
0.128426
0.107467
0.0852097
0.0726948
0.0607368
0.0533353
0.0448802
0.0387612
0.0310047
0.0281937
0.0283072
0.0282057
0.0273725
0.0264748
0.0249595
0.0237731
0.0221294
0.0209361
0.0193801
0.0182849
0.0168984
0.0159529
0.0148082
0.0141316
0.013542
0.0138405
0.0155204
0.0181082
0.0137307
0.0100731
0.00839356
0.00718225
0.00651587
0.0058372
0.00540405
0.00489976
0.00456145
0.00415022
0.00386886
0.00352039
0.00327835
0.00297335
0.00275602
0.00247336
0.0022606
0.00196679
0.00173089
0.00140827
0.00129548
0.00131336
0.0013152
0.00128251
0.00124394
0.00117613
0.00112197
0.0010456
0.000988911
0.000912956
0.000856114
0.000777981
0.000712467
0.000609322
0.000495232
0.000269225
-7.41519e-05
-0.000891274
-0.00242985
-0.00621593
-0.0117835
-0.0150677
-0.0220535
-0.0294884
-0.0404326
-0.0360464
-0.0140873
-0.00409747
-0.00104311
-69.8075
68.7223
0.136737
0.103792
0.077758
0.0524413
0.0390528
0.0275023
0.021089
0.0150022
0.0125848
0.011923
0.011573
0.0110198
0.0105817
0.00996777
0.00952179
0.00893939
0.00852133
0.00797803
0.007587
0.00707733
0.00671186
0.00623865
0.00590744
0.00549429
0.00524144
0.005005
0.00508335
0.00563143
0.00650006
0.0048649
0.00348688
0.00284766
0.00237804
0.00211864
0.00185451
0.00168741
0.00149529
0.00136823
0.00121641
0.00111422
0.000989998
0.000905254
0.000800625
0.000727747
0.000635409
0.000568353
0.000479247
0.000411105
0.00032065
0.00028191
0.00026719
0.000250926
0.000216878
0.000183954
0.000129528
8.08775e-05
3.59273e-06
-6.66146e-05
-0.000180348
-0.000288139
-0.00046916
-0.000651146
-0.000972171
-0.00132627
-0.00200143
-0.00287896
-0.00478189
-0.0079342
-0.0152993
-0.0252225
-0.0278923
-0.0350324
-0.0427999
-0.0539177
-0.0469798
-0.0182906
-0.00531395
-0.00135233
-69.1028
66.1649
0.413666
0.311099
0.233245
0.156847
0.117085
0.0823015
0.0632538
0.0448598
0.0376843
0.0357565
0.0347271
0.0330548
0.0317521
0.0298966
0.0285708
0.0268116
0.025569
0.023928
0.0227657
0.0212262
0.0201399
0.0187103
0.0177256
0.0164765
0.0157236
0.0150024
0.0152313
0.0168814
0.0196003
0.0145844
0.0104311
0.00853619
0.0071257
0.0063561
0.00555965
0.00506322
0.00448325
0.00410569
0.00364725
0.00334355
0.00296841
0.00271656
0.0024006
0.00218402
0.00190522
0.00170594
0.0014369
0.00123421
0.000959881
0.000844768
0.000801632
0.00075349
0.000650587
0.00055272
0.000388352
0.000243777
1.04946e-05
-0.000198103
-0.000541283
-0.000861488
-0.00140744
-0.00194788
-0.00291519
-0.00396596
-0.0059962
-0.00859587
-0.0142957
-0.0236341
-0.0457957
-0.0759576
-0.0834981
-0.105072
-0.128266
-0.162475
-0.14181
-0.0542434
-0.0155812
-0.00394238
-67.3085
63.601
0.701066
0.517418
0.388674
0.259787
0.194918
0.136471
0.105393
0.0742687
0.0625738
0.0595541
0.0579069
0.0550751
0.0529446
0.0498042
0.0476372
0.0446631
0.0426326
0.0398588
0.0379596
0.035357
0.0335817
0.0311641
0.0295543
0.0274388
0.0262046
0.0249618
0.0253223
0.0280887
0.03301
0.0242694
0.017285
0.0142053
0.0118477
0.0105946
0.00925279
0.00844236
0.00746312
0.00684638
0.0060719
0.00557574
0.00494189
0.00453042
0.0039966
0.00364277
0.00317184
0.00284632
0.0023919
0.00206017
0.00159274
0.00140475
0.00133627
0.00125824
0.00108409
0.000924145
0.000646383
0.000410224
1.64074e-05
-0.00032421
-0.000903137
-0.00142581
-0.00234594
-0.00322754
-0.00485487
-0.00656648
-0.00996819
-0.0141888
-0.023664
-0.0388211
-0.075972
-0.127598
-0.138543
-0.175047
-0.213291
-0.273228
-0.239315
-0.0882401
-0.0247676
-0.00619484
-65.5139
61.0267
1.00627
0.721541
0.544109
0.360166
0.272494
0.189546
0.147533
0.1029
0.0871164
0.0832967
0.0811342
0.0770673
0.0741774
0.069673
0.0667358
0.0624769
0.0597259
0.0557546
0.0531815
0.0494546
0.0470491
0.0435856
0.0414033
0.0383658
0.0366859
0.034857
0.0353171
0.0392098
0.0469661
0.0338841
0.0239826
0.0198456
0.0165256
0.0148367
0.0129247
0.0118283
0.0104285
0.00959337
0.0084854
0.00781342
0.00690647
0.00634917
0.0055854
0.00510621
0.00443264
0.00399184
0.00334199
0.00289156
0.00221442
0.00195994
0.00187129
0.00176684
0.00151703
0.00130028
0.000902747
0.000582973
2.01895e-05
-0.000440787
-0.00126724
-0.00197423
-0.00328599
-0.00447736
-0.00679118
-0.00909939
-0.0139074
-0.0195715
-0.032805
-0.0531283
-0.105569
-0.180865
-0.192565
-0.244952
-0.297448
-0.387735
-0.341508
-0.118733
-0.032158
-0.00790564
-63.7192
58.4382
1.33713
0.921372
0.699804
0.456694
0.349881
0.240984
0.189778
0.130378
0.11118
0.106973
0.104438
0.0990124
0.0954749
0.089479
0.0858873
0.0802304
0.0768681
0.0715945
0.0684496
0.0634994
0.0605589
0.0559558
0.0532865
0.0492386
0.0471731
0.0446607
0.0451746
0.0501763
0.0617557
0.0433716
0.0304497
0.0254531
0.0211381
0.0190877
0.0165639
0.0152263
0.0133712
0.0123513
0.0108815
0.0100605
0.00885705
0.00817616
0.0071628
0.00657741
0.00568412
0.00514572
0.00428409
0.00373201
0.00281919
0.00250849
0.00240693
0.00228124
0.00194864
0.00168364
0.00115599
0.000765439
1.98954e-05
-0.000542748
-0.00163613
-0.00249847
-0.00423085
-0.0056823
-0.00872772
-0.0115323
-0.0178124
-0.0246514
-0.0416624
-0.0661508
-0.134253
-0.236676
-0.244959
-0.314854
-0.380094
-0.507703
-0.450762
-0.143777
-0.0370555
-0.00890358
-61.9243
55.832
1.70223
1.11343
0.856361
0.54777
0.427351
0.290114
0.232351
0.156248
0.134645
0.130583
0.127857
0.120882
0.116871
0.109189
0.105121
0.097892
0.0940867
0.0873492
0.08379
0.0774638
0.0741351
0.0682486
0.0652247
0.060032
0.0576782
0.0543433
0.0548525
0.0608796
0.0777438
0.0526406
0.0365997
0.0310334
0.0256601
0.0233576
0.0201556
0.0186449
0.0162806
0.0151271
0.0132515
0.0123228
0.0107867
0.0100164
0.00872306
0.00806091
0.00692139
0.00631252
0.0052138
0.00458687
0.00339986
0.00304867
0.00294354
0.00280391
0.00237753
0.0020775
0.00140375
0.000962098
1.22801e-05
-0.000623484
-0.00201427
-0.00298791
-0.00518695
-0.00682348
-0.0106739
-0.0138262
-0.0216951
-0.0293245
-0.0502207
-0.0774288
-0.161563
-0.296253
-0.29489
-0.384941
-0.460245
-0.635052
-0.570018
-0.160811
-0.0388102
-0.0090657
-60.129
53.2057
2.11101
1.29223
1.01498
0.63132
0.505494
0.336065
0.275658
0.179938
0.157407
0.154139
0.151445
0.142633
0.138413
0.128754
0.124482
0.115417
0.111423
0.102977
0.0992409
0.0913083
0.0878137