/*--------------------------------*- C++ -*----------------------------------*\
| =========                 |                                                 |
| \\      /  F ield         | OpenFOAM: The Open Source CFD Toolbox           |
|  \\    /   O peration     | Version:  5.x                                   |
|   \\  /    A nd           | Web:      www.OpenFOAM.org                      |
|    \\/     M anipulation  |                                                 |
\*---------------------------------------------------------------------------*/
FoamFile
{
    version     2.0;
    format      ascii;
    class       volScalarField;
    location    "1.9";
    object      gradTx;
}
// * * * * * * * * * * * * * * * * * * * * * * * * * * * * * * * * * * * * * //

dimensions      [0 -1 0 1 0 0 0];

internalField   nonuniform List<scalar> 
6300
(
-29.4297
-29.4978
-29.6333
-29.8349
-30.1005
-30.427
-30.8105
-31.2458
-31.7267
-32.2454
-32.7931
-33.3602
-33.9362
-34.5105
-35.0733
-29.3616
-29.4304
-29.5672
-29.771
-30.0395
-30.3701
-30.7587
-31.2004
-31.6888
-32.2163
-32.7739
-33.3514
-33.9379
-34.5222
-35.0936
-29.2249
-29.2949
-29.4344
-29.6423
-29.9167
-30.2552
-30.654
-31.1083
-31.612
-32.1573
-32.7348
-33.3337
-33.9418
-34.5468
-35.1363
-29.0183
-29.0901
-29.2333
-29.4471
-29.73
-30.0799
-30.4937
-30.967
-31.4937
-32.0662
-32.6745
-33.3067
-33.9491
-34.5869
-35.2052
-28.7399
-28.8139
-28.9617
-29.1828
-29.4763
-29.8409
-30.2741
-30.7722
-31.3298
-31.9393
-32.5902
-33.2695
-33.9611
-34.6466
-35.3069
-28.3877
-28.464
-28.6168
-28.846
-29.1517
-29.5333
-29.9896
-30.518
-31.1142
-31.7709
-32.4778
-33.2202
-33.9791
-34.7314
-35.4515
-27.9591
-28.0377
-28.1954
-28.433
-28.7512
-29.1512
-29.6331
-30.1962
-30.8379
-31.5525
-32.3299
-33.1545
-34.0039
-34.8487
-35.6533
-27.452
-27.5325
-27.6943
-27.9392
-28.2692
-28.6871
-29.1953
-29.7959
-30.4889
-31.2713
-32.1348
-33.064
-34.0335
-35.0062
-35.9327
-26.8644
-26.9459
-27.1104
-27.3603
-27.6994
-28.1326
-28.6654
-29.3033
-30.0506
-30.9089
-31.8742
-32.9333
-34.06
-35.2098
-36.3161
-26.1953
-26.2766
-26.441
-26.6922
-27.0356
-27.4787
-28.0304
-28.7012
-29.5014
-30.4398
-31.5198
-32.7351
-34.0633
-35.4572
-36.8339
-25.4449
-25.5242
-25.6849
-25.9319
-26.2722
-26.7161
-27.2765
-27.9697
-28.8142
-29.829
-31.0301
-32.4243
-34.0008
-35.722
-37.5061
-24.6154
-24.6903
-24.8427
-25.0782
-25.4054
-25.8369
-26.3899
-27.087
-27.9567
-29.032
-30.3475
-31.9311
-33.7939
-35.9238
-38.2933
-23.7109
-23.7789
-23.9176
-24.1329
-24.4344
-24.8363
-25.3592
-26.0319
-26.8936
-27.995
-29.3968
-31.1589
-33.3198
-35.8861
-38.9445
-22.7386
-22.7968
-22.916
-23.1015
-23.363
-23.7147
-24.1788
-24.7879
-25.5907
-26.6577
-28.0858
-29.988
-32.4402
-35.3563
-38.5899
-21.7081
-21.754
-21.8479
-21.9944
-22.2012
-22.481
-22.8534
-23.3503
-24.0236
-24.9595
-26.3006
-28.2669
-31.0964
-34.5086
-35.0662
-35.5724
-36.0059
-36.418
-36.8068
-37.1717
-37.5125
-37.8299
-38.1243
-38.3962
-38.6454
-38.8717
-39.0741
-39.2518
-39.4043
-39.5316
-39.6345
-39.7149
-39.7757
-39.8204
-39.8529
-39.8774
-39.8972
-39.915
-39.9325
-39.95
-39.9668
-39.9815
-39.9921
-39.9967
-39.9939
-39.9831
-39.9644
-39.9393
-39.9098
-39.8785
-39.8482
-39.8211
-39.7988
-39.7821
-39.7703
-39.7622
-39.7557
-39.7483
-39.7375
-39.7216
-39.6996
-39.6713
-39.6379
-39.6011
-39.5633
-39.5269
-39.4941
-39.4663
-39.4439
-39.4263
-39.4122
-39.3991
-39.3847
-39.3664
-39.3422
-39.3112
-39.2732
-39.2292
-39.181
-39.1309
-39.0812
-39.0343
-38.9915
-38.9535
-38.9198
-38.8893
-38.8601
-38.8302
-38.7978
-38.7618
-38.7222
-38.6802
-38.6384
-38.6002
-38.5701
-38.5526
-38.5519
-38.5715
-38.6134
-38.6782
-38.7643
-38.8682
-38.9849
-39.108
-39.2301
-35.5992
-36.0369
-36.4515
-36.8414
-37.2063
-37.5465
-37.863
-38.1569
-38.4288
-38.6787
-38.906
-39.1096
-39.2882
-39.4407
-39.5667
-39.667
-39.7433
-39.7989
-39.8379
-39.8647
-39.8841
-39.9001
-39.9157
-39.9326
-39.951
-39.97
-39.9874
-40.0007
-40.0075
-40.0057
-39.9943
-39.9738
-39.9456
-39.9124
-39.8773
-39.8436
-39.8142
-39.791
-39.7748
-39.7651
-39.7601
-39.7571
-39.753
-39.745
-39.7306
-39.7085
-39.6788
-39.6427
-39.6026
-39.5612
-39.5218
-39.487
-39.4584
-39.4369
-39.4215
-39.4105
-39.4012
-39.3902
-39.3747
-39.3521
-39.3212
-39.2819
-39.2353
-39.1837
-39.1301
-39.0774
-39.0283
-38.9846
-38.9471
-38.9152
-38.8874
-38.8611
-38.8337
-38.8028
-38.7669
-38.7255
-38.68
-38.633
-38.5886
-38.5519
-38.5282
-38.5226
-38.5391
-38.5805
-38.6474
-38.7384
-38.8497
-38.9757
-39.1092
-39.2418
-35.6551
-36.1012
-36.5207
-36.9123
-37.2764
-37.6146
-37.9289
-38.2213
-38.4932
-38.7446
-38.9747
-39.1814
-39.3623
-39.5153
-39.6391
-39.7339
-39.8017
-39.8463
-39.8729
-39.8874
-39.8959
-39.9037
-39.9146
-39.9305
-39.9514
-39.9755
-39.9993
-40.019
-40.0307
-40.0311
-40.0189
-39.9943
-39.9594
-39.9178
-39.8741
-39.8329
-39.7984
-39.7732
-39.7584
-39.7532
-39.7551
-39.76
-39.7637
-39.7616
-39.7506
-39.7286
-39.6956
-39.6536
-39.6057
-39.5565
-39.5102
-39.4707
-39.4407
-39.4209
-39.4104
-39.4066
-39.4054
-39.4024
-39.3931
-39.3741
-39.3434
-39.3009
-39.2485
-39.1894
-39.1278
-39.0682
-39.0143
-38.9688
-38.9326
-38.9048
-38.883
-38.8635
-38.8421
-38.8151
-38.7797
-38.7348
-38.6817
-38.6236
-38.5658
-38.5148
-38.4777
-38.4611
-38.4709
-38.5107
-38.5819
-38.6831
-38.81
-38.9557
-39.1112
-39.2663
-35.745
-36.2038
-36.63
-37.0229
-37.3841
-37.7171
-38.0263
-38.3154
-38.587
-38.8415
-39.0771
-39.2903
-39.4768
-39.6321
-39.7534
-39.8399
-39.8937
-39.9198
-39.9253
-39.9188
-39.9089
-39.9029
-39.9062
-39.9213
-39.9474
-39.9813
-40.0174
-40.0491
-40.07
-40.075
-40.0615
-40.0297
-39.9828
-39.9264
-39.8673
-39.8128
-39.7691
-39.7405
-39.7283
-39.7314
-39.7456
-39.7649
-39.7825
-39.7914
-39.7864
-39.7644
-39.7256
-39.6727
-39.6111
-39.5474
-39.4887
-39.4409
-39.4081
-39.3915
-39.3898
-39.3988
-39.4124
-39.4236
-39.4255
-39.4128
-39.3824
-39.3343
-39.2713
-39.1986
-39.1227
-39.0507
-38.9883
-38.9395
-38.9058
-38.8858
-38.8753
-38.8685
-38.8587
-38.8394
-38.8059
-38.7559
-38.6904
-38.6138
-38.5332
-38.4577
-38.3973
-38.3618
-38.3592
-38.3955
-38.473
-38.5906
-38.743
-38.9213
-39.1136
-39.3062
-35.877
-36.3535
-36.7875
-37.1791
-37.5323
-37.8541
-38.1526
-38.4349
-38.7056
-38.9655
-39.2117
-39.4379
-39.6361
-39.7981
-39.9178
-39.993
-40.0257
-40.0229
-39.9951
-39.9553
-39.9162
-39.8889
-39.8811
-39.8962
-39.9324
-39.9841
-40.0418
-40.0948
-40.1322
-40.1457
-40.1306
-40.087
-40.0202
-39.9388
-39.854
-39.7772
-39.7184
-39.684
-39.6764
-39.6935
-39.7287
-39.7726
-39.8137
-39.8413
-39.8465
-39.8247
-39.7757
-39.7044
-39.6193
-39.5313
-39.4516
-39.3897
-39.352
-39.3408
-39.3538
-39.3843
-39.4228
-39.458
-39.4789
-39.4769
-39.447
-39.3892
-39.3081
-39.2122
-39.1122
-39.0191
-38.9425
-38.8885
-38.8594
-38.8528
-38.8621
-38.8778
-38.8887
-38.8841
-38.8557
-38.7991
-38.7152
-38.6097
-38.493
-38.3786
-38.281
-38.2147
-38.1916
-38.2208
-38.3064
-38.4478
-38.6385
-38.8667
-39.1156
-39.3658
-36.0644
-36.5644
-37.0062
-37.3907
-37.726
-38.0249
-38.3023
-38.5712
-38.8397
-39.1095
-39.3753
-39.6261
-39.8475
-40.0249
-40.1467
-40.2073
-40.2089
-40.1619
-40.0826
-39.9908
-39.9066
-39.8469
-39.8233
-39.8405
-39.8954
-39.9781
-40.0733
-40.1629
-40.229
-40.2576
-40.2406
-40.1781
-40.0785
-39.9561
-39.8292
-39.716
-39.6324
-39.5889
-39.5891
-39.6295
-39.6997
-39.7841
-39.8646
-39.9233
-39.9458
-39.9241
-39.8582
-39.756
-39.6318
-39.5033
-39.3888
-39.3035
-39.2579
-39.2554
-39.2924
-39.3585
-39.438
-39.513
-39.5654
-39.581
-39.5518
-39.4775
-39.3661
-39.2316
-39.0916
-38.964
-38.864
-38.8017
-38.7806
-38.7967
-38.8397
-38.8938
-38.9409
-38.963
-38.946
-38.8818
-38.7707
-38.6214
-38.4495
-38.275
-38.1198
-38.0051
-37.9488
-37.9645
-38.0594
-38.2338
-38.48
-38.7819
-39.1156
-39.4524
-36.3273
-36.8593
-37.3074
-37.6734
-37.972
-38.2268
-38.4644
-38.7081
-38.9721
-39.2594
-39.5606
-39.8567
-40.1225
-40.332
-40.4638
-40.5065
-40.4625
-40.3475
-40.188
-40.0156
-39.8617
-39.7529
-39.707
-39.7307
-39.8186
-39.9543
-40.1129
-40.2647
-40.3802
-40.4352
-40.4161
-40.3229
-40.1695
-39.9801
-39.7845
-39.6124
-39.4889
-39.4309
-39.444
-39.5226
-39.6501
-39.8014
-39.947
-40.0575
-40.1088
-40.0873
-39.9929
-39.8393
-39.6504
-39.4554
-39.2838
-39.1604
-39.1016
-39.1131
-39.1892
-39.3131
-39.46
-39.6004
-39.705
-39.7498
-39.7213
-39.6193
-39.4573
-39.2588
-39.053
-38.8689
-38.7311
-38.6556
-38.6479
-38.702
-38.8011
-38.9199
-39.0289
-39.0984
-39.104
-39.0317
-38.8812
-38.6657
-38.4095
-38.1434
-37.9003
-37.7111
-37.6023
-37.5939
-37.6977
-37.9164
-38.2413
-38.651
-39.1111
-39.5777
-36.697
-37.2753
-37.7267
-38.0533
-38.2812
-38.4534
-38.6179
-38.8156
-39.0713
-39.3893
-39.7533
-40.1309
-40.4787
-40.7511
-40.9092
-40.9308
-40.8181
-40.5974
-40.3122
-40.0138
-39.7521
-39.5685
-39.4906
-39.5284
-39.6729
-39.8976
-40.1624
-40.4191
-40.6186
-40.7196
-40.6983
-40.5545
-40.3124
-40.0133
-39.7061
-39.4388
-39.2514
-39.1703
-39.2048
-39.3456
-39.5662
-39.827
-40.0801
-40.277
-40.3766
-40.3553
-40.2131
-39.9736
-39.6777
-39.3738
-39.1095
-38.9242
-38.844
-38.878
-39.017
-39.2346
-39.4912
-39.7393
-39.9305
-40.0242
-39.9966
-39.8476
-39.6008
-39.2967
-38.9832
-38.7074
-38.5083
-38.4117
-38.4263
-38.5426
-38.7338
-38.9602
-39.1737
-39.3255
-39.374
-39.2943
-39.0852
-38.7685
-38.3837
-37.9787
-37.6029
-37.3012
-37.1112
-37.0615
-37.1704
-37.4458
-37.8804
-38.4475
-39.0971
-39.7606
-37.2214
-37.874
-38.3258
-38.5754
-38.6707
-38.6913
-38.7237
-38.8397
-39.081
-39.4529
-39.9268
-40.4479
-40.9437
-41.335
-41.551
-41.5486
-41.3295
-40.9403
-40.4556
-39.9593
-39.53
-39.2319
-39.1077
-39.1727
-39.412
-39.7833
-40.2235
-40.6559
-40.9988
-41.1805
-41.1568
-40.9278
-40.5377
-40.0581
-39.5703
-39.1504
-38.8609
-38.7433
-38.8125
-39.0535
-39.4247
-39.8636
-40.2944
-40.6365
-40.8188
-40.7977
-40.5732
-40.1892
-39.7165
-39.2354
-38.8215
-38.5366
-38.4218
-38.4919
-38.7317
-39.1
-39.5346
-39.9602
-40.2966
-40.4732
-40.4465
-40.2167
-39.827
-39.3479
-38.859
-38.4352
-38.1378
-38.0075
-38.0583
-38.275
-38.6159
-39.0187
-39.4074
-39.7013
-39.8283
-39.7434
-39.4437
-38.9693
-38.3867
-37.772
-37.1986
-36.7302
-36.418
-36.3003
-36.4036
-36.7455
-37.3287
-38.1249
-39.0632
-40.0322
-37.9727
-38.762
-39.2161
-39.3198
-39.1679
-38.9123
-38.7094
-38.6832
-38.9027
-39.3697
-40.0325
-40.8014
-41.5593
-42.1716
-42.5075
-42.4786
-42.0859
-41.4207
-40.6159
-39.8084
-39.1191
-38.6449
-38.4523
-38.5662
-38.9609
-39.5698
-40.2963
-41.0214
-41.6114
-41.9371
-41.911
-41.5333
-40.8917
-40.1151
-39.3367
-38.6742
-38.2228
-38.0475
-38.173
-38.5742
-39.1856
-39.9121
-40.6363
-41.2261
-41.5538
-41.5328
-41.1634
-40.5324
-39.7674
-39.0003
-38.3477
-37.904
-37.7336
-37.8612
-38.2615
-38.8697
-39.5912
-40.3093
-40.8928
-41.2147
-41.1891
-40.816
-40.1818
-39.4132
-38.641
-37.9811
-37.5269
-37.3423
-37.4513
-37.8285
-38.4088
-39.0975
-39.7776
-40.3171
-40.5878
-40.5014
-40.0539
-39.3257
-38.4357
-37.5059
-36.6429
-35.9339
-35.4447
-35.2208
-35.2928
-35.6977
-36.47
-37.5975
-38.9848
-40.4455
-39.0543
-40.1327
-40.6112
-40.4324
-39.8147
-39.0574
-38.4407
-38.1732
-38.3682
-39.0045
-39.9857
-41.1708
-42.3845
-43.4062
-43.9897
-43.9323
-43.235
-42.1022
-40.78
-39.4877
-38.3983
-37.6528
-37.3557
-37.5556
-38.2015
-39.1871
-40.371
-41.5818
-42.6047
-43.2005
-43.1717
-42.5189
-41.4402
-40.1748
-38.9363
-37.8942
-37.1872
-36.9185
-37.1366
-37.7922
-38.7809
-39.9639
-41.172
-42.1933
-42.791
-42.7698
-42.1303
-41.0686
-39.8214
-38.6003
-37.5732
-36.8778
-36.6165
-36.8377
-37.492
-38.4763
-39.6524
-40.8524
-41.8656
-42.4568
-42.4319
-41.7914
-40.7302
-39.4834
-38.2613
-37.2305
-36.5276
-36.2542
-36.4579
-37.0895
-38.0456
-39.1884
-40.3501
-41.3198
-41.8615
-41.7793
-41.0684
-39.9148
-38.5418
-37.1432
-35.8655
-34.821
-34.0894
-33.7148
-33.7025
-34.1208
-35.0995
-36.6959
-38.8006
-41.0942
-40.5864
-42.3671
-42.9532
-42.1771
-40.6624
-39.0002
-37.6691
-36.9972
-37.1981
-38.1428
-39.6454
-41.499
-43.4864
-45.272
-46.3949
-46.3076
-45.0112
-43.0564
-40.9013
-38.875
-37.1824
-36.0149
-35.5435
-35.9027
-36.9529
-38.519
-40.4071
-42.4127
-44.2132
-45.3633
-45.3311
-44.1179
-42.2576
-40.1958
-38.2534
-36.6318
-35.5203
-35.0885
-35.4706
-36.5304
-38.0967
-39.9794
-41.9769
-43.7704
-44.9194
-44.8973
-43.7054
-41.8718
-39.8377
-37.921
-36.3212
-35.2264
-34.8049
-35.1902
-36.2475
-37.8068
-39.6792
-41.6646
-43.4461
-44.5859
-44.5611
-43.3726
-41.5456
-39.5182
-37.6061
-36.0078
-34.9098
-34.4791
-34.8483
-35.8829
-37.4136
-39.2522
-41.1991
-42.9384
-44.0337
-43.9622
-42.72
-40.8199
-38.6844
-36.6065
-34.752
-33.2572
-32.2197
-31.6871
-31.4921
-31.7365
-32.8395
-35.062
-38.3443
-42.1545
-42.5608
-46.3221
-47.257
-44.9857
-41.7226
-38.4665
-35.9483
-34.5645
-34.9572
-36.4778
-38.7998
-41.6346
-44.879
-48.092
-50.543
-50.4242
-47.7357
-44.2991
-40.8372
-37.7818
-35.2102
-33.3751
-32.5351
-33.255
-34.9618
-37.3872
-40.2741
-43.5391
-46.7585
-49.2286
-49.1915
-46.6487
-43.3654
-40.0448
-37.1084
-34.635
-32.875
-32.0867
-32.8286
-34.5393
-36.9571
-39.8296
-43.0757
-46.2759
-48.734
-48.7097
-46.2043
-42.964
-39.6853
-36.7852
-34.3423
-32.6053
-31.8313
-32.5753
-34.2801
-36.6864
-39.5433
-42.7703
-45.9506
-48.3922
-48.3659
-45.8733
-42.6496
-39.3867
-36.4991
-34.0647
-32.3307
-31.5523
-32.2806
-33.9618
-36.338
-39.1598
-42.3467
-45.4846
-47.8857
-47.831
-45.3187
-42.064
-38.7437
-35.748
-33.1204
-31.0348
-29.6228
-29.1734
-28.6492
-28.116
-28.9673
-31.9013
-37.1276
-43.9818
-43.9959
-54.3471
-56.1779
-49.2233
-42.7733
-36.8705
-32.5942
-29.5735
-31.0921
-33.6587
-37.2161
-41.1805
-46.3169
-52.0094
-58.3918
-58.2414
-51.5375
-45.5786
-40.1877
-35.9922
-32.1777
-29.3023
-27.2806
-29.1863
-31.9359
-35.5909
-39.5966
-44.7314
-50.3831
-56.7043
-56.6601
-50.2462
-44.5268
-39.3408
-35.297
-31.6109
-28.8303
-26.8814
-28.7917
-31.5299
-35.1628
-39.1422
-44.2404
-49.8499
-56.1237
-56.0949
-49.7615
-44.1115
-38.9876
-34.9911
-31.3468
-28.5975
-26.672
-28.5768
-31.3025
-34.9169
-38.8746
-43.9435
-49.5185
-55.7522
-55.7223
-49.4268
-43.8098
-38.7148
-34.7394
-31.1131
-28.3755
-26.4556
-28.3405
-31.04
-34.6207
-38.5414
-43.5648
-49.0914
-55.2738
-55.2385
-48.9861
-43.4022
-38.3355
-34.3593
-30.7082
-27.8427
-25.6401
-26.7681
-25.8205
-22.5035
-22.0971
-25.4396
-33.5661
-47.3425
-38.209
-74.6424
-77.7498
-52.734
-43.0363
-32.9326
-27.4323
-18.0459
-25.7181
-29.4131
-35.0464
-39.0387
-46.9542
-54.9336
-75.6477
-75.496
-54.2665
-46.0402
-37.817
-33.6542
-27.7929
-24.0001
-16.3708
-23.9025
-27.6064
-33.2895
-37.2937
-45.1792
-53.0437
-73.3463
-73.301
-52.8441
-44.92
-36.9924
-32.9704
-27.2831
-23.5882
-16.1188
-23.5628
-27.2321
-32.8697
-36.8436
-44.6692
-52.4674
-72.589
-72.559
-52.3345
-44.5018
-36.6664
-32.6898
-27.0628
-23.4034
-15.9972
-23.3962
-27.0452
-32.6533
-36.6056
-44.3878
-52.1381
-72.1317
-72.1011
-52.0031
-44.2185
-36.4304
-32.4768
-26.8819
-23.2429
-15.8798
-23.2276
-26.8489
-32.4139
-36.335
-44.0583
-51.7537
-71.6154
-71.5983
-51.6909
-43.9953
-36.3566
-32.5024
-27.1645
-23.6962
-16.8623
-27.3532
-26.405
-12.7006
-9.82892
-12.089
-21.8679
-53.8947
-39.3541
-39.4683
-39.551
-39.5965
-39.6031
-39.5728
-39.5107
-39.4243
-39.3225
-39.2143
-39.1088
-39.0141
-38.9368
-38.8823
-38.8542
-39.3763
-39.4997
-39.5881
-39.6353
-39.6399
-39.6044
-39.5349
-39.4397
-39.3286
-39.2116
-39.098
-38.9964
-38.9139
-38.8558
-38.8259
-39.4233
-39.566
-39.6661
-39.7167
-39.7166
-39.6699
-39.5845
-39.4709
-39.3406
-39.2051
-39.075
-38.9596
-38.8664
-38.8011
-38.7675
-39.5003
-39.6748
-39.7936
-39.8486
-39.8398
-39.7739
-39.6622
-39.5186
-39.3576
-39.1931
-39.0373
-38.9005
-38.7908
-38.7145
-38.6753
-39.6169
-39.8392
-39.9848
-40.0442
-40.02
-39.9235
-39.7716
-39.5836
-39.3781
-39.1723
-38.9803
-38.814
-38.6819
-38.5905
-38.5438
-39.7885
-40.0801
-40.2619
-40.3234
-40.2723
-40.1283
-39.9171
-39.6658
-39.3989
-39.1373
-38.8977
-38.693
-38.5322
-38.4217
-38.3655
-40.0398
-40.4309
-40.6591
-40.7152
-40.6174
-40.4
-40.1027
-39.7634
-39.4141
-39.0802
-38.7803
-38.5278
-38.3319
-38.1985
-38.1309
-40.4114
-40.9444
-41.2282
-41.2606
-41.0819
-40.7514
-40.3302
-39.8709
-39.414
-38.9888
-38.6152
-38.306
-38.0691
-37.9091
-37.8286
-40.9716
-41.7072
-42.0485
-42.0171
-41.6979
-41.1935
-40.5958
-39.9757
-39.3819
-38.8457
-38.3856
-38.0117
-37.7292
-37.5402
-37.4457
-41.8406
-42.864
-43.2414
-43.0614
-42.4991
-41.7285
-40.8837
-40.0539
-39.2921
-38.6264
-38.0696
-37.626
-37.2956
-37.0768
-36.968
-43.2425
-44.6667
-44.9918
-44.4877
-43.5086
-42.3377
-41.1565
-40.0641
-39.106
-38.2979
-37.6402
-37.1269
-36.7502
-36.5034
-36.3812
-45.6289
-47.5683
-47.5713
-46.3892
-44.7096
-42.9571
-41.3406
-39.9397
-38.7698
-37.819
-37.0664
-36.491
-36.075
-35.805
-35.6723
-50.0078
-52.4061
-51.3357
-48.7882
-45.9834
-43.4406
-41.3088
-39.5841
-38.2145
-37.1417
-36.3151
-35.6954
-35.2536
-34.9694
-34.8303
-58.9327
-60.711
-56.576
-51.4438
-46.9952
-43.5133
-40.8697
-38.8733
-37.3623
-36.2179
-35.3569
-34.722
-34.2743
-33.9885
-33.8492
-79.9493
-74.9286
-62.8117
-53.4147
-47.0402
-42.7473
-39.7836
-37.6769
-36.1432
-35.0107
-34.1725
-33.5611
-33.133
-32.8609
-32.7287
-20.7214
-20.754
-20.8207
-20.9242
-21.0695
-21.2651
-21.5244
-21.8709
-22.3464
-23.0312
-24.0912
-25.8979
-29.3302
-36.3481
-49.0406
-19.8017
-19.8214
-19.8613
-19.9222
-20.006
-20.1154
-20.2557
-20.4364
-20.6765
-21.0178
-21.564
-22.6151
-25.2342
-34.0805
-73.6275
-18.8684
-18.8749
-18.8872
-18.9045
-18.9245
-18.9444
-18.959
-18.9606
-18.9362
-18.8622
-18.686
-18.2432
-16.814
-10.4933
24.4057
-17.9306
-17.9242
-17.9099
-17.8847
-17.8433
-17.777
-17.6715
-17.5031
-17.2304
-16.7775
-15.993
-14.5561
-11.7907
-6.75236
-3.40829
-16.9974
-16.979
-16.9402
-16.8763
-16.7795
-16.6368
-16.4276
-16.1178
-15.6499
-14.9231
-13.7531
-11.7913
-8.34571
-1.83477
13.4312
-16.0769
-16.0481
-15.9879
-15.8908
-15.7475
-15.5429
-15.2537
-14.8425
-14.2493
-13.3764
-12.0632
-10.0569
-7.02931
-2.99687
-1.45926
-15.1765
-15.139
-15.0612
-14.9374
-14.758
-14.5079
-14.1645
-13.6934
-13.0431
-12.1355
-10.8546
-9.03163
-6.41071
-2.42615
5.57595
-14.3022
-14.2578
-14.1665
-14.0227
-13.8175
-13.5377
-13.1639
-12.669
-12.0155
-11.1537
-10.0226
-8.56052
-6.73909
-4.64518
-2.6897
-13.4587
-13.4093
-13.3082
-13.1506
-12.929
-12.6328
-12.2474
-11.7546
-11.1326
-10.3591
-9.42046
-8.33896
-7.25671
-6.76786
-9.59733
-12.6495
-12.5967
-12.4891
-12.3229
-12.0924
-11.7897
-11.4056
-10.9301
-10.355
-9.67902
-8.91755
-8.11796
-7.36225
-6.58596
-3.91019
-11.8771
-11.8221
-11.7107
-11.54
-11.3058
-11.0032
-10.6272
-10.1746
-9.64741
-9.05839
-8.44115
-7.86649
-7.4821
-7.72296
-10.9245
-11.1428
-11.0867
-10.9736
-10.8012
-10.5669
-10.2677
-9.90201
-9.47105
-8.98277
-8.45736
-7.93519
-7.4829
-7.16777
-6.80378
-4.09095
-10.4474
-10.3911
-10.2775
-10.1054
-9.87287
-9.57845
-9.22214
-8.80729
-8.34392
-7.85408
-7.38072
-7.00409
-6.88739
-7.51561
-11.4447
-9.79119
-9.73507
-9.62223
-9.45158
-9.22187
-8.93218
-8.58292
-8.17722
-7.72347
-7.23938
-6.75908
-6.34477
-6.08973
-5.93508
-3.68162
-9.17395
-9.11849
-9.00707
-8.83878
-8.6125
-8.3273
-7.98289
-7.58053
-7.12409
-6.62203
-6.09163
-5.57485
-5.22236
-5.81199
-12.1989
-8.59522
-8.54077
-8.4314
-8.26623
-8.04407
-7.76352
-7.42313
-7.02138
-6.55639
-6.02438
-5.41471
-4.69084
-3.70074
-1.66291
6.15266
-8.05431
-8.00118
-7.89448
-7.73328
-7.51619
-7.24131
-6.90596
-6.50616
-6.03523
-5.48067
-4.81709
-3.99172
-2.90671
-1.52618
-1.37258
-7.55028
-7.49881
-7.3954
-7.23912
-7.02844
-6.76107
-6.43355
-6.04033
-5.57216
-5.01264
-4.33183
-3.47288
-2.31789
-0.537463
3.4627
-7.082
-7.03249
-6.93305
-6.78274
-6.58005
-6.32262
-6.00674
-5.62656
-5.1725
-4.62885
-3.97027
-3.15962
-2.16339
-1.09032
-1.17798
-6.64809
-6.60085
-6.506
-6.36273
-6.16968
-5.92474
-5.62459
-5.26407
-4.83504
-4.32486
-3.71431
-2.97522
-2.06222
-0.837235
1.60235
-6.24698
-6.20227
-6.11257
-5.97727
-5.79534
-5.56519
-5.28436
-4.94915
-4.55394
-4.09055
-3.54759
-2.91157
-2.17769
-1.42776
-1.40505
-5.8769
-5.83493
-5.7508
-5.62418
-5.45448
-5.24082
-4.98189
-4.67587
-4.32018
-3.91149
-3.44549
-2.91585
-2.30427
-1.51342
0.0705799
-5.53597
-5.49684
-5.41854
-5.301
-5.14414
-4.94786
-4.71212
-4.43706
-4.12323
-3.77219
-3.38757
-2.97702
-2.55534
-2.15005
-1.82109
-5.2222
-5.18593
-5.1135
-5.00511
-4.86115
-4.68229
-4.46965
-4.22515
-3.95209
-3.6562
-3.34765
-3.04588
-2.79501
-2.73386
-3.48434
-4.93359
-4.90013
-4.83342
-4.73391
-4.60239
-4.44016
-4.24928
-4.03306
-3.79681
-3.54897
-3.30301
-3.07936
-2.9029
-2.75421
-2.16106
-4.6682
-4.63741
-4.5761
-4.48492
-4.36494
-4.2179
-4.04648
-3.85487
-3.64953
-3.44044
-3.24284
-3.08006
-2.9915
-3.08342
-3.93365
-4.42419
-4.39585
-4.33951
-4.25591
-4.14627
-4.01255
-3.85769
-3.6862
-3.50485
-3.3239
-3.15845
-3.0292
-2.95476
-2.88622
-2.23343
-4.19983
-4.17371
-4.12183
-4.04495
-3.94431
-3.82185
-3.68044
-3.52434
-3.35988
-3.19656
-3.04892
-2.94024
-2.91389
-3.09499
-4.14323
-3.99359
-3.96944
-3.9215
-3.85046
-3.75748
-3.64428
-3.51336
-3.36827
-3.21409
-3.05831
-2.9123
-2.79408
-2.72894
-2.70183
-2.13845
-3.80409
-3.78168
-3.73718
-3.67118
-3.58466
-3.47901
-3.35611
-3.21847
-3.0694
-2.91324
-2.75636
-2.61103
-2.51755
-2.68136
-4.38508
-3.63012
-3.60925
-3.56776
-3.50613
-3.4251
-3.32568
-3.20906
-3.0766
-2.92958
-2.76866
-2.59237
-2.39193
-2.12746
-1.59179
0.468268
-3.47061
-3.45111
-3.41229
-3.35452
-3.2783
-3.18426
-3.07297
-2.94481
-2.79939
-2.63471
-2.4451
-2.21727
-1.92566
-1.5612
-1.531
-3.32462
-3.30635
-3.26996
-3.21568
-3.14385
-3.05477
-2.94859
-2.82496
-2.68256
-2.51805
-2.32433
-2.08685
-1.77442
-1.29884
-0.232813
-3.19128
-3.17416
-3.14001
-3.08901
-3.02134
-2.93714
-2.83629
-2.71812
-2.58103
-2.42164
-2.23391
-2.00842
-1.73644
-1.44692
-1.47092
-3.06981
-3.05376
-3.02174
-2.97387
-2.91029
-2.83105
-2.73596
-2.6244
-2.49494
-2.34488
-2.16967
-1.96222
-1.71059
-1.37771
-0.721963
-2.95944
-2.94442
-2.91443
-2.86961
-2.81008
-2.73592
-2.64705
-2.54308
-2.42312
-2.28554
-2.12778
-1.94664
-1.74111
-1.53315
-1.52147
-2.85948
-2.84543
-2.8174
-2.77552
-2.71999
-2.65097
-2.56858
-2.47283
-2.3635
-2.24017
-2.10209
-1.94795
-1.77326
-1.55274
-1.12513
-2.76924
-2.75611
-2.72993
-2.69089
-2.63923
-2.57526
-2.49936
-2.41195
-2.31357
-2.20499
-2.0875
-1.96347
-1.8372
-1.71662
-1.6197
-2.68809
-2.67581
-2.65137
-2.61498
-2.56697
-2.50781
-2.4381
-2.35866
-2.27068
-2.17596
-2.07742
-1.98047
-1.89713
-1.86454
-2.04704
-2.61542
-2.60393
-2.58107
-2.5471
-2.50243
-2.44764
-2.38354
-2.31126
-2.23244
-2.14952
-2.06618
-1.98798
-1.92177
-1.86355
-1.69458
-2.55069
-2.53989
-2.51844
-2.48661
-2.44487
-2.3939
-2.33462
-2.26836
-2.19701
-2.12332
-2.05133
-1.98709
-1.94083
-1.93996
-2.13149
-2.49343
-2.48322
-2.46296
-2.43296
-2.39369
-2.34588
-2.2905
-2.22895
-2.16317
-2.0959
-2.03103
-1.97366
-1.92833
-1.88324
-1.69645
-2.4432
-2.43349
-2.41422
-2.3857
-2.34841
-2.30306
-2.25063
-2.19244
-2.13031
-2.06677
-2.00546
-1.95182
-1.91561
-1.92545
-2.13682
-2.39968
-2.39036
-2.37185
-2.34447
-2.30868
-2.26513
-2.21472
-2.15861
-2.09837
-2.03606
-1.97452
-1.9178
-1.87086
-1.82823
-1.65861
-2.36259
-2.35355
-2.33561
-2.30905
-2.27429
-2.23192
-2.18271
-2.12762
-2.06782
-2.00475
-1.94018
-1.87692
-1.82307
-1.81973
-2.12813
-2.33173
-2.32288
-2.30531
-2.27927
-2.24513
-2.20341
-2.15473
-2.09984
-2.03951
-1.97444
-1.90487
-1.82943
-1.74016
-1.5953
-1.14645
-2.30697
-2.29822
-2.28085
-2.25506
-2.2212
-2.17968
-2.13103
-2.07578
-2.01443
-1.9472
-1.87359
-1.79148
-1.69579
-1.58255
-1.51863
-2.28823
-2.27951
-2.26218
-2.23642
-2.20253
-2.16087
-2.11186
-2.05592
-1.99339
-1.92433
-1.84814
-1.76288
-1.66357
-1.53613
-1.31771
-2.2755
-2.26674
-2.24931
-2.22338
-2.18921
-2.14711
-2.09745
-2.04059
-1.97684
-1.90635
-1.82893
-1.74396
-1.65082
-1.55351
-1.49398
-2.26881
-2.25994
-2.2423
-2.21602
-2.18134
-2.13855
-2.08798
-2.02998
-1.96492
-1.89312
-1.8149
-1.73065
-1.64089
-1.54528
-1.42956
-2.26822
-2.2592
-2.24122
-2.21444
-2.17906
-2.13535
-2.08362
-2.02424
-1.95762
-1.88428
-1.80501
-1.72108
-1.63497
-1.55164
-1.48431
-2.27385
-2.26462
-2.24621
-2.21878
-2.18251
-2.13766
-2.08452
-2.02346
-1.95492
-1.87952
-1.79827
-1.71296
-1.62704
-1.54752
-1.49072
-2.28585
-2.27635
-2.25742
-2.2292
-2.19187
-2.14567
-2.09088
-2.02783
-1.95694
-1.87877
-1.79428
-1.70519
-1.61462
-1.52827
-1.45944
-2.30439
-2.29458
-2.27504
-2.24589
-2.20733
-2.15959
-2.10292
-2.0376
-1.96395
-1.88234
-1.79342
-1.69836
-1.59919
-1.4975
-1.38046
-2.32969
-2.31953
-2.29927
-2.26907
-2.22912
-2.17965
-2.12091
-2.05311
-1.97642
-1.89093
-1.79675
-1.69432
-1.58545
-1.47804
-1.41654
-2.362
-2.35142
-2.33036
-2.29897
-2.25746
-2.20611
-2.14514
-2.07475
-1.99495
-1.90549
-1.80574
-1.69467
-1.57062
-1.42736
-1.21377
-2.4016
-2.39055
-2.36857
-2.33583
-2.2926
-2.23918
-2.17586
-2.10286
-2.02013
-1.92713
-1.82254
-1.70396
-1.56908
-1.42615
-1.3682
-2.44881
-2.43723
-2.4142
-2.37993
-2.33476
-2.27906
-2.21326
-2.13768
-2.05237
-1.95677
-1.84897
-1.72448
-1.57305
-1.3666
-0.977055
-2.50401
-2.49182
-2.46758
-2.43156
-2.38416
-2.32591
-2.25739
-2.17919
-2.09172
-1.9948
-1.88694
-1.76364
-1.61518
-1.43484
-1.35163
-2.56762
-2.55471
-2.52908
-2.49103
-2.44106
-2.37984
-2.30819
-2.2271
-2.13756
-2.04038
-1.93556
-1.82018
-1.67939
-1.4363
-0.63238
-2.64013
-2.62641
-2.59915
-2.55872
-2.50571
-2.44094
-2.36551
-2.28081
-2.18864
-2.09121
-1.99145
-1.89428
-1.81457
-1.82788
-2.41201
-2.72212
-2.70745
-2.6783
-2.63509
-2.57848
-2.5094
-2.42919
-2.33967
-2.24332
-2.14361
-2.04547
-1.95619
-1.88509
-1.82373
-1.54033
-2.81425
-2.79849
-2.76717
-2.72073
-2.65984
-2.58554
-2.49929
-2.4032
-2.30027
-2.19484
-2.09328
-2.00538
-1.94878
-1.97443
-2.35588
-2.91727
-2.90028
-2.8665
-2.81634
-2.75047
-2.66992
-2.57617
-2.47143
-2.3589
-2.24333
-2.13154
-2.03276
-1.95529
-1.8787
-1.55248
-3.03203
-3.01368
-2.97715
-2.9228
-2.85125
-2.7634
-2.66063
-2.545
-2.4196
-2.28912
-2.16071
-2.04525
-1.96113
-1.95699
-2.29142
-3.15948
-3.13965
-3.10011
-3.04116
-2.96328
-2.86719
-2.75398
-2.62531
-2.48377
-2.33343
-2.1808
-2.03589
-1.91136
-1.8008
-1.49393
-3.30066
-3.27924
-3.2365
-3.17262
-3.08791
-2.98281
-2.858
-2.7145
-2.55398
-2.37927
-2.19547
-2.01231
-1.85183
-1.78161
-2.09693
-3.45666
-3.4336
-3.38751
-3.31849
-3.22663
-3.11207
-2.97495
-2.81546
-2.63398
-2.43138
-2.20961
-1.9729
-1.72957
-1.49531
-1.30551
-3.62863
-3.60389
-3.5544
-3.48016
-3.38107
-3.25695
-3.10738
-2.93164
-2.7286
-2.49672
-2.23407
-1.93802
-1.60093
-1.1788
-0.382372
-3.81773
-3.79131
-3.73843
-3.65902
-3.55285
-3.41945
-3.25794
-3.06672
-2.8432
-2.58338
-2.28166
-1.93154
-1.5313
-1.12287
-1.07448
-4.02512
-3.99704
-3.94084
-3.85642
-3.74348
-3.60143
-3.42906
-3.22418
-2.98295
-2.69908
-2.36281
-1.95978
-1.46731
-0.817539
0.435148
-4.25197
-4.22225
-4.16281
-4.07356
-3.95428
-3.8044
-3.62271
-3.40682
-3.15225
-2.85111
-2.49024
-2.05006
-1.51249
-0.931541
-0.933349
-4.4994
-4.46806
-4.40542
-4.31151
-4.18627
-4.02941
-3.84007
-3.61627
-3.35384
-3.04458
-2.6727
-2.20788
-1.58775
-0.641472
1.44477
-4.76853
-4.73555
-4.66969
-4.57115
-4.44017
-4.27693
-4.08132
-3.85249
-3.5879
-3.28147
-2.91963
-2.4735
-1.88944
-1.14367
-1.01571
-5.06053
-5.02582
-4.95661
-4.85328
-4.71643
-4.54688
-4.34559
-4.11348
-3.85097
-3.55679
-3.22503
-2.83482
-2.30337
-1.21744
2.89989
-5.37657
-5.34001
-5.26718
-5.15863
-5.01534
-4.83881
-4.6312
-4.39555
-4.13598
-3.85817
-3.57096
-3.29417
-3.1023
-3.39697
-6.7192
-5.71794
-5.67935
-5.60249
-5.48806
-5.3373
-5.15228
-4.93625
-4.69418
-4.43361
-4.16601
-3.90962
-3.69447
-3.5633
-3.47456
-2.25163
-6.08606
-6.04522
-5.96385
-5.84266
-5.68299
-5.48723
-5.25933
-5.00562
-4.73606
-4.46603
-4.21958
-4.03639
-3.99481
-4.34031
-6.42432
-6.48248
-6.43919
-6.35282
-6.22393
-6.05371
-5.84446
-5.60027
-5.32803
-5.0388
-4.74963
-4.48558
-4.2799
-4.15747
-3.9993
-2.5549
-6.90892
-6.86302
-6.77126
-6.63385
-6.45149
-6.22591
-5.96066
-5.66219
-5.34146
-5.01573
-4.711
-4.46556
-4.34491
-4.55204
-6.30628
-7.36718
-7.31866
-7.22136
-7.07493
-6.87923
-6.63487
-6.34405
-6.01178
-5.64753
-5.26722
-4.8952
-4.56451
-4.3047
-4.03086
-2.65219
-7.8591
-7.80811
-7.70552
-7.55017
-7.34071
-7.07605
-6.75619
-6.38354
-5.96472
-5.51292
-5.05067
-4.61419
-4.27421
-4.27736
-5.95791
-8.38636
-8.33336
-8.22626
-8.06295
-7.84048
-7.5555
-7.20495
-6.78733
-6.30478
-5.76585
-5.1882
-4.59682
-4.00541
-3.35935
-2.51378
-8.95039
-8.89613
-8.786
-8.61676
-8.38362
-8.08045
-7.70023
-7.23617
-6.68395
-6.04565
-5.33524
-4.57938
-3.77446
-2.58022
1.51723
-9.55204
-9.49765
-9.38673
-9.21488
-8.97535
-8.65887
-8.25369
-7.74619
-7.12286
-6.37549
-5.51377
-4.59588
-3.81368
-3.81748
-7.42138
-10.1914
-10.1384
-10.0297
-9.85996
-9.62047
-9.29883
-8.87816
-8.33663
-7.6479
-6.78469
-5.73123
-4.51792
-3.30676
-2.55658
-3.04732
-10.8675
-10.8177
-10.7151
-10.5534
-10.3226
-10.0075
-9.58651
-9.02926
-8.29407
-7.32599
-6.05955
-4.43813
-2.47937
-0.435872
0.986653
-11.5782
-11.5336
-11.4414
-11.2949
-11.0832
-10.7897
-10.3894
-9.84543
-9.10195
-8.07444
-6.63425
-4.59212
-1.71042
2.11401
6.00905
-12.3198
-12.2826
-12.2053
-12.0815
-11.9006
-11.6459
-11.2922
-10.8001
-10.1071
-9.10947
-7.62681
-5.32859
-1.5957
4.61276
13.7369
-13.0871
-13.0594
-13.0015
-12.9077
-12.769
-12.5709
-12.291
-11.8942
-11.3236
-10.4813
-9.18562
-7.06085
-3.19968
5.08461
27.8015
-157.239
-94.4661
-66.0334
-52.449
-45.1729
-40.8267
-38.0024
-36.0547
-34.658
-33.6341
-32.8789
-32.3287
-31.9437
-31.6991
-31.5801
-195.632
-88.3873
-58.6501
-47.1895
-41.4402
-38.0238
-35.7744
-34.1973
-33.0488
-32.196
-31.5603
-31.0936
-30.765
-30.5554
-30.4533
50.5733
-28.4914
-38.5736
-37.9632
-36.0873
-34.4103
-33.0793
-32.0421
-31.2343
-30.6068
-30.1244
-29.7623
-29.5037
-29.337
-29.2554
-7.38589
-16.5008
-25.9219
-29.6153
-30.5959
-30.5564
-30.1803
-29.7273
-29.2946
-28.9169
-28.6047
-28.3592
-28.1783
-28.0595
-28.0007
27.8213
-4.29826
-17.2476
-23.1509
-25.8128
-26.9362
-27.3346
-27.3985
-27.3166
-27.1814
-27.0386
-26.911
-26.8097
-26.7402
-26.705
-1.50418
-5.40921
-13.4663
-18.9375
-22.098
-23.8194
-24.7211
-25.1707
-25.3755
-25.4511
-25.4619
-25.4444
-25.419
-25.3971
-25.3848
12.2118
-3.6377
-11.4806
-16.3285
-19.3824
-21.2718
-22.4216
-23.1129
-23.5241
-23.7655
-23.9049
-23.9833
-24.0257
-24.0472
-24.056
-3.39559
-7.4273
-11.5748
-14.9653
-17.4755
-19.2377
-20.4403
-21.2494
-21.7904
-22.1509
-22.39
-22.5469
-22.6469
-22.7059
-22.7333
-16.2033
-11.1375
-12.1945
-14.2135
-16.0878
-17.5922
-18.7322