/*--------------------------------*- C++ -*----------------------------------*\
| =========                 |                                                 |
| \\      /  F ield         | OpenFOAM: The Open Source CFD Toolbox           |
|  \\    /   O peration     | Version:  5.x                                   |
|   \\  /    A nd           | Web:      www.OpenFOAM.org                      |
|    \\/     M anipulation  |                                                 |
\*---------------------------------------------------------------------------*/
FoamFile
{
    version     2.0;
    format      ascii;
    class       volScalarField;
    location    "2";
    object      gradTx;
}
// * * * * * * * * * * * * * * * * * * * * * * * * * * * * * * * * * * * * * //

dimensions      [0 -1 0 1 0 0 0];

internalField   nonuniform List<scalar> 
6300
(
-29.4647
-29.5329
-29.6686
-29.8704
-30.1364
-30.4634
-30.8474
-31.2833
-31.7648
-32.2842
-32.8327
-33.4005
-33.9773
-34.5524
-35.1159
-29.3966
-29.4654
-29.6024
-29.8064
-30.0754
-30.4064
-30.7956
-31.2378
-31.7269
-32.2551
-32.8135
-33.3917
-33.979
-34.5641
-35.1363
-29.2597
-29.3298
-29.4694
-29.6776
-29.9524
-30.2913
-30.6907
-31.1457
-31.65
-32.1961
-32.7743
-33.374
-33.983
-34.5887
-35.179
-29.0528
-29.1247
-29.2681
-29.4821
-29.7654
-30.1159
-30.5302
-31.0041
-31.5316
-32.1048
-32.7139
-33.347
-33.9903
-34.6289
-35.248
-28.774
-28.8481
-28.9961
-29.2175
-29.5114
-29.8765
-30.3103
-30.8091
-31.3675
-31.9778
-32.6296
-33.3098
-34.0023
-34.6887
-35.35
-28.4213
-28.4977
-28.6507
-28.8803
-29.1864
-29.5686
-30.0255
-30.5546
-31.1516
-31.8092
-32.5171
-33.2605
-34.0205
-34.7738
-35.4948
-27.9922
-28.0709
-28.2288
-28.4667
-28.7854
-29.1859
-29.6685
-30.2324
-30.875
-31.5905
-32.369
-33.1947
-34.0453
-34.8912
-35.697
-27.4843
-27.565
-27.7271
-27.9723
-28.3028
-28.7212
-29.2302
-29.8316
-30.5256
-31.309
-32.1737
-33.1042
-34.075
-35.049
-35.9768
-26.896
-26.9777
-27.1423
-27.3926
-27.7322
-28.166
-28.6996
-29.3384
-30.0868
-30.9463
-31.9128
-32.9734
-34.1016
-35.253
-36.3608
-26.226
-26.3074
-26.4721
-26.7236
-27.0675
-27.5112
-28.0638
-28.7355
-29.5369
-30.4765
-31.558
-32.7751
-34.105
-35.5008
-36.8793
-25.4746
-25.554
-25.715
-25.9623
-26.3032
-26.7477
-27.3089
-28.0031
-28.8488
-29.865
-31.0678
-32.4639
-34.0426
-35.766
-37.5525
-24.6439
-24.719
-24.8717
-25.1075
-25.4352
-25.8673
-26.4212
-27.1193
-27.9902
-29.0671
-30.3844
-31.9702
-33.8355
-35.9684
-38.341
-23.7383
-23.8063
-23.9453
-24.161
-24.4629
-24.8654
-25.3891
-26.0628
-26.9258
-28.0288
-29.4325
-31.1972
-33.3612
-35.9312
-38.9936
-22.7646
-22.8229
-22.9423
-23.1282
-23.39
-23.7424
-24.2072
-24.8172
-25.6212
-26.6898
-28.12
-30.025
-32.4811
-35.402
-38.6405
-21.7326
-21.7786
-21.8727
-22.0195
-22.2267
-22.507
-22.88
-23.3778
-24.0521
-24.9895
-26.3327
-28.3022
-31.1369
-34.5565
-35.1187
-35.6156
-36.0497
-36.4623
-36.8517
-37.217
-37.5582
-37.876
-38.1707
-38.4429
-38.6924
-38.9188
-39.1214
-39.2992
-39.4518
-39.5791
-39.682
-39.7623
-39.823
-39.8675
-39.8998
-39.924
-39.9435
-39.961
-39.9781
-39.9952
-40.0115
-40.0257
-40.0357
-40.0397
-40.0362
-40.0245
-40.005
-39.9789
-39.9484
-39.9161
-39.8846
-39.8563
-39.8327
-39.8146
-39.8014
-39.7918
-39.7837
-39.7746
-39.7621
-39.7445
-39.7205
-39.6903
-39.6548
-39.6159
-39.5759
-39.5373
-39.5022
-39.472
-39.4472
-39.4272
-39.4105
-39.395
-39.378
-39.3572
-39.3305
-39.2969
-39.2564
-39.2099
-39.1591
-39.1064
-39.0543
-39.0049
-38.9597
-38.9192
-38.8832
-38.8505
-38.8191
-38.787
-38.7526
-38.7147
-38.6733
-38.6296
-38.5862
-38.5465
-38.5149
-38.496
-38.494
-38.5124
-38.5532
-38.6168
-38.7017
-38.8046
-38.9203
-39.0423
-39.1635
-35.6425
-36.0808
-36.4959
-36.8863
-37.2516
-37.5922
-37.9092
-38.2034
-38.4756
-38.7257
-38.9533
-39.157
-39.3357
-39.4883
-39.6143
-39.7145
-39.7908
-39.8463
-39.885
-39.9117
-39.9308
-39.9465
-39.9617
-39.9782
-39.9963
-40.0148
-40.0317
-40.0444
-40.0505
-40.048
-40.0359
-40.0145
-39.9854
-39.9511
-39.9149
-39.8801
-39.8495
-39.825
-39.8075
-39.7963
-39.7898
-39.7852
-39.7795
-39.7697
-39.7535
-39.7296
-39.6979
-39.6598
-39.6175
-39.5739
-39.5323
-39.4951
-39.4642
-39.4402
-39.4224
-39.4089
-39.3971
-39.3836
-39.3655
-39.3404
-39.307
-39.2651
-39.2159
-39.1618
-39.1056
-39.0504
-38.9988
-38.9527
-38.9128
-38.8786
-38.8484
-38.8199
-38.7904
-38.7575
-38.7196
-38.6765
-38.6292
-38.5806
-38.5348
-38.4966
-38.4716
-38.4647
-38.48
-38.5202
-38.586
-38.6758
-38.786
-38.911
-39.0434
-39.1751
-35.6985
-36.1452
-36.5652
-36.9573
-37.3219
-37.6605
-37.9751
-38.2679
-38.54
-38.7918
-39.022
-39.2289
-39.41
-39.5631
-39.6869
-39.7816
-39.8494
-39.8938
-39.9202
-39.9345
-39.9427
-39.9502
-39.9607
-39.9763
-39.9968
-40.0204
-40.0438
-40.0629
-40.0739
-40.0737
-40.0607
-40.0352
-39.9994
-39.9568
-39.9119
-39.8696
-39.8338
-39.8074
-39.7912
-39.7846
-39.7849
-39.7883
-39.7903
-39.7866
-39.7737
-39.7498
-39.7149
-39.6708
-39.6208
-39.5693
-39.5208
-39.479
-39.4465
-39.4243
-39.4114
-39.4051
-39.4014
-39.3958
-39.3839
-39.3624
-39.3291
-39.2841
-39.2291
-39.1674
-39.1033
-39.0411
-38.9847
-38.9368
-38.8981
-38.868
-38.8438
-38.8221
-38.7986
-38.7695
-38.7321
-38.6855
-38.6307
-38.571
-38.5117
-38.4593
-38.4209
-38.4031
-38.4116
-38.4503
-38.5203
-38.6204
-38.7462
-38.8908
-39.0453
-39.1994
-35.7885
-36.248
-36.6747
-37.0681
-37.4297
-37.7632
-38.0727
-38.3622
-38.6341
-38.8888
-39.1246
-39.3381
-39.5246
-39.6801
-39.8014
-39.8878
-39.9415
-39.9674
-39.9728
-39.966
-39.9558
-39.9496
-39.9526
-39.9672
-39.993
-40.0265
-40.0621
-40.0932
-40.1135
-40.1179
-40.1036
-40.071
-40.0231
-39.9656
-39.9054
-39.8498
-39.8049
-39.7749
-39.7614
-39.763
-39.7758
-39.7936
-39.8095
-39.8167
-39.8098
-39.786
-39.7452
-39.6902
-39.6264
-39.5606
-39.4996
-39.4494
-39.4141
-39.3951
-39.3909
-39.3974
-39.4084
-39.417
-39.4164
-39.4011
-39.3681
-39.3174
-39.2518
-39.1765
-39.0981
-39.0235
-38.9585
-38.9073
-38.8711
-38.8486
-38.8357
-38.8267
-38.8146
-38.7933
-38.7578
-38.7061
-38.6389
-38.5608
-38.4787
-38.4018
-38.3402
-38.3035
-38.2998
-38.335
-38.4114
-38.5278
-38.6791
-38.8563
-39.0475
-39.239
-35.9208
-36.3979
-36.8325
-37.2246
-37.5783
-37.9005
-38.1993
-38.4819
-38.7529
-39.0131
-39.2596
-39.486
-39.6843
-39.8464
-39.9662
-40.0412
-40.0738
-40.0708
-40.0429
-40.0028
-39.9634
-39.9358
-39.9277
-39.9423
-39.9783
-40.0295
-40.0868
-40.1393
-40.1762
-40.189
-40.1731
-40.1287
-40.0609
-39.9784
-39.8925
-39.8146
-39.7545
-39.7187
-39.7098
-39.7255
-39.7593
-39.8016
-39.8412
-39.867
-39.8705
-39.8468
-39.7958
-39.7224
-39.6351
-39.5448
-39.4627
-39.3984
-39.3583
-39.3446
-39.355
-39.383
-39.4189
-39.4515
-39.4698
-39.4652
-39.4327
-39.3722
-39.2885
-39.19
-39.0874
-38.9918
-38.9126
-38.856
-38.8244
-38.8152
-38.8221
-38.8354
-38.8441
-38.8374
-38.807
-38.7486
-38.663
-38.556
-38.438
-38.3223
-38.2236
-38.1562
-38.132
-38.1601
-38.2446
-38.3849
-38.5744
-38.8014
-39.0492
-39.2982
-36.1085
-36.6092
-37.0516
-37.4366
-37.7723
-38.0716
-38.3493
-38.6185
-38.8873
-39.1574
-39.4235
-39.6745
-39.8961
-40.0737
-40.1955
-40.256
-40.2575
-40.2102
-40.1306
-40.0386
-39.954
-39.8939
-39.8701
-39.887
-39.9416
-40.0239
-40.1187
-40.2079
-40.2736
-40.3015
-40.2837
-40.2204
-40.1197
-39.9963
-39.8682
-39.7538
-39.669
-39.6241
-39.623
-39.662
-39.7307
-39.8137
-39.8926
-39.9496
-39.9704
-39.9468
-39.8788
-39.7745
-39.648
-39.5173
-39.4003
-39.3126
-39.2645
-39.2594
-39.2938
-39.3573
-39.4343
-39.5066
-39.5564
-39.5693
-39.5374
-39.4605
-39.3464
-39.2093
-39.0667
-38.9364
-38.8338
-38.7689
-38.7451
-38.7587
-38.7991
-38.8507
-38.8955
-38.9154
-38.8963
-38.8303
-38.7177
-38.567
-38.3938
-38.2182
-38.062
-37.9463
-37.889
-37.9036
-37.9975
-38.1708
-38.4158
-38.7164
-39.0489
-39.3844
-36.3719
-36.9046
-37.3532
-37.7197
-38.0187
-38.2738
-38.5117
-38.7557
-39.0201
-39.3076
-39.6091
-39.9055
-40.1716
-40.3813
-40.5131
-40.5558
-40.5115
-40.3963
-40.2365
-40.0636
-39.9094
-39.8002
-39.7539
-39.7773
-39.865
-40.0005
-40.1589
-40.3104
-40.4254
-40.4799
-40.46
-40.3659
-40.2115
-40.021
-39.8241
-39.6507
-39.5259
-39.4665
-39.4784
-39.5556
-39.6817
-39.8316
-39.9757
-40.0846
-40.1341
-40.1107
-40.0143
-39.8585
-39.6673
-39.4699
-39.2958
-39.1699
-39.1085
-39.1174
-39.1908
-39.3121
-39.4563
-39.594
-39.6959
-39.7381
-39.7069
-39.6023
-39.4376
-39.2365
-39.028
-38.8413
-38.7007
-38.6225
-38.6121
-38.6634
-38.7598
-38.876
-38.9825
-39.0496
-39.0532
-38.9791
-38.827
-38.6103
-38.353
-38.086
-37.842
-37.652
-37.5424
-37.533
-37.6358
-37.8534
-38.177
-38.5854
-39.044
-39.5092
-36.7422
-37.3212
-37.7732
-38.1003
-38.3285
-38.5009
-38.6656
-38.8635
-39.1195
-39.4378
-39.8023
-40.1802
-40.5285
-40.8011
-40.9592
-40.9808
-40.8679
-40.6468
-40.3611
-40.0621
-39.7999
-39.6158
-39.5377
-39.5753
-39.7197
-39.9442
-40.2089
-40.4655
-40.6647
-40.7653
-40.7432
-40.5985
-40.3553
-40.0549
-39.7464
-39.4777
-39.2889
-39.2064
-39.2396
-39.3791
-39.5985
-39.858
-40.1097
-40.305
-40.403
-40.3798
-40.2354
-39.9937
-39.6953
-39.389
-39.1221
-38.9341
-38.8513
-38.8827
-39.0189
-39.2338
-39.4877
-39.733
-39.9215
-40.0124
-39.9821
-39.8305
-39.581
-39.2742
-38.9581
-38.6796
-38.4777
-38.3783
-38.39
-38.5033
-38.6917
-38.9152
-39.126
-39.2753
-39.3216
-39.2401
-39.0295
-38.7117
-38.3261
-37.9205
-37.5441
-37.2418
-37.0512
-37.0007
-37.1088
-37.3829
-37.8162
-38.3817
-39.0297
-39.6914
-37.2673
-37.9208
-38.3732
-38.6232
-38.7187
-38.7393
-38.7717
-38.8878
-39.1294
-39.5017
-39.9762
-40.4979
-40.9942
-41.386
-41.6022
-41.5996
-41.3801
-40.9903
-40.5049
-40.0079
-39.5779
-39.2792
-39.1547
-39.2196
-39.4589
-39.8304
-40.2708
-40.7033
-41.0461
-41.2274
-41.2031
-40.9731
-40.5817
-40.1007
-39.6112
-39.1898
-38.8988
-38.7798
-38.8478
-39.0876
-39.4577
-39.8955
-40.325
-40.6657
-40.8463
-40.8233
-40.5967
-40.2103
-39.735
-39.2513
-38.8347
-38.547
-38.4296
-38.4968
-38.7339
-39.0994
-39.5312
-39.9539
-40.2876
-40.4613
-40.432
-40.1994
-39.8071
-39.3254
-38.8338
-38.4074
-38.1072
-37.9739
-38.0216
-38.2352
-38.5728
-38.9724
-39.3581
-39.6491
-39.7738
-39.687
-39.3861
-38.9108
-38.3277
-37.7128
-37.1393
-36.6707
-36.3582
-36.24
-36.3424
-36.6832
-37.2648
-38.0591
-38.9953
-39.9621
-38.0197
-38.8101
-39.2649
-39.3688
-39.2167
-38.9608
-38.7576
-38.7313
-38.9511
-39.4186
-40.0822
-40.852
-41.6108
-42.2238
-42.5601
-42.531
-42.1378
-41.4716
-40.6657
-39.8572
-39.1668
-38.692
-38.499
-38.6129
-39.0079
-39.6173
-40.3444
-41.0701
-41.6603
-41.9859
-41.9591
-41.5802
-40.937
-40.1586
-39.3783
-38.714
-38.2609
-38.0842
-38.2085
-38.6087
-39.2193
-39.9449
-40.6682
-41.2568
-41.583
-41.5601
-41.1884
-40.5548
-39.787
-39.017
-38.3616
-37.915
-37.7418
-37.8665
-38.264
-38.8693
-39.5879
-40.3032
-40.8837
-41.2028
-41.1743
-40.7986
-40.1618
-39.3906
-38.6159
-37.9533
-37.4963
-37.3087
-37.4144
-37.7881
-38.3648
-39.0497
-39.7262
-40.2625
-40.5305
-40.4422
-39.9936
-39.265
-38.375
-37.4456
-36.5831
-35.8745
-35.3855
-35.1613
-35.2328
-35.6365
-36.407
-37.5322
-38.9166
-40.3743
-39.1029
-40.1827
-40.662
-40.483
-39.8645
-39.1063
-38.4888
-38.2209
-38.4161
-39.0532
-40.0356
-41.2221
-42.4373
-43.4602
-44.0444
-43.9868
-43.2885
-42.1542
-40.8304
-39.5364
-38.4456
-37.699
-37.4015
-37.6016
-38.2482
-39.2349
-40.42
-41.632
-42.6558
-43.2518
-43.2224
-42.568
-41.4872
-40.2194
-38.9786
-37.9342
-37.2252
-36.955
-37.1722
-37.827
-38.8153
-39.9979
-41.2055
-42.226
-42.8223
-42.7993
-42.1572
-41.0925
-39.8422
-38.6179
-37.5877
-36.8892
-36.625
-36.8433
-37.4948
-38.4762
-39.6494
-40.8463
-41.8564
-42.4445
-42.4168
-41.7736
-40.7099
-39.4608
-38.2363
-37.2031
-36.4975
-36.221
-36.4212
-37.0488
-38.0007
-39.139
-40.2962
-41.2618
-41.8003
-41.716
-41.0044
-39.8512
-38.4791
-37.0818
-35.8054
-34.762
-34.0312
-33.657
-33.6444
-34.0617
-35.0384
-36.6317
-38.7324
-41.0215
-40.637
-42.4201
-43.0071
-42.2303
-40.7137
-39.0494
-37.7165
-37.0437
-37.2448
-38.1906
-39.6951
-41.551
-43.5408
-45.3286
-46.4529
-46.3654
-45.0673
-43.11
-40.9521
-38.9233
-37.2285
-36.0596
-35.5876
-35.9473
-36.9989
-38.5668
-40.4571
-42.465
-44.2674
-45.4184
-45.3856
-44.1701
-42.3067
-40.2416
-38.2959
-36.6715
-35.5577
-35.1243
-35.5055
-36.5652
-38.1317
-40.0147
-42.0125
-43.8058
-44.9538
-44.9298
-43.7347
-41.8976
-39.8598
-37.9394
-36.3362
-35.2381
-34.8136
-35.1962
-36.2507
-37.8071
-39.6765
-41.6586
-43.4367
-44.5732
-44.5453
-43.3542
-41.5249
-39.4954
-37.5814
-35.981
-34.8806
-34.447
-34.8124
-35.8425
-37.368
-39.201
-41.1421
-42.876
-43.9668
-43.8931
-42.6509
-40.7524
-38.6191
-36.5439
-34.6919
-33.1993
-32.1634
-31.6316
-31.437
-31.6811
-32.782
-35.0002
-38.2766
-42.0797
-42.6141
-46.3798
-47.3161
-45.0426
-41.7756
-38.5153
-35.9938
-34.6081
-35.0012
-36.5237
-38.8487
-41.6871
-44.9355
-48.1525
-50.6065
-50.4874
-47.7954
-44.3545
-40.8882
-37.8291
-35.2543
-33.4169
-32.576
-33.297
-35.006
-37.4346
-40.3251
-43.5941
-46.8172
-49.2897
-49.2519
-46.7052
-43.417
-40.0916
-37.1509
-34.6736
-32.9106
-32.1204
-32.8621
-34.5735
-36.9925
-39.8664
-43.1138
-46.315
-48.7731
-48.7465
-46.2368
-42.9918
-39.7085
-36.8042
-34.3574
-32.6171
-31.8401
-32.5814
-34.2837
-36.6873
-39.5412
-42.7647
-45.941
-48.3785
-48.3489
-45.8538
-42.6282
-39.3638
-36.4748
-34.039
-32.3032
-31.5223
-32.2465
-33.9226
-36.2925
-39.1072
-42.2862
-45.416
-47.8101
-47.7528
-45.2424
-41.9915
-38.6756
-35.6843
-33.0609
-30.9789
-29.5694
-29.1209
-28.598
-28.0664
-28.9165
-31.8451
-37.062
-43.9039
-44.052
-54.4136
-56.2466
-49.285
-42.8276
-36.9175
-32.6357
-29.611
-31.1315
-33.7014
-37.2633
-41.2327
-46.3756
-52.0752
-58.4654
-58.3147
-51.6022
-45.6358
-40.2382
-36.0375
-32.2184
-29.3394
-27.3154
-29.2239
-31.9772
-35.6372
-39.6482
-44.7894
-50.4479
-56.7762
-56.7311
-50.3083
-44.5809
-39.3879
-35.3384
-31.6473
-28.8627
-26.9107
-28.8224
-31.5627
-35.1984
-39.1804
-44.2818
-49.8942
-56.1705
-56.1392
-49.7979
-44.1412
-39.0113
-35.0101
-31.3616
-28.6087
-26.6801
-28.583
-31.3069
-34.919
-38.8738
-43.9388
-49.509
-55.7364
-55.7026
-49.4053
-43.7872
-38.6914
-34.7155
-31.089
-28.351
-26.4299
-28.3099
-31.0034
-34.5765
-38.4886
-43.5011
-49.0152
-55.1832
-55.1447
-48.9002
-43.3238
-38.2646
-34.2948
-30.6501
-27.79
-25.5918
-26.7172
-25.7715
-22.4621
-22.0576
-25.3948
-33.5073
-47.26
-38.262
-74.7286
-77.8384
-52.799
-43.0911
-32.9747
-27.4674
-18.0689
-25.7509
-29.4505
-35.0911
-39.0885
-47.0142
-55.0036
-75.7433
-75.5911
-54.3347
-46.098
-37.8646
-33.6968
-27.8285
-24.031
-16.392
-23.9341
-27.6432
-33.3342
-37.3439
-45.24
-53.114
-73.4406
-73.3943
-52.91
-44.9754
-37.0374
-33.0102
-27.3157
-23.616
-16.1372
-23.5896
-27.2627
-32.9056
-36.8827
-44.7142
-52.5173
-72.6508
-72.6182
-52.3731
-44.5322
-36.6888
-32.7082
-27.076
-23.4135
-16.0026
-23.4025
-27.0509
-32.6573
-36.6076
-44.3854
-52.1305
-72.1104
-72.0759
-51.9786
-44.1941
-36.4063
-32.453
-26.8596
-23.2221
-15.864
-23.2019
-26.8174
-32.3723
-36.2856
-43.9933
-51.6727
-71.4936
-71.4731
-51.5955
-43.9114
-36.2848
-32.4371
-27.1094
-23.6481
-16.8284
-27.2962
-26.3502
-12.6758
-9.81094
-12.0677
-21.8302
-53.8031
-39.2864
-39.3997
-39.4815
-39.5263
-39.5322
-39.5014
-39.4389
-39.3522
-39.2501
-39.1418
-39.0362
-38.9413
-38.864
-38.8095
-38.7814
-39.3086
-39.431
-39.5185
-39.565
-39.5689
-39.5329
-39.463
-39.3675
-39.2562
-39.139
-39.0253
-38.9237
-38.8411
-38.783
-38.753
-39.3553
-39.4971
-39.5963
-39.6461
-39.6454
-39.5982
-39.5124
-39.3985
-39.268
-39.1324
-39.0023
-38.8868
-38.7936
-38.7282
-38.6946
-39.4321
-39.6055
-39.7234
-39.7776
-39.7682
-39.7018
-39.5898
-39.446
-39.2849
-39.1203
-38.9644
-38.8276
-38.718
-38.6416
-38.6024
-39.5483
-39.7694
-39.914
-39.9727
-39.9479
-39.8509
-39.6988
-39.5106
-39.3051
-39.0992
-38.9073
-38.741
-38.609
-38.5176
-38.471
-39.7192
-40.0097
-40.1904
-40.2512
-40.1995
-40.0551
-39.8438
-39.5924
-39.3255
-39.064
-38.8246
-38.6199
-38.4592
-38.3488
-38.2927
-39.9698
-40.3595
-40.5866
-40.6419
-40.5437
-40.3261
-40.0288
-39.6895
-39.3404
-39.0066
-38.7069
-38.4547
-38.2589
-38.1256
-38.0581
-40.3404
-40.8719
-41.1544
-41.1861
-41.007
-40.6765
-40.2555
-39.7964
-39.3398
-38.915
-38.5417
-38.2328
-37.9961
-37.8363
-37.7559
-40.8994
-41.6329
-41.973
-41.941
-41.6217
-41.1174
-40.5202
-39.9006
-39.3073
-38.7717
-38.312
-37.9386
-37.6563
-37.4676
-37.3731
-41.7665
-42.7874
-43.1635
-42.983
-42.421
-41.6511
-40.8071
-39.9782
-39.2171
-38.5522
-37.996
-37.5529
-37.2229
-37.0044
-36.8956
-43.1655
-44.5865
-44.9103
-44.4064
-43.4282
-42.2587
-41.0789
-39.9877
-39.0308
-38.2237
-37.5668
-37.054
-36.6779
-36.4313
-36.3093
-45.5474
-47.4827
-47.4848
-46.3039
-44.6265
-42.8764
-41.2619
-39.8628
-38.6945
-37.7448
-36.9932
-36.4185
-36.0031
-35.7334
-35.6008
-49.9187
-52.3117
-51.2419
-48.6978
-45.8973
-43.3582
-41.2294
-39.507
-38.1393
-37.0679
-36.2425
-35.6236
-35.1823
-34.8985
-34.7596
-58.8299
-60.6035
-56.473
-51.348
-46.9063
-43.4297
-40.7901
-38.7965
-37.2876
-36.1449
-35.285
-34.6509
-34.2039
-33.9184
-33.7793
-79.813
-74.7982
-62.6984
-53.3146
-46.95
-42.6639
-39.7047
-37.6011
-36.0697
-34.9387
-34.1017
-33.4911
-33.0637
-32.7919
-32.6599
-20.7445
-20.7772
-20.844
-20.9478
-21.0935
-21.2894
-21.5493
-21.8965
-22.3729
-23.0588
-24.1205
-25.9304
-29.3695
-36.4029
-49.1141
-19.8235
-19.8433
-19.8833
-19.9444
-20.0284
-20.1382
-20.2789
-20.4601
-20.7008
-21.0428
-21.5901
-22.6434
-25.2683
-34.1325
-73.7332
-18.8888
-18.8953
-18.9078
-18.9252
-18.9455
-18.9656
-18.9805
-18.9824
-18.9583
-18.8845
-18.7084
-18.2657
-16.836
-10.5092
24.4397
-17.9497
-17.9433
-17.9291
-17.904
-17.8627
-17.7966
-17.6912
-17.5229
-17.2503
-16.7972
-16.0122
-14.5739
-11.8059
-6.76218
-3.41263
-17.015
-16.9967
-16.9579
-16.8941
-16.7973
-16.6548
-16.4456
-16.1358
-15.6678
-14.9404
-13.7696
-11.8058
-8.35659
-1.83825
13.4468
-16.0931
-16.0643
-16.0041
-15.907
-15.7638
-15.5593
-15.27
-14.8587
-14.2653
-13.3918
-12.0775
-10.0694
-7.03873
-3.00207
-1.46383
-15.1912
-15.1537
-15.0759
-14.9521
-14.7727
-14.5226
-14.1792
-13.708
-13.0574
-12.1492
-10.8675
-9.04293
-6.41954
-2.43064
5.58185
-14.3154
-14.2711
-14.1797
-14.0359
-13.8308
-13.5509
-13.177
-12.682
-12.0283
-11.1661
-10.0343
-8.57131
-6.74861
-4.65315
-2.6962
-13.4705
-13.4211
-13.3199
-13.1624
-12.9408
-12.6445
-12.259
-11.7662
-11.144
-10.3702
-9.43128
-8.34947
-7.26711
-6.77926
-9.61522
-12.6599
-12.607
-12.4994
-12.3332
-12.1026
-11.7999
-11.4157
-10.9401
-10.365
-9.68895
-8.92748
-8.12803
-7.37275
-6.59694
-3.91804
-11.886
-11.831
-11.7196
-11.5489
-11.3146
-11.012
-10.6359
-10.1833
-9.65604
-9.06708
-8.45006
-7.87593
-7.49266
-7.73603
-10.9461
-11.1502
-11.0942
-10.981
-10.8086
-10.5742
-10.275
-9.90925
-9.47825
-8.98998
-8.4647
-7.94288
-7.4913
-7.17741
-6.81474
-4.09816
-10.4535
-10.3971
-10.2836
-10.1114
-9.87878
-9.58429
-9.22791
-8.81301
-8.34965
-7.85993
-7.38692
-7.01108
-6.89604
-7.52796
-11.4689
-9.79584
-9.7397
-9.62682
-9.45612
-9.22633
-8.93657
-8.58721
-8.18143
-7.72763
-7.24358
-6.7635
-6.34976
-6.09594
-5.94311
-3.6865
-9.17721
-9.12173
-9.01026
-8.84191
-8.61555
-8.33024
-7.98571
-7.58321
-7.12664
-6.62446
-6.09401
-5.57739
-5.22571
-5.81912
-12.2269
-8.59711
-8.54264
-8.43322
-8.26798
-8.04572
-7.76504
-7.42448
-7.02254
-6.55731
-6.025
-5.41493
-4.69048
-3.69918
-1.65727
6.17939
-8.05485
-8.0017
-7.89495
-7.73366
-7.51646
-7.24143
-6.90588
-6.50583
-6.03457
-5.47953
-4.81529
-3.98888
-2.90224
-1.51954
-1.36871
-7.5495
-7.498
-7.39454
-7.23817
-7.02737
-6.75984
-6.43209
-6.03858
-5.56999
-5.00991
-4.32826
-3.46801
-2.31088
-0.526313
3.48616
-7.07992
-7.03038
-6.93088
-6.78048
-6.57767
-6.32006
-6.00396
-5.62346
-5.16896
-4.62471
-3.96525
-3.1533
-2.15525
-1.08027
-1.17073
-6.64473
-6.59747
-6.50256
-6.3592
-6.16603
-5.92091
-5.62054
-5.25971
-4.83027
-4.3195
-3.70812
-2.96783
-2.05302
-0.824932
1.62338
-6.24237
-6.19764
-6.10788
-5.9725
-5.79045
-5.56014
-5.2791
-4.94361
-4.54805
-4.08416
-3.54052
-2.90354
-2.16834
-1.41703
-1.39611
-5.87107
-5.82907
-5.74489
-5.61819
-5.44838
-5.23458
-4.97548
-4.66923
-4.31327
-3.9042
-3.43773
-2.90743
-2.29485
-1.50199
0.0885979
-5.52893
-5.48978
-5.41143
-5.29382
-5.13687
-4.94047
-4.70459
-4.42936
-4.11535
-3.7641
-3.37926
-2.96846
-2.54654
-2.14103
-1.81179
-5.21398
-5.17769
-5.10522
-4.99677
-4.85273
-4.67377
-4.46102
-4.21642
-3.94327
-3.64732
-3.3388
-3.03719
-2.78684
-2.72721
-3.48354
-4.92421
-4.89073
-4.82398
-4.72442
-4.59283
-4.43052
-4.23957
-4.0233
-3.78703
-3.53927
-3.29352
-3.07033
-2.89466
-2.74686
-2.15146
-4.65768
-4.62687
-4.56553
-4.47429
-4.35425
-4.20715
-4.03568
-3.84404
-3.63875
-3.42981
-3.23256
-3.07047
-2.98314
-3.07747
-3.93501
-4.41254
-4.38419
-4.32781
-4.24416
-4.13446
-4.00068
-3.84578
-3.67427
-3.49298
-3.31221
-3.14717
-3.01867
-2.94545
-2.8782
-2.22232
-4.18708
-4.16095
-4.10903
-4.03209
-3.93139
-3.80886
-3.6674
-3.51127
-3.34684
-3.18368
-3.03641
-2.92848
-2.9036
-3.08787
-4.14595
-3.97976
-3.9556
-3.90761
-3.83651
-3.74346
-3.63018
-3.49918
-3.35402
-3.19981
-3.04409
-2.8983
-2.7806
-2.7165
-2.69089
-2.12469
-3.78919
-3.76677
-3.72222
-3.65615
-3.56955
-3.46379
-3.34077
-3.20302
-3.05383
-2.89758
-2.74067
-2.59548
-2.50266
-2.66952
-4.38997
-3.61419
-3.59329
-3.55175
-3.49004
-3.40892
-3.30936
-3.19259
-3.05995
-2.91271
-2.75152
-2.57489
-2.37397
-2.10849
-1.56946
0.507883
-3.45366
-3.43413
-3.39526
-3.3374
-3.26107
-3.16687
-3.0554
-2.92699
-2.78126
-2.61617
-2.42596
-2.19726
-1.90427
-1.53795
-1.5096
-3.30668
-3.28839
-3.25193
-3.19756
-3.1256
-3.03635
-2.92995
-2.80603
-2.66324
-2.49822
-2.30375
-2.06516
-1.75096
-1.272
-0.196108
-3.17239
-3.15523
-3.12102
-3.06991
-3.00211
-2.91773
-2.81663
-2.69815
-2.56064
-2.40068
-2.21216
-1.98555
-1.71203
-1.4209
-1.4468
-3.04998
-3.03389
-3.0018
-2.95383
-2.89011
-2.81068
-2.71535
-2.60347
-2.47359
-2.32297
-2.14699
-1.93848
-1.68532
-1.34995
-0.687378
-2.93871
-2.92365
-2.89359
-2.84867
-2.78899
-2.71465
-2.62554
-2.52126
-2.40091
-2.26282
-2.1044
-1.92237
-1.71569
-1.50655
-1.49599
-2.83787
-2.82378
-2.79569
-2.75371
-2.69804
-2.62884
-2.54623
-2.45019
-2.34052
-2.21677
-2.07816
-1.92335
-1.74775
-1.52561
-1.09298
-2.74679
-2.73362
-2.70738
-2.66824
-2.61644
-2.55231
-2.4762
-2.38855
-2.28989
-2.18099
-2.06315
-1.93874
-1.8121
-1.69119
-1.59387
-2.66482
-2.65251
-2.62801
-2.59152
-2.54339
-2.48407
-2.41417
-2.33453
-2.24634
-2.15139
-2.05267
-1.95564
-1.87246
-1.84077
-2.02721
-2.59136
-2.57984
-2.55692
-2.52286
-2.47807
-2.42313
-2.35887
-2.28642
-2.20743
-2.12438
-2.04099
-1.96289
-1.89703
-1.83923
-1.66845
-2.52588
-2.51505
-2.49353
-2.46161
-2.41976
-2.36864
-2.30921
-2.2428
-2.17133
-2.09756
-2.0256
-1.96162
-1.91598
-1.91654
-2.11275
-2.46788
-2.45765
-2.43733
-2.40723
-2.36785
-2.3199
-2.26437
-2.20268
-2.13677
-2.06945
-2.00465
-1.94757
-1.90283
-1.85837
-1.66921
-2.41696
-2.40722
-2.38788
-2.35926
-2.32186
-2.27637
-2.22378
-2.16543
-2.10317
-2.03956
-1.97829
-1.92492
-1.88945
-1.9011
-2.11848
-2.37277
-2.36341
-2.34484
-2.31736
-2.28144
-2.23774
-2.18715
-2.13087
-2.07045
-2.008
-1.94641
-1.88982
-1.84333
-1.80138
-1.62954
-2.33503
-2.32596
-2.30795
-2.28128
-2.24638
-2.20385
-2.15444
-2.09914
-2.03911
-1.97581
-1.91103
-1.84766
-1.79402
-1.79232
-2.11051
-2.30356
-2.29468
-2.27703
-2.25088
-2.2166
-2.17469
-2.12579
-2.07064
-2.01001
-1.94461
-1.87464
-1.79871
-1.70863
-1.56153
-1.10196
-2.27822
-2.26944
-2.25199
-2.22608
-2.19206
-2.15034
-2.10144
-2.0459
-1.98419
-1.91652
-1.84236
-1.75953
-1.66281
-1.54821
-1.48485
-2.25894
-2.25019
-2.23277
-2.20689
-2.17282
-2.13095
-2.08167
-2.0254
-1.96247
-1.8929
-1.81607
-1.72994
-1.62939
-1.49979
-1.2755
-2.24571
-2.2369
-2.21939
-2.19333
-2.15898
-2.11665
-2.0667
-2.00949
-1.94531
-1.87428
-1.79618
-1.71034
-1.6161
-1.51763
-1.4587
-2.23854
-2.22963
-2.21189
-2.18548
-2.15062
-2.1076
-2.05673
-1.99838
-1.93287
-1.86052
-1.78163
-1.69654
-1.60571
-1.50853
-1.38898
-2.23752
-2.22845
-2.21038
-2.18346
-2.1479
-2.10395
-2.05193
-1.99218
-1.92512
-1.85127
-1.77135
-1.68667
-1.59968
-1.51548
-1.44832
-2.24275
-2.23347
-2.21497
-2.1874
-2.15095
-2.10586
-2.05243
-1.99102
-1.92206
-1.84617
-1.76434
-1.67837
-1.59169
-1.51112
-1.45171
-2.25438
-2.24484
-2.22582
-2.19746
-2.15995
-2.11351
-2.05844
-1.99506
-1.92376
-1.84514
-1.76015
-1.67052
-1.57943
-1.4926
-1.42324
-2.2726
-2.26275
-2.24312
-2.21384
-2.17509
-2.12712
-2.07018
-2.00454
-1.93051
-1.84849
-1.75913
-1.66365
-1.56416
-1.46248
-1.34664
-2.29761
-2.28741
-2.26707
-2.23673
-2.19661
-2.14692
-2.08791
-2.0198
-1.94276
-1.85689
-1.76232
-1.65953
-1.55038
-1.44275
-1.38014
-2.32967
-2.31906
-2.29791
-2.26638
-2.22471
-2.17314
-2.11191
-2.04122
-1.96109
-1.87127
-1.77117
-1.65977
-1.53551
-1.39229
-1.1797
-2.36906
-2.35797
-2.33591
-2.30304
-2.25964
-2.20601
-2.14244
-2.06915
-1.9861
-1.89276
-1.78781
-1.66891
-1.53376
-1.39055
-1.33129
-2.41609
-2.40447
-2.38136
-2.34697
-2.30163
-2.24573
-2.17968
-2.10382
-2.0182
-1.92225
-1.81411
-1.68929
-1.53759
-1.33105
-0.942173
-2.47114
-2.45891
-2.43459
-2.39845
-2.3509
-2.29245
-2.22369
-2.14521
-2.05742
-1.96017
-1.85194
-1.72828
-1.57947
-1.39872
-1.31422
-2.53464
-2.5217
-2.49599
-2.45782
-2.40769
-2.34627
-2.2744
-2.19303
-2.10317
-2.00565
-1.90045
-1.78468
-1.6435
-1.40012
-0.596462
-2.60708
-2.59332
-2.56598
-2.52544
-2.47228
-2.40731
-2.33165
-2.24668
-2.1542
-2.05642
-1.95627
-1.85867
-1.77848
-1.79115
-2.3737
-2.68902
-2.67431
-2.64509
-2.60177
-2.54501
-2.47574
-2.3953
-2.30551
-2.20885
-2.10878
-2.01025
-1.92053
-1.84895
-1.78698
-1.5025
-2.78113
-2.76534
-2.73395
-2.6874
-2.62637
-2.55188
-2.46541
-2.36905
-2.26582
-2.16003
-2.05808
-1.96975
-1.91271
-1.9379
-2.31897
-2.88416
-2.86714
-2.8333
-2.78303
-2.71703
-2.6363
-2.54233
-2.43733
-2.3245
-2.20857
-2.0964
-1.9972
-1.91932
-1.84225
-1.51493
-2.99897
-2.98058
-2.94399
-2.88955
-2.81787
-2.72985
-2.62688
-2.51099
-2.38529
-2.25446
-2.12566
-2.0098
-1.92532
-1.92095
-2.25567
-3.12649
-3.10663
-3.06703
-3.008
-2.93
-2.83375
-2.72034
-2.59142
-2.44958
-2.2989
-2.14588
-2.00057
-1.87566
-1.76474
-1.45686
-3.26776
-3.24632
-3.20353
-3.13957
-3.05475
-2.94951
-2.82451
-2.68078
-2.51996
-2.34491
-2.1607
-1.97712
-1.81626
-1.74587
-2.0619
-3.42388
-3.40079
-3.35467
-3.28558
-3.19363
-3.07895
-2.94166
-2.78195
-2.60018
-2.39722
-2.17503
-1.93784
-1.69399
-1.45922
-1.26884
-3.59598
-3.57122
-3.52171
-3.44741
-3.34826
-3.22403
-3.07432
-2.89838
-2.69508
-2.46285
-2.19975
-1.90314
-1.56538
-1.1423
-0.343629
-3.78522
-3.75879
-3.70591
-3.62647
-3.52025
-3.38678
-3.22515
-3.03377
-2.81001
-2.54986
-2.24769
-1.89697
-1.496
-1.08677
-1.03842
-3.99278
-3.9647
-3.9085
-3.82407
-3.71111
-3.56902
-3.39659
-3.19159
-2.95017
-2.666
-2.3293
-1.92565
-1.43231
-0.781179
0.474917
-4.21978
-4.19008
-4.13065
-4.04143
-3.92217
-3.7723
-3.5906
-3.37465
-3.11996
-2.81859
-2.45734
-2.01657
-1.47817
-0.896252
-0.898576
-4.46737
-4.43605
-4.37345
-4.27959
-4.15442
-3.99763
-3.80835
-3.58457
-3.32211
-3.01272
-2.64057
-2.17525
-1.55422
-0.606141
1.48535
-4.73665
-4.7037
-4.63791
-4.53946
-4.4086
-4.24549
-4.05001
-3.8213
-3.55681
-3.2504
-2.88846
-2.44203
-1.85735
-1.1106
-0.983346
-5.02877
-4.99412
-4.925
-4.8218
-4.68512
-4.51577
-4.31471
-4.08284
-3.82056
-3.52659
-3.19497
-2.80477
-2.273
-1.18539
2.94128
-5.34491
-5.30842
-5.2357
-5.12733
-4.98428
-4.80802
-4.60074
-4.36546
-4.10628
-3.82888
-3.54211
-3.2658
-3.07463
-3.37115
-6.70239
-5.68635
-5.64784
-5.57113
-5.45691
-5.30644
-5.12179
-4.90619
-4.66462
-4.4046
-4.13764
-3.88196
-3.66766
-3.53755
-3.44996
-2.22548
-6.05448
-6.01374
-5.93254
-5.81161
-5.6523
-5.45699
-5.22962
-4.97655
-4.70771
-4.43852
-4.19304
-4.01101
-3.97093
-4.31877
-6.40865
-6.45087
-6.40768
-6.32151
-6.19293
-6.02313
-5.8144
-5.57086
-5.29938
-5.01103
-4.72289
-4.46003
-4.25574
-4.13491
-3.97829
-2.53283
-6.8772
-6.83142
-6.73988
-6.60282
-6.42093
-6.19596
-5.93145
-5.63387
-5.31418
-4.98966
-4.68632
-4.44248
-4.32373
-4.5333
-6.29239
-7.33528
-7.28688
-7.18983
-7.04379
-6.84861
-6.60493
-6.31495
-5.98369
-5.62062
-5.24169
-4.87125
-4.54234
-4.28453
-4.01268
-2.63451
-7.82692
-7.77608
-7.67375
-7.51883
-7.30994
-7.04601
-6.72708
-6.35555
-5.93805
-5.48779
-5.02729
-4.5928
-4.25506
-4.26081
-5.94536
-8.35383
-8.30097
-8.19416
-8.03129
-7.80944
-7.52525
-7.17569
-6.75928
-6.27818
-5.74096
-5.16524
-4.57604
-3.98703
-3.34353
-2.5004
-8.9174
-8.86329
-8.75345
-8.58467
-8.35218
-8.04984
-7.67067
-7.20791
-6.65726
-6.02081
-5.31253
-4.5591
-3.75685
-2.56531
1.52995
-9.51849
-9.46425
-9.35363
-9.18225
-8.94337
-8.62774
-8.22365
-7.71753
-7.09587
-6.35049
-5.49113
-4.576
-3.79697
-3.80392
-7.40859
-10.1572
-10.1043
-9.99595
-9.82666
-9.58781
-9.26702
-8.84746
-8.30733
-7.62034
-6.75928
-5.70842
-4.49834
-3.29119
-2.54512
-3.03744
-10.8326
-10.7829
-10.6805
-10.5193
-10.2891
-9.97484
-9.55493
-8.99908
-8.26566
-7.29982
-6.03624
-4.41856
-2.46497
-0.427318
0.991947
-11.5424
-11.498
-11.406
-11.2598
-11.0487
-10.756
-10.3568
-9.81409
-9.07233
-8.04707
-6.60989
-4.57203
-1.69687
2.11897
6.00703
-12.283
-12.246
-12.1689
-12.0454
-11.865
-11.611
-11.2582
-10.7673
-10.0758
-9.08032
-7.60062
-5.30691
-1.58178
4.61417
13.7222
-13.0494
-13.0218
-12.964
-12.8705
-12.7322
-12.5347
-12.2555
-11.8597
-11.2904
-10.4498
-9.15657
-7.03579
-3.18229
5.08611
27.7625
-156.975
-94.3044
-65.9141
-52.3496
-45.0847
-40.7453
-37.9254
-35.9806
-34.586
-33.5635
-32.8094
-32.26
-31.8755
-31.6312
-31.5124
-195.318
-88.2352
-58.5412
-47.0974
-41.3569
-37.9459
-35.7
-34.1253
-32.9786
-32.1269
-31.4922
-31.0261
-30.698
-30.4887
-30.3867
50.5202
-28.4276
-38.4941
-37.8844
-36.0114
-34.3372
-33.0084
-31.9727
-31.1662
-30.5396
-30.0578
-29.6963
-29.438
-29.2716
-29.1901
-7.35972
-16.4551
-25.8609
-29.5484
-30.5277
-30.4884
-30.113
-29.6608
-29.2287
-28.8516
-28.5398
-28.2946
-28.114
-27.9954
-27.9367
27.8079
-4.26806
-17.1985
-23.0931
-25.7512
-26.873
-27.2709
-27.3347
-27.253
-27.118
-26.9755
-26.8481
-26.747
-26.6776
-26.6424
-1.48134
-5.37744
-13.4223
-18.8854
-22.0413
-23.7603
-24.6607
-25.1097
-25.3142
-25.3897
-25.4006
-25.3831
-25.3577
-25.3359
-25.3236
12.2243
-3.60669
-11.4389
-16.2798
-19.3292
-21.2159
-22.364
-23.0543
-23.4649
-23.7061
-23.8453
-23.9235
-23.966
-23.9874
-23.9963
-3.36575
-7.39158
-11.5328
-14.9182
-17.4246
-19.1842
-20.3851
-21.193
-21.7333
-22.0933
-22.3321
-22.4888
-22.5887
-22.6476
-22.675
-16.1602
-11.0973
-12.1515
-14.167
-16.0384
-17.5406
-18.6789
-19.5176
-20.1266
-20.5645
-20.8759
-21.0935
-21.2397
-21.3297