/*--------------------------------*- C++ -*----------------------------------*\
| =========                 |                                                 |
| \\      /  F ield         | OpenFOAM: The Open Source CFD Toolbox           |
|  \\    /   O peration     | Version:  5.x                                   |
|   \\  /    A nd           | Web:      www.OpenFOAM.org                      |
|    \\/     M anipulation  |                                                 |
\*---------------------------------------------------------------------------*/
FoamFile
{
    version     2.0;
    format      ascii;
    class       volScalarField;
    location    "2";
    object      gradTy;
}
// * * * * * * * * * * * * * * * * * * * * * * * * * * * * * * * * * * * * * //

dimensions      [0 -1 0 1 0 0 0];

internalField   nonuniform List<scalar> 
6300
(
32285.3
32255.8
32226.3
32196.6
32166.6
32136.4
32105.7
32074.7
32043.2
32011.2
31978.7
31945.6
31911.9
31877.6
31842.8
0.0513728
0.153643
0.254462
0.352758
0.447315
0.536722
0.619367
0.693447
0.757037
0.808199
0.845167
0.866576
0.871737
0.860893
0.835403
0.0861368
0.257658
0.426869
0.592044
0.751192
0.901986
1.04172
1.16731
1.27543
1.36264
1.42575
1.46218
1.47049
1.45089
1.40564
0.121655
0.363991
0.603322
0.837367
1.06344
1.27833
1.47822
1.65868
1.81475
1.94122
2.03304
2.08593
2.09719
2.0666
1.99719
0.158147
0.473329
0.785063
1.09066
1.38688
1.66968
1.93417
2.17443
2.38367
2.55446
2.67927
2.75132
2.76575
2.72112
2.62088
0.195749
0.586118
0.972941
1.35335
1.72372
2.07937
2.41434
2.72121
2.99105
3.2137
3.37828
3.47432
3.49337
3.43127
3.29083
0.234484
0.702452
1.16724
1.62608
2.07528
2.50974
2.92263
3.30501
3.64564
3.931
4.14584
4.27432
4.30214
4.21976
4.02691
0.274217
0.821972
1.36747
1.90847
2.44157
2.96168
3.46143
3.93058
4.3555
4.71884
4.99977
5.17499
5.22111
5.11875
4.85932
0.31463
0.943749
1.57221
2.19877
2.82087
3.43399
4.03084
4.6004
5.12694
5.58909
5.95941
6.20479
6.28855
6.17481
5.83672
0.355183
1.06618
1.77886
2.49353
3.20915
3.92258
4.62754
5.31325
5.96277
6.5512
7.044
7.39623
7.55351
7.45523
7.0405
0.3951
1.18695
1.98353
2.78734
3.59962
4.41966
5.24352
6.0623
6.85972
7.60896
8.26917
8.78261
9.07402
9.05207
8.60647
0.433372
1.30297
2.181
3.07266
3.98235
4.91294
5.86458
6.83271
7.80485
8.75576
9.64112
10.391
10.9078
11.0725
10.7427
0.468795
1.41055
2.36483
3.33998
4.3442
5.38517
6.46916
7.59915
8.77124
9.96814
11.1485
12.2326
13.0937
13.587
13.66
0.500049
1.50563
2.52781
3.57823
4.6693
5.8144
7.02777
8.3235
9.71282
11.1971
12.7521
14.297
15.6471
16.5213
17.0218
0.525825
1.58409
2.66256
3.77583
4.94037
6.1754
7.50402
8.95427
10.5595
12.3553
14.366
16.5559
18.6763
19.8281
17.5075
31810.3
31780.4
31750.2
31719.6
31688.8
31657.6
31626.1
31594.4
31562.5
31530.3
31498
31465.4
31432.7
31399.9
31367
31333.9
31300.8
31267.6
31234.4
31201.2
31167.9
31134.6
31101.3
31068
31034.7
31001.4
30968
30934.6
30901.3
30867.9
30834.5
30801.2
30767.9
30734.5
30701.3
30668
30634.8
30601.6
30568.4
30535.2
30502.1
30468.9
30435.8
30402.6
30369.5
30336.4
30303.3
30270.2
30237.2
30204.2
30171.2
30138.3
30105.4
30072.5
30039.7
30006.8
29974
29941.2
29908.4
29875.6
29842.8
29810.1
29777.4
29744.7
29712.1
29679.5
29647
29614.5
29582.1
29549.7
29517.3
29484.9
29452.6
29420.3
29388
29355.7
29323.5
29291.4
29259.2
29227.1
29195
29163
29130.9
29098.8
29066.7
29034.5
29002.2
28969.8
28937.3
28904.8
0.800884
0.763196
0.72136
0.677476
0.633304
0.590025
0.548125
0.507409
0.467165
0.42644
0.384356
0.34042
0.294741
0.248129
0.202027
0.158312
0.11898
0.0857937
0.0599562
0.0418808
0.0310951
0.0262966
0.0255458
0.0265638
0.0270844
0.0252051
0.0196808
0.01011
-0.00301704
-0.0184238
-0.0342902
-0.0485929
-0.0594814
-0.0656173
-0.0664175
-0.0621588
-0.0539318
-0.0434569
-0.032796
-0.0240085
-0.0188072
-0.0182709
-0.0226595
-0.031368
-0.0430291
-0.0557527
-0.0674611
-0.0762595
-0.0807707
-0.0803736
-0.0753059
-0.0666169
-0.0559839
-0.0454261
-0.0369621
-0.032269
-0.0323958
-0.0375806
-0.0472037
-0.059889
-0.0737413
-0.0866775
-0.0967928
-0.102692
-0.103722
-0.100074
-0.0927319
-0.0832847
-0.0736392
-0.0656741
-0.0608947
-0.0601414
-0.0634014
-0.0697564
-0.0774798
-0.0842747
-0.0876141
-0.0851288
-0.0749781
-0.056147
-0.0286326
0.00649621
0.0471633
0.0904611
0.132919
0.170842
0.200699
0.219519
0.225249
0.217026
1.34467
1.2784
1.20532
1.12937
1.05385
0.980927
0.91138
0.844624
0.779044
0.712535
0.643156
0.569732
0.492299
0.412302
0.332472
0.25643
0.188065
0.130831
0.087101
0.0577137
0.0417946
0.0368657
0.0392226
0.0445071
0.0483849
0.0472195
0.0386386
0.0218984
-0.0020175
-0.0305955
-0.0602616
-0.087048
-0.10733
-0.118493
-0.119397
-0.110578
-0.0941433
-0.0734198
-0.0523899
-0.035032
-0.0246585
-0.023359
-0.031641
-0.0483323
-0.0707738
-0.095283
-0.11781
-0.134665
-0.143173
-0.142137
-0.132027
-0.114883
-0.0939563
-0.0731542
-0.0563841
-0.0468952
-0.0467267
-0.0563494
-0.0745689
-0.0987161
-0.125105
-0.149684
-0.168752
-0.179612
-0.18102
-0.173372
-0.158602
-0.139821
-0.120753
-0.105079
-0.0957693
-0.0945251
-0.101408
-0.114731
-0.13124
-0.146565
-0.15588
-0.154646
-0.139323
-0.107922
-0.060342
0.00153155
0.0739592
0.151668
0.228331
0.297177
0.351686
0.386333
0.397278
0.382898
1.9041
1.80347
1.69346
1.5807
1.47071
1.36703
1.27068
1.18022
1.09233
1.00284
0.90786
0.804894
0.693634
0.576318
0.457548
0.343581
0.241214
0.156519
0.0936896
0.054253
0.0367711
0.037049
0.0487918
0.0645871
0.0770609
0.0800281
0.0694637
0.0441403
0.00581798
-0.0410755
-0.0902531
-0.13474
-0.168181
-0.186008
-0.186246
-0.169825
-0.140394
-0.103685
-0.0665553
-0.035856
-0.0172996
-0.014505
-0.0283675
-0.0568695
-0.0953937
-0.137519
-0.176178
-0.20494
-0.21917
-0.216817
-0.198727
-0.168447
-0.131599
-0.0949265
-0.0651714
-0.0479511
-0.0468095
-0.0625907
-0.093251
-0.134168
-0.178931
-0.22048
-0.25239
-0.270003
-0.271218
-0.256786
-0.230114
-0.196634
-0.162846
-0.135187
-0.118901
-0.117079
-0.130015
-0.154995
-0.186584
-0.217394
-0.239221
-0.244341
-0.226712
-0.182888
-0.112533
-0.0185326
0.0932457
0.214471
0.335087
0.444239
0.531356
0.587356
0.605847
0.58409
2.4866
2.34204
2.18558
2.02803
1.8785
1.74259
1.62151
1.5121
1.40793
1.30105
1.18407
1.05201
0.903692
0.74243
0.575714
0.41403
0.268919
0.150723
0.0665941
0.0191793
0.00617467
0.0207242
0.0525264
0.0894509
0.119427
0.132323
0.121542
0.0851003
0.0259951
-0.0482677
-0.127001
-0.198341
-0.251519
-0.278857
-0.277087
-0.247812
-0.197129
-0.134561
-0.0714672
-0.0192004
0.0127497
0.0183277
-0.00402105
-0.050983
-0.114836
-0.184759
-0.248807
-0.296152
-0.319056
-0.314172
-0.282993
-0.231482
-0.169002
-0.106751
-0.0559223
-0.0258679
-0.0225378
-0.0474205
-0.0971775
-0.164098
-0.237397
-0.305172
-0.356627
-0.384022
-0.383963
-0.357838
-0.311442
-0.253906
-0.196128
-0.14893
-0.121217
-0.118394
-0.141291
-0.185753
-0.24306
-0.301169
-0.346631
-0.366803
-0.351829
-0.296067
-0.198782
-0.0642047
0.0989213
0.278143
0.458347
0.623028
0.755827
0.842387
0.872368
0.841224
3.10148
2.89776
2.67926
2.46384
2.26666
2.09681
1.95555
1.83645
1.72742
1.61382
1.48201
1.32251
1.1324
0.916396
0.686631
0.460614
0.257863
0.0958664
-0.0133739
-0.0654499
-0.0641048
-0.02045
0.0488787
0.124315
0.186382
0.218704
0.210563
0.158688
0.0679896
-0.0490329
-0.174406
-0.288108
-0.37208
-0.413634
-0.40755
-0.35664
-0.270998
-0.166209
-0.0608063
0.0266931
0.0807559
0.0913553
0.0557481
-0.0207943
-0.125561
-0.240482
-0.345511
-0.422583
-0.458983
-0.449417
-0.396565
-0.310339
-0.206104
-0.102157
-0.0167868
0.0346692
0.0423311
0.00353947
-0.0764176
-0.184874
-0.303847
-0.413395
-0.495539
-0.537606
-0.534271
-0.488109
-0.408839
-0.311553
-0.214201
-0.134644
-0.0877157
-0.0826998
-0.121535
-0.198039
-0.298406
-0.403174
-0.490482
-0.539892
-0.535702
-0.469056
-0.338747
-0.151003
0.0814049
0.340388
0.603947
0.847714
1.04687
1.17888
1.22691
1.18319
3.76184
3.47477
3.16852
2.87339
2.61545
2.40988
2.25766
2.1463
2.05348
1.95281
1.8198
1.63712
1.39837
1.11018
0.792148
0.47369
0.188117
-0.0349647
-0.175665
-0.227012
-0.195318
-0.0986022
0.0364288
0.178421
0.29616
0.363344
0.36255
0.28817
0.147879
-0.0377872
-0.23863
-0.420704
-0.553738
-0.617028
-0.602583
-0.515501
-0.372459
-0.198761
-0.0243879
0.120712
0.211325
0.230895
0.174438
0.0500103
-0.121692
-0.310478
-0.482506
-0.607612
-0.665135
-0.647028
-0.55823
-0.415166
-0.242825
-0.0708483
0.0711481
0.158232
0.174056
0.11374
-0.0146567
-0.190542
-0.383905
-0.561117
-0.6922
-0.756603
-0.746289
-0.66609
-0.532214
-0.369333
-0.206683
-0.0734053
0.00610553
0.0161079
-0.0475676
-0.175993
-0.34744
-0.530351
-0.688929
-0.790189
-0.809534
-0.73374
-0.56144
-0.302132
0.025604
0.396027
0.778036
1.13662
1.43461
1.63631
1.71354
1.65235
4.4886
4.07942
3.64175
3.2294
2.88885
2.6461
2.50096
2.42944
2.39087
2.33835
2.22914
2.03247
1.73552
1.34696
0.898268
0.439409
0.0283789
-0.284433
-0.466632
-0.508164
-0.42017
-0.231939
0.0139457
0.26744
0.478727
0.60586
0.620491
0.51255
0.293094
-0.00470342
-0.329899
-0.623935
-0.835849
-0.932384
-0.902235
-0.75497
-0.518092
-0.232312
0.0541569
0.293166
0.444167
0.479886
0.390974
0.188857
-0.0932547
-0.404642
-0.687105
-0.889999
-0.980234
-0.946475
-0.798081
-0.562192
-0.279067
0.00358844
0.238112
0.384367
0.415375
0.321933
0.115442
-0.171085
-0.487268
-0.77531
-0.984922
-1.08324
-1.05898
-0.92141
-0.697399
-0.426824
-0.156911
0.0652155
0.199978
0.220972
0.119601
-0.092031
-0.380002
-0.6926
-0.969944
-1.15847
-1.22039
-1.13741
-0.909446
-0.551817
-0.0916843
0.434962
0.985832
1.51278
1.96096
2.27295
2.39948
2.31356
5.3193
4.72509
4.07855
3.48201
3.02144
2.74179
2.63823
2.66513
2.74837
2.80551
2.76441
2.57224
2.2046
1.67031
1.01903
0.336248
-0.272802
-0.721993
-0.960169
-0.975845
-0.789377
-0.448307
-0.019508
0.417226
0.782462
1.01036
1.05492
0.897497
0.551105
0.0678147
-0.466061
-0.945444
-1.28413
-1.43019
-1.37056
-1.12351
-0.734171
-0.266888
0.201012
0.592318
0.84298
0.90831
0.770488
0.442859
-0.0227009
-0.540501
-1.00633
-1.33466
-1.47393
-1.41105
-1.16397
-0.777291
-0.314684
0.147283
0.532129
0.776404
0.835851
0.692861
0.360739
-0.108977
-0.631206
-1.10249
-1.43796
-1.58643
-1.53491
-1.30125
-0.929688
-0.483414
-0.0383761
0.32959
0.557628
0.601994
0.4455
0.101815
-0.377144
-0.905651
-1.37889
-1.70911
-1.83992
-1.7499
-1.44419
-0.949133
-0.304777
0.438982
1.22804
2.00233
2.68336
3.17663
3.39129
3.2708
6.32827
5.44612
4.44337
3.5388
2.89352
2.58391
2.58768
2.81972
3.14343
3.41415
3.51721
3.36467
2.91368
2.16211
1.18514
0.126909
-0.804187
-1.46343
-1.77412
-1.73463
-1.38122
-0.79102
-0.0644008
0.669954
1.28395
1.67887
1.78019
1.55454
1.00623
0.213155
-0.680716
-1.46958
-2.00983
-2.22421
-2.10881
-1.697
-1.06252
-0.302388
0.458128
1.09396
1.50864
1.62923
1.42328
0.89544
0.123034
-0.751251
-1.52358
-2.05164
-2.25877
-2.14092
-1.73095
-1.10178
-0.34944
0.401975
1.02851
1.43454
1.54778
1.33608
0.804113
0.0286876
-0.848558
-1.62531
-2.16036
-2.37764
-2.2732
-1.87972
-1.26962
-0.538282
0.191085
0.795402
1.17971
1.2722
1.0409
0.490407
-0.302982
-1.19833
-1.99382
-2.54692
-2.77746
-2.67304
-2.2516
-1.56147
-0.661049
0.377722
1.49148
2.62608
3.67609
4.48141
4.86565
4.7005
7.67512
6.34072
4.66678
3.22221
2.28222
1.97475
2.20838
2.84234
3.61479
4.26424
4.63809
4.58685
4.05561
2.97847
1.46828
-0.265515
-1.72706
-2.70678
-3.09235
-2.94546
-2.31408
-1.33019
-0.120447
1.09599
2.10087
2.77017
2.97628
2.67619
1.81381
0.503619
-1.0466
-2.35175
-3.20483
-3.49316
-3.27393
-2.59115
-1.57184
-0.338486
0.894752
1.91402
2.59773
2.82034
2.53957
1.70014
0.415425
-1.10887
-2.39262
-3.23081
-3.51166
-3.29149
-2.61364
-1.6037
-0.382927
0.836432
1.84234
2.51422
2.72755
2.44041
1.598
0.312907
-1.21069
-2.49625
-3.34038
-3.63221
-3.42777
-2.77017
-1.78422
-0.590373
0.600554
1.57796
2.22194
2.4086
2.09587
1.22871
-0.0820549
-1.63485
-2.95783
-3.84927
-4.19736
-4.05271
-3.44594
-2.47669
-1.21659
0.208412
1.72482
3.37153
5.02106
6.39241
7.13102
6.92581
9.724
7.72403
4.55976
2.17897
0.76013
0.586425
1.25262
2.66554
4.26327
5.51123
6.37113
6.50026
5.98366
4.41843
2.07345
-1.04998
-3.34373
-4.80573
-5.1773
-4.85394
-3.75454
-2.19458
-0.186119
1.82668
3.40105
4.52847
4.90131
4.60757
3.26623
1.13974
-1.76541
-3.88487
-5.21306
-5.49302
-5.10654
-3.96993
-2.38939
-0.374421
1.63948
3.21731
4.35079
4.73632
4.46031
3.14606
1.0528
-1.81291
-3.90328
-5.21259
-5.48602
-5.10116
-3.97456
-2.40926
-0.414402
1.57823
3.13715
4.25418
4.62796
4.34431
3.02933
0.940535
-1.91561
-4.00288
-5.31576
-5.60144
-5.23491
-4.13349
-2.59819
-0.638298
1.31746
2.84062
3.92267
4.2641
3.94919
2.60579
0.487374
-2.40234
-4.54325
-5.93402
-6.32683
-6.09782
-5.16224
-3.81073
-2.00965
-0.0925888
1.77043
4.11277
6.76646
9.21436
10.7552
10.6063
13.3185
10.7831
3.32394
-0.24972
-2.55499
-2.01134
-0.778412
2.22265
5.41547
7.31704
9.15651
9.34357
9.42177
6.98127
3.79961
-3.02913
-6.15812
-8.47486
-8.26295
-7.87992
-5.85818
-3.70478
-0.258005
3.18873
5.34489
7.37341
7.78626
8.04755
5.84929
2.89718
-3.61557
-6.55743
-8.73072
-8.45256
-8.01931
-5.98798
-3.83248
-0.40881
3.01219
5.16047
7.18092
7.60492
7.87615
5.71377
2.80252
-3.63344
-6.53864
-8.68607
-8.40831
-7.97896
-5.9672
-3.8334
-0.442682
2.94457
5.06828
7.0644
7.47504
7.73333
5.57492
2.67314
-3.72774
-6.62462
-8.77031
-8.50987
-8.10028
-6.12162
-4.0236
-0.680282
2.65728
4.73846
6.68986
7.06471
7.28348
5.0989
2.16745
-4.2481
-7.20885
-9.45579
-9.35171
-9.16035
-7.47749
-5.79217
-2.96976
-0.315877
1.12564
4.40541
8.80811
13.3424
16.8127
17.3168
20.115
20.9298
-3.50901
-4.50539
-9.97265
-5.60162
-5.35546
1.50376
8.42718
9.21241
14.3215
12.3438
16.487
10.6115
10.7777
-10.3358
-10.142
-15.7851
-11.5949
-13.2654
-8.15126
-7.07726
-0.32963
6.4094
7.47275
12.5451
10.8897
15.0295
9.51812
9.78215
-10.6076
-10.3365
-15.7783
-11.6352
-13.2331
-8.18463
-7.10149
-0.439125
6.21785
7.28795
12.3102
10.6937
14.7967
9.36007
9.62805
-10.538
-10.265
-15.6516
-11.5487
-13.1352
-8.13534
-7.06728
-0.465739
6.13062
7.18338
12.1579
10.5417
14.6026
9.19117
9.44467
-10.5854
-10.3279
-15.6895
-11.6329
-13.2249
-8.28141
-7.24202
-0.71379
5.8065
6.82337
11.7275
10.0902
14.0788
8.66765
8.86482
-11.0686
-10.9021
-16.3628
-12.5021
-14.3704
-9.79609
-9.41088
-3.68708
1.20664
-2.16656
3.07982
10.659
19.0011
27.1401
31.6943
29.7964
67.4538
-44.0982
-2.32181
-31.5562
-3.25083
-19.4539
0.693816
20.2793
4.88293
29.6931
6.53155
37.9807
5.54367
48.4003
-48.3228
-5.71854
-37.2532
-6.48485
-28.4187
-4.62408
-18.6173
-0.386364
17.8056
3.83022
27.4075
5.65074
35.9119
4.87329
46.4115
-47.348
-5.88598
-36.6246
-6.54752
-28.0142
-4.66773
-18.4011
-0.458118
17.4722
3.72803
27.0028
5.55044
35.4578
4.79569
45.8826
-46.871
-5.83739
-36.2778
-6.49214
-27.7716
-4.6375
-18.2652
-0.477102
17.3037
3.65535
26.7464
5.43771
35.1163
4.65416
45.4289
-46.6532
-5.93536
-36.1667
-6.61768
-27.7567
-4.81524
-18.3604
-0.731904
16.8846
3.31456
26.1885
5.01833
34.4134
4.16404
44.5538
-46.8297
-6.48906
-36.6898
-7.39951
-28.8553
-6.07953
-20.7145
-3.20652
14.6357
-17.8653
-1.59951
11.4163
24.9576
42.635
71.0722
28868.8
28829.4
28790
28750.4
28710.9
28671.3
28631.8
28592.4
28553.1
28513.9
28474.8
28435.9
28397
28358.2
28319.4
0.193132
0.150321
0.0957524
0.0355411
-0.0240807
-0.0776187
-0.120867
-0.15113
-0.167185
-0.169072
-0.157819
-0.135159
-0.103293
-0.0647035
-0.0220258
0.340149
0.263318
0.165629
0.0584025
-0.0470313
-0.140906
-0.21596
-0.267745
-0.294446
-0.296439
-0.275745
-0.235521
-0.179638
-0.112377
-0.0382274
0.517422
0.397224
0.245095
0.0795161
-0.0815008
-0.222976
-0.33429
-0.409414
-0.446391
-0.446471
-0.413185
-0.35153
-0.267354
-0.166936
-0.0567337
0.742161
0.563061
0.338006
0.096065
-0.135516
-0.33521
-0.488815
-0.589233
-0.635234
-0.629871
-0.578993
-0.49006
-0.371314
-0.231278
-0.078505
1.03793
0.774849
0.447802
0.10225
-0.22142
-0.49354
-0.696532
-0.823474
-0.875444
-0.858789
-0.78286
-0.658403
-0.496562
-0.308359
-0.104513
1.43831
1.0506
0.576103
0.086554
-0.358873
-0.720996
-0.980303
-1.13269
-1.18428
-1.14699
-1.03526
-0.864131
-0.648175
-0.401082
-0.135703
1.99288
1.41314
0.719445
0.0267362
-0.579629
-1.05127
-1.37099
-1.54269
-1.58202
-1.50961
-1.34705
-1.11469
-0.830924
-0.512092
-0.172918
2.7773
1.8896
0.861772
-0.119443
-0.935121
-1.53345
-1.90969
-2.08508
-2.09148
-1.9624
-1.72863
-1.41667
-1.04873
-0.643445
-0.216796
3.91101
2.50615
0.957445
-0.431187
-1.50798
-2.23773
-2.64925
-2.79644
-2.7364
-2.51989
-2.18841
-1.77462
-1.3039
-0.796156
-0.267619
5.58827
3.26649
0.893009
-1.05478
-2.4279
-3.26024
-3.65316
-3.71501
-3.53781
-3.19234
-2.73049
-2.18951
-1.59608
-0.969661
-0.325142
8.12799
4.0784
0.402779
-2.25311
-3.88861
-4.72218
-4.98815
-4.87265
-4.50747
-3.98115
-3.3517
-2.65685
-1.92123
-1.16127
-0.388429
12.0136
4.51634
-1.10724
-4.47192
-6.15128
-6.75172
-6.7046
-6.27994
-5.63829
-4.87309
-4.0383
-3.16494
-2.27074
-1.36575
-0.455735
17.6104
3.08041
-4.87609
-8.37609
-9.49289
-9.42884
-8.79857
-7.90422
-6.89264
-5.8346
-4.76347
-3.69388
-2.63102
-1.57526
-0.524492
22.3727
-4.92996
-13.1015
-14.6634
-14.0154
-12.6722
-11.1566
-9.64574
-8.19343
-6.80922
-5.48709
-4.21608
-2.98422
-1.77976
-0.591471
0.543929
1.63918
2.75706
3.91427
5.13021
6.42859
7.83987
9.40476
11.1795
13.2432
15.7048
18.693
22.2366
25.5425
22.9468
0.55476
1.67202
2.81302
3.99545
5.24011
6.57303
8.02871
9.65554
11.5255
13.753
16.5347
20.2475
25.7323
35.2877
56.8048
0.560219
1.68838
2.84023
4.03341
5.28872
6.63223
8.09871
9.7375
11.6233
13.878
16.7181
20.5715
26.4015
36.7264
59.2459
0.560316
1.68829
2.83874
4.02825
5.2761
6.60605
8.04907
9.64792
11.465
13.5965
16.1978
19.5232
23.9497
29.6985
34.3549
0.555318
1.6726
2.81013
3.98258
5.20648
6.50136
7.89125
9.40681
11.0883
12.9888
15.1748
17.7104
20.5803
23.431
25.0924
0.545708
1.64284
2.75728
3.90119
5.08759
6.33072
7.64616
9.05049
10.5596
12.183
13.9091
15.6655
17.2245
17.99
16.5136
0.532132
1.60106
2.68398
3.7903
4.92931
6.10987
7.33935
8.62145
9.9514
11.3059
12.6222
13.7577
14.4199
14.1059
12.4386
0.515322
1.54956
2.59445
3.65671
4.7422
5.85506
6.99602
8.15921
9.32624
10.4553
11.4611
12.1787
12.2932
11.1616
7.07488
0.496021
1.49065
2.49286
3.507
4.53609
5.58076
6.63727
7.69431
8.72748
9.69026
10.5
11.0185
11.032
10.2695
8.69942
0.474924
1.42649
2.383
3.34691
4.31919
5.29824
6.27817
7.24602
8.17762
9.03153
9.74134
10.209
10.3096
9.93832
9.16145
0.45263
1.35891
2.26801
3.18101
4.09758
5.01514
5.92748
6.82292
7.68173
8.4729
9.15083
9.65442
9.9149
9.88883
9.65354
0.429632
1.28937
2.15032
3.01263
3.87531
4.73568
5.58853
6.42527
7.23285
7.99293
8.68142
9.2687
9.71924
9.98465
9.96893
0.406306
1.21898
2.0317
2.844
3.65467
4.46144
5.2608
6.04788
6.81698
7.5627
8.28233
8.97796
9.65218
10.2757
10.6981
0.382938
1.14857
1.91338
2.67651
3.43673
4.19238
4.94159
5.68301
6.41735
7.15063
7.89992
8.70212
9.62035
10.7065
11.671
0.35974
1.07873
1.79622
2.51106
3.22199
3.9278
4.62782
5.32307
6.01849
6.72746
7.48079
8.34574
9.47192
11.2219
14.6149
0.336881
1.00995
1.68091
2.34833
3.01081
3.66724
4.31739
4.96304
5.61024
6.27352
6.98416
7.80799
8.89036
10.5962
14.0499
0.314505
0.942626
1.56807
2.18904
2.80384
3.41106
4.01009
4.60194
5.19084
5.78672
6.40895
7.09073
7.87591
8.75668
9.23306
0.29275
0.877168
1.45833
2.03405
2.60214
3.16059
3.70778
4.24291
4.76663
5.28163
5.79242
6.30168
6.79512
7.19807
7.32224
0.271746
0.813974
1.35238
1.88435
2.40715
2.91796
3.41386
3.89182
4.3485
4.77948
5.17698
5.52364
5.7772
5.83308
5.41886
0.251621
0.753435
1.25092
1.74103
2.2205
2.6857
3.13241
3.55552
3.94822
4.30062
4.59688
4.81029
4.8966
4.79457
4.49248
0.23249
0.695907
1.15457
1.60511
2.04378
2.46628
2.86738
3.24035
3.57596
3.86076
4.07432
4.18523
4.14679
3.89503
3.33432
0.214446
0.641682
1.06388
1.47743
1.87829
2.26173
2.62189
2.95114
3.23899
3.47039
3.62307
3.6639
3.54516
3.21006
2.67636
0.197552
0.590959
0.979201
1.35857
1.72491
2.07336
2.39789
2.69071
2.94126
3.1347
3.24951
3.25342
3.0938
2.66304
1.62354
0.181837
0.543826
0.900688
1.24876
1.58397
1.9016
2.19592
2.45964
2.6832
2.85362
2.953
2.95651
2.83075
2.53876
2.10375
0.167294
0.500257
0.828285
1.14789
1.45525
1.74606
2.0152
2.25647
2.46205
2.6219
2.72307
2.74939
2.68315
2.51383
2.26284
0.153882
0.460119
0.761737
1.05552
1.33805
1.60556
1.85385
2.0781
2.27268
2.43096
2.54515
2.60657
2.60715
2.54563
2.44954
0.14153
0.42319
0.700633
0.970984
1.23127
1.47842
1.70922
1.92036
2.10855
2.27064
2.4039
2.50603
2.57429
2.60147
2.56181
0.13015
0.389193
0.64446
0.893438
1.13364
1.36265
1.57824
1.77857
1.96254
2.13037
2.28429
2.42902
2.56998
2.70375
2.79475
0.119646
0.357821
0.592659
0.821995
1.04378
1.25621
1.45787
1.64815
1.82777
1.99977
2.17108
2.35465
2.57068
2.83577
3.0727
0.109919
0.328769
0.544683
0.7558
0.96044
1.15725
1.34542
1.52515
1.6983
1.86968
2.04938
2.25777
2.53734
2.98738
3.88306
0.100878
0.301759
0.500042
0.69411
0.882547
1.06429
1.23885
1.40674
1.57009
1.73382
1.90779
2.11147
2.38566
2.82954
3.74354
0.0924471
0.276555
0.458333
0.636337
0.809314
0.976321
1.13693
1.29149
1.44163
1.59085
1.74559
1.91622
2.11616
2.34526
2.47311
0.0845633
0.252971
0.419248
0.582063
0.740233
0.892812
1.03921
1.17934
1.31381
1.44409
1.57239
1.70065
1.82644
1.93133
1.9669
0.0771795
0.23087
0.382572
0.531021
0.675044
0.813606
0.945851
1.07112
1.18892
1.29871
1.39922
1.48682
1.55125
1.56558
1.45771
0.0702608
0.210152
0.34816
0.483058
0.613655
0.738798
0.857349
0.968107
1.06962
1.15978
1.23505
1.28909
1.31087
1.2847
1.20808
0.0637809
0.190744
0.315912
0.438087
0.55606
0.668576
0.774271
0.871526
0.958208
1.0312
1.08565
1.1138
1.1038
1.03889
0.893003
0.0577175
0.172586
0.285747
0.396041
0.502261
0.603101
0.697065
0.7823
0.856317
0.915525
0.954513
0.96502
0.93487
0.849328
0.713302
0.0520487
0.155615
0.257576
0.35683
0.452205
0.54241
0.62593
0.700877
0.764723
0.813903
0.843174
0.844491
0.804427
0.694842
0.426234
0.0467498
0.13976
0.23129
0.320317
0.405747
0.486367
0.56076
0.627173
0.683325
0.726122
0.751261
0.752714
0.722276
0.650803
0.544634
0.0417918
0.124935
0.206746
0.286306
0.362635
0.434658
0.501141
0.560605
0.611213
0.650616
0.675809
0.683099
0.668636
0.630872
0.577712
0.0371406
0.111037
0.18377
0.254543
0.322521
0.386805
0.446404
0.500198
0.546893
0.584992
0.612805
0.628604
0.631192
0.621647
0.608224
0.0327576
0.0979474
0.162158
0.224727
0.284978
0.342211
0.395707
0.444731
0.488555
0.526523
0.558156
0.583297
0.602188
0.61513
0.620711
0.0286012
0.0855402
0.14169
0.196526
0.249535
0.30022
0.348126
0.392884
0.434294
0.472466
0.508031
0.542345
0.577332
0.613742
0.645713
0.0246284
0.0736832
0.122136
0.169599
0.215713
0.260166
0.302739
0.343371
0.382292
0.420233
0.458787
0.50094
0.551503
0.615453
0.682048
0.0207965
0.0622463
0.103272
0.143613
0.183048
0.221425
0.258707
0.295057
0.330982
0.367585
0.407059
0.45371
0.516396
0.615347
0.804223
0.0170648
0.0511056
0.0848865
0.11826
0.151124
0.18345
0.215329
0.247048
0.279211
0.312954
0.35036
0.395361
0.456121
0.552814
0.749047
0.0133955
0.0401469
0.0667865
0.0932657
0.119579
0.145791
0.17207
0.19874
0.226353
0.255792
0.288399
0.326082
0.370912
0.421175
0.444998
0.00975437
0.0292675
0.0488004
0.0683898
0.0881098
0.108092
0.128545
0.149784
0.172237
0.196441
0.222926
0.251855
0.281945
0.307914
0.318638
0.00611071
0.0183759
0.0307777
0.0434266
0.0564631
0.07007
0.084483
0.0999918
0.116915
0.135515
0.155768
0.176835
0.195855
0.205254
0.185369
0.0024372
0.0073907
0.0125856
0.0181976
0.0244244
0.0314937
0.0396659
0.0492247
0.060437
0.0734491
0.0880557
0.103247
0.116459
0.122944
0.119042
-0.00129074
-0.00376082
-0.00589395
-0.00745541
-0.00819537
-0.00784371
-0.00610845
-0.00268415
0.00271668
0.0102848
0.0199466
0.0310431
0.0417464
0.047858
0.0386349
-0.00509559
-0.0151451
-0.0247685
-0.0336761
-0.0415696
-0.0481375
-0.0530505
-0.0559595
-0.0565019
-0.0543259
-0.0491504
-0.040879
-0.0297687
-0.0165699
-0.00231162
-0.00899837
-0.0268243
-0.0441382
-0.0605983
-0.0758611
-0.0895766
-0.101379
-0.110873
-0.117602
-0.121013
-0.12039
-0.114765
-0.102726
-0.0817261
-0.0443623
-0.0130194
-0.0388581
-0.0640991
-0.0883497
-0.111224
-0.13234
-0.151308
-0.167701
-0.181002
-0.190495
-0.195097
-0.193098
-0.181901
-0.15824
-0.122077
-0.0171789
-0.0513061
-0.0847462
-0.117055
-0.147806
-0.176593
-0.20302
-0.226672
-0.24704
-0.263369
-0.274382
-0.277814
-0.269725
-0.243429
-0.185489
-0.0214982
-0.0642305
-0.106178
-0.14684
-0.185748
-0.222481
-0.256656
-0.287921
-0.315878
-0.339929
-0.358926
-0.370526
-0.370187
-0.350589
-0.307546
-0.0260005
-0.0776993
-0.128501
-0.17784
-0.225201
-0.270141
-0.312311
-0.351463
-0.387427
-0.419994
-0.448602
-0.471524
-0.484018
-0.474026
-0.41053
-0.0307125
-0.0917904
-0.151839
-0.210212
-0.266332
-0.319723
-0.370059
-0.417216
-0.461329
-0.502807
-0.542221
-0.579762
-0.61346
-0.634613
-0.623272
-0.0356654
-0.106596
-0.176339
-0.244149
-0.309357
-0.371425
-0.430012
-0.485082
-0.537059
-0.587049
-0.637138
-0.690663
-0.751609
-0.81776
-0.834492
-0.0408961
-0.122226
-0.202181
-0.27989
-0.354563
-0.425543
-0.492405
-0.555092
-0.614166
-0.67122
-0.729667
-0.796408
-0.886142
-1.03522
-1.35705
-0.0464477
-0.13881
-0.229581
-0.31774
-0.40233
-0.482521
-0.557695
-0.627611
-0.692674
-0.754423
-0.816432
-0.886183
-0.979458
-1.13272
-1.44369
-0.0523698
-0.156498
-0.258796
-0.358067
-0.453153
-0.54298
-0.626635
-0.703499
-0.773483
-0.837441
-0.897821
-0.959618
-1.03112
-1.12068
-1.20722
-0.0587165
-0.175456
-0.290114
-0.4013
-0.507626
-0.607726
-0.700291
-0.784162
-0.858477
-0.922944
-0.978225
-1.02632
-1.07023
-1.11075
-1.13655
-0.0655447
-0.19586
-0.323842
-0.447907
-0.566424
-0.677702
-0.779986
-0.87146
-0.950309
-1.01482
-1.06362
-1.09592
-1.11168
-1.11106
-1.09135
-0.0729108
-0.217883
-0.360291
-0.498366
-0.630247
-0.753926
-0.867186
-0.967527
-1.05209
-1.11762
-1.16048
-1.177
-1.16452
-1.12461
-1.07151
-0.0808666
-0.241687
-0.399748
-0.553128
-0.699768
-0.837386
-0.963358
-1.07455
-1.1671
-1.23616
-1.27563
-1.27821
-1.23641
-1.14733
-1.02632
-0.0894559
-0.267409
-0.442457
-0.61257
-0.775553
-0.928934
-1.06979
-1.19452
-1.29842
-1.37524
-1.41642
-1.41023
-1.34114
-1.19223
-0.974521
-0.0987115
-0.295147
-0.488593
-0.676964
-0.858007
-1.02918
-1.18744
-1.32894
-1.44856
-1.53908
-1.59009
-1.58594
-1.50132
-1.28489
-0.777031
-0.108653
-0.324961
-0.538254
-0.746448
-0.947319
-1.13839
-1.31671
-1.47858
-1.6189
-1.73037
-1.80206
-1.81755
-1.75301
-1.57996
-1.30607
-0.119288
-0.356868
-0.591457
-0.821018
-1.04344
-1.25644
-1.45743
-1.64317
-1.80928
-1.94927
-2.05307
-2.10473
-2.08008
-1.94504
-1.64673
-0.130613
-0.390855
-0.64815
-0.900547
-1.1461
-1.38285
-1.60873
-1.82139
-2.01779
-2.19333
-2.34027
-2.44492
-2.4838
-2.42353
-2.25518
-0.142621
-0.426887
-0.708246
-0.984829
-1.25488
-1.5168
-1.76921
-2.01092
-2.24079
-2.45725
-2.65686
-2.83078
-2.95638
-2.97707
-2.74634
-0.155307
-0.464939
-0.771659
-1.07365
-1.3693
-1.65737
-1.93713
-2.20866
-2.47311
-2.73288
-2.99127
-3.25021
-3.50182
-3.70523
-3.75904
-0.168675
-0.505013
-0.838357
-1.16687
-1.489
-1.8037
-2.11076
-2.41132
-2.70868
-3.00946
-3.32532
-3.67474
-4.08074
-4.53728
-4.77584
-0.182747
-0.547167
-0.908411
-1.26452
-1.61386
-1.95534
-2.2889
-2.61622
-2.94189
-3.27558
-3.63607
-4.05997
-4.62459
-5.5207
-7.33725
-0.197564
-0.591528
-0.982028
-1.36688
-1.74416
-2.11247
-2.47139
-2.82225
-3.16952
-3.5231
-3.90278
-4.3475
-4.93824
-5.86496
-7.65573
-0.213191
-0.638293
-1.05957
-1.4745
-1.88071
-2.27613
-2.65946
-3.03078
-3.39277
-3.75251
-4.12434
-4.53362
-5.01859
-5.60919
-6.15574
-0.229704
-0.687718
-1.14151
-1.58818
-2.02473
-2.4482
-2.85588
-3.2458
-3.61758
-3.97352
-4.31988
-4.6672
-5.02559
-5.38404
-5.65958
-0.247187
-0.740072
-1.2284
-1.70888
-2.17785
-2.63123
-3.06461
-3.47342
-3.8534
-4.20118
-4.51477
-4.79311
-5.03255
-5.21646
-5.28997
-0.265705
-0.795588
-1.32075
-1.83757
-2.34178
-2.82816
-3.29041
-3.72107
-4.11159
-4.45258
-4.73415
-4.94603
-5.07807
-5.12557
-5.11934
-0.285285
-0.854384
-1.41888
-1.97503
-2.51809
-3.04184
-3.53815
-3.99659
-4.40416
-4.74524
-5.00191
-5.15441
-5.18229
-5.072
-4.8553
-0.305884
-0.916378
-1.5228
-2.12158
-2.7078
-3.27456
-3.81218
-4.30745
-4.7429
-5.09652
-5.34202
-5.44932
-5.38245
-5.09233
-4.57947
-0.327369
-0.9812
-1.63202
-2.27684
-2.91104
-3.52752
-4.11563
-4.65983
-5.13846
-5.52288
-5.77808
-5.86517
-5.73764
-5.26732
-3.70304
-0.349482
-1.04811
-1.74542
-2.43947
-3.12657
-3.80019
-4.44956
-5.05775
-5.59945
-6.03897
-6.33089
-6.43004
-6.33085
-6.20196
-6.88332
-0.37183
-1.11593
-1.86107
-2.60693
-3.35146
-4.08969
-4.81207
-5.50184
-6.13138
-6.65754
-7.01755
-7.13261
-6.94464
-6.57382
-6.92042
-0.393869
-1.18303
-1.97622
-2.77531
-3.5807
-4.3902
-5.19723
-5.98774
-6.73509
-7.39149
-7.87429
-8.04561
-7.68536
-6.44721
-3.63343
-0.414922
-1.24732
-2.08727
-2.93932
-3.80708
-4.69242
-5.59385
-6.5036
-7.40195
-8.24598
-8.9473
-9.32774
-9.03572
-7.41456
-3.43881
-0.434196
-1.30638
-2.18992
-3.09241
-4.02126
-4.98346
-5.98467
-7.02737
-8.10652
-9.19956
-10.2431
-11.0768
-11.3091
-10.017
-5.25934
-0.45084
-1.35753
-2.27942
-3.22717
-4.21227
-5.24739
-6.34667
-7.52583
-8.80141
-10.1875
-11.6846
-13.2435
-14.6412
-15.026
-11.0806
-0.464001
-1.39813
-2.35095
-3.33599
-4.36854
-5.46675
-6.65319
-7.95732
-9.41953
-11.0983
-13.0833
-15.5221
-18.6765
-23.0422
-29.5517
-12.139
-27.6603
-26.1355
-22.3209
-18.7801
-15.8127
-13.3278
-11.2011
-9.33362
-7.65363
-6.10948
-4.66318
-3.28576
-1.95407
-0.648519
-119.141
-62.1161
-40.0884
-29.212
-22.7301
-18.3241
-15.0403
-12.4236
-10.2307
-8.3198
-6.60197
-5.01792
-3.52552
-2.09286
-0.693976
-132.433
-72.2676
-46.2972
-33.0512
-25.2384
-20.0561
-16.2894
-13.3517
-10.932
-8.85186
-7.00155
-5.309
-3.72379
-2.20819
-0.731838
-72.6608
-58.6719
-43.6693
-33.1173
-25.9199
-20.805
-16.9629
-13.9201
-11.3974
-9.22431
-7.29156
-5.52553
-3.8737
-2.29628
-0.760891
-51.244
-45.7799
-37.9508
-30.8536
-25.1551
-20.67
-17.0813
-14.1272
-11.62
-9.42983
-7.46579
-5.66274
-3.97195
-2.35516
-0.780494
-32.5173
-34.5302
-31.7237
-27.6186
-23.5477
-19.9123
-16.7591
-14.024
-11.6225
-9.47826
-7.52821
-5.72197
-4.01879
-2.38479
-0.790596
-23.9814
-26.6272
-26.3983
-24.3598
-21.6377
-18.8198
-16.1465
-13.689
-11.4465
-9.39179
-7.49074
-5.70963
-4.01759
-2.38676
-0.791671
-13.3409
-20.7206
-22.3296
-21.5757
-19.7943
-17.6268
-15.3839
-13.2046
-11.1399
-9.19863
-7.36997
-5.63542
-3.97387
-2.36391
-0.784587
-16.1048
-18.8212
-19.9017
-19.5051
-18.2189
-16.486
-14.5773
-12.6406
-10.7478
-8.92721