/*--------------------------------*- C++ -*----------------------------------*\
| =========                 |                                                 |
| \\      /  F ield         | OpenFOAM: The Open Source CFD Toolbox           |
|  \\    /   O peration     | Version:  5.x                                   |
|   \\  /    A nd           | Web:      www.OpenFOAM.org                      |
|    \\/     M anipulation  |                                                 |
\*---------------------------------------------------------------------------*/
FoamFile
{
    version     2.0;
    format      ascii;
    class       volScalarField;
    location    "2";
    object      T;
}
// * * * * * * * * * * * * * * * * * * * * * * * * * * * * * * * * * * * * * //

dimensions      [0 0 0 1 0 0 0];

internalField   nonuniform List<scalar> 
6300
(
322.853
322.558
322.262
321.965
321.665
321.362
321.055
320.745
320.43
320.11
319.784
319.453
319.116
318.773
318.425
322.853
322.559
322.264
321.967
321.668
321.365
321.06
320.749
320.435
320.115
319.79
319.459
319.122
318.779
318.431
322.854
322.561
322.267
321.972
321.674
321.373
321.068
320.759
320.445
320.126
319.801
319.47
319.134
318.791
318.442
322.855
322.564
322.272
321.979
321.683
321.383
321.08
320.773
320.46
320.142
319.818
319.488
319.151
318.808
318.459
322.856
322.568
322.279
321.988
321.695
321.398
321.097
320.792
320.481
320.165
319.842
319.512
319.175
318.832
318.482
322.858
322.574
322.288
322.001
321.71
321.417
321.119
320.816
320.508
320.193
319.872
319.543
319.207
318.863
318.511
322.86
322.58
322.299
322.015
321.729
321.44
321.146
320.846
320.541
320.229
319.909
319.581
319.245
318.901
318.547
322.863
322.588
322.311
322.033
321.752
321.467
321.178
320.882
320.581
320.272
319.955
319.628
319.293
318.947
318.592
322.866
322.596
322.326
322.054
321.778
321.499
321.215
320.925
320.628
320.323
320.009
319.685
319.35
319.003
318.645
322.869
322.607
322.343
322.077
321.808
321.536
321.258
320.974
320.683
320.384
320.074
319.753
319.418
319.07
318.708
322.873
322.618
322.362
322.103
321.842
321.577
321.307
321.031
320.747
320.454
320.15
319.833
319.501
319.152
318.785
322.877
322.63
322.382
322.133
321.88
321.624
321.363
321.096
320.821
320.536
320.239
319.928
319.6
319.251
318.88
322.881
322.644
322.405
322.165
321.922
321.676
321.425
321.168
320.903
320.629
320.343
320.041
319.719
319.374
319
322.886
322.658
322.43
322.2
321.967
321.732
321.492
321.248
320.996
320.735
320.462
320.173
319.862
319.523
319.154
322.891
322.674
322.456
322.237
322.015
321.792
321.565
321.334
321.098
320.853
320.598
320.327
320.032
319.704
319.341
318.101
317.802
317.5
317.194
316.886
316.574
316.26
315.943
315.623
315.302
314.979
314.653
314.327
313.998
313.669
313.339
313.008
312.676
312.344
312.012
311.679
311.346
311.013
310.68
310.347
310.014
309.68
309.346
309.013
308.679
308.345
308.012
307.679
307.346
307.013
306.68
306.348
306.016
305.684
305.353
305.021
304.689
304.358
304.026
303.695
303.364
303.033
302.703
302.372
302.042
301.713
301.383
301.054
300.725
300.397
300.068
299.74
299.412
299.084
298.756
298.428
298.101
297.774
297.447
297.121
296.796
296.47
296.146
295.821
295.497
295.173
294.849
294.526
294.203
293.88
293.558
293.236
292.914
292.592
292.271
291.951
291.63
291.309
290.988
290.666
290.344
290.021
289.698
289.373
289.047
318.106
317.807
317.505
317.199
316.89
316.578
316.263
315.946
315.627
315.305
314.981
314.656
314.328
314
313.67
313.34
313.008
312.677
312.344
312.012
311.679
311.346
311.013
310.68
310.347
310.014
309.68
309.346
309.013
308.679
308.345
308.012
307.678
307.345
307.013
306.68
306.348
306.016
305.684
305.352
305.021
304.689
304.358
304.026
303.695
303.364
303.033
302.702
302.372
302.042
301.712
301.383
301.054
300.725
300.397
300.068
299.74
299.412
299.083
298.755
298.428
298.1
297.773
297.447
297.121
296.795
296.47
296.145
295.821
295.496
295.173
294.849
294.526
294.202
293.88
293.557
293.235
292.913
292.592
292.271
291.95
291.63
291.309
290.989
290.667
290.345
290.023
289.699
289.374
289.048
318.117
317.817
317.514
317.208
316.898
316.586
316.271
315.953
315.633
315.31
314.986
314.66
314.332
314.003
313.673
313.342
313.01
312.678
312.345
312.012
311.68
311.347
311.014
310.681
310.347
310.014
309.68
309.347
309.013
308.679
308.345
308.011
307.678
307.344
307.012
306.679
306.347
306.015
305.684
305.352
305.021
304.689
304.357
304.026
303.694
303.363
303.032
302.701
302.371
302.041
301.711
301.382
301.053
300.725
300.396
300.068
299.739
299.411
299.083
298.755
298.427
298.099
297.772
297.445
297.119
296.794
296.469
296.144
295.82
295.496
295.172
294.848
294.525
294.202
293.879
293.556
293.234
292.912
292.591
292.27
291.95
291.63
291.31
290.99
290.669
290.348
290.025
289.702
289.377
289.051
318.133
317.833
317.529
317.221
316.911
316.598
316.281
315.963
315.642
315.319
314.994
314.667
314.338
314.008
313.677
313.345
313.012
312.679
312.346
312.013
311.68
311.347
311.014
310.681
310.348
310.015
309.681
309.347
309.013
308.678
308.344
308.01
307.676
307.343
307.01
306.678
306.346
306.014
305.683
305.352
305.02
304.689
304.357
304.025
303.693
303.362
303.03
302.699
302.369
302.039
301.71
301.381
301.052
300.724
300.395
300.067
299.739
299.41
299.082
298.753
298.425
298.097
297.77
297.443
297.117
296.791
296.467
296.142
295.818
295.494
295.171
294.847
294.524
294.2
293.877
293.554
293.232
292.91
292.589
292.269
291.949
291.63
291.311
290.992
290.672
290.351
290.03
289.707
289.382
289.056
318.155
317.853
317.548
317.239
316.928
316.613
316.296
315.976
315.655
315.331
315.004
314.676
314.346
314.015
313.682
313.349
313.015
312.681
312.347
312.013
311.68
311.347
311.015
310.682
310.349
310.016
309.682
309.348
309.013
308.678
308.343
308.008
307.674
307.341
307.008
306.676
306.344
306.013
305.682
305.351
305.02
304.689
304.357
304.025
303.692
303.36
303.028
302.697
302.366
302.036
301.707
301.379
301.051
300.723
300.395
300.067
299.738
299.41
299.081
298.752
298.423
298.095
297.767
297.44
297.114
296.788
296.464
296.14
295.816
295.493
295.169
294.846
294.522
294.198
293.875
293.552
293.229
292.907
292.586
292.267
291.948
291.63
291.312
290.994
290.676
290.357
290.036
289.714
289.389
289.063
318.183
317.879
317.572
317.262
316.948
316.632
316.314
315.993
315.67
315.345
315.018
314.688
314.356
314.023
313.689
313.353
313.018
312.682
312.347
312.013
311.68
311.347
311.015
310.683
310.35
310.017
309.683
309.349
309.013
308.677
308.342
308.006
307.671
307.337
307.005
306.673
306.342
306.012
305.682
305.351
305.021
304.689
304.357
304.024
303.691
303.358
303.025
302.693
302.362
302.033
301.704
301.376
301.049
300.722
300.394
300.067
299.738
299.409
299.08
298.75
298.42
298.091
297.763
297.435
297.109
296.784
296.46
296.137
295.814
295.491
295.168
294.845
294.521
294.196
293.872
293.548
293.225
292.903
292.582
292.263
291.945
291.629
291.313
290.997
290.681
290.364
290.045
289.724
289.4
289.073
318.217
317.911
317.602
317.289
316.973
316.655
316.335
316.013
315.689
315.363
315.034
314.703
314.369
314.033
313.696
313.358
313.02
312.683
312.347
312.012
311.679
311.347
311.016
310.684
310.353
310.02
309.686
309.351
309.014
308.677
308.34
308.003
307.667
307.332
307
306.669
306.339
306.01
305.681
305.352
305.022
304.691
304.358
304.024
303.69
303.355
303.021
302.688
302.357
302.027
301.699
301.372
301.046
300.721
300.394
300.067
299.739
299.41
299.079
298.748
298.417
298.086
297.757
297.429
297.103
296.779
296.456
296.134
295.812
295.49
295.168
294.844
294.52
294.194
293.869
293.544
293.219
292.896
292.576
292.257
291.941
291.627
291.313
291.001
290.688
290.374
290.057
289.737
289.414
289.087
318.258
317.949
317.636
317.319
317.001
316.681
316.359
316.036
315.711
315.384
315.054
314.721
314.384
314.045
313.704
313.363
313.021
312.681
312.344
312.009
311.676
311.345
311.016
310.687
310.356
310.025
309.691
309.354
309.016
308.677
308.337
307.998
307.66
307.325
306.993
306.663
306.335
306.008
305.681
305.354
305.025
304.694
304.361
304.025
303.689
303.352
303.016
302.681
302.349
302.02
301.693
301.368
301.044
300.72
300.396
300.07
299.742
299.412
299.08
298.746
298.413
298.08
297.749
297.42
297.094
296.771
296.45
296.13
295.81
295.49
295.168
294.845
294.52
294.193
293.865
293.538
293.211
292.887
292.566
292.248
291.934
291.623
291.313
291.005
290.697
290.387
290.074
289.756
289.434
289.106
318.306
317.993
317.674
317.353
317.031
316.708
316.385
316.062
315.737
315.41
315.079
314.743
314.404
314.06
313.714
313.367
313.021
312.677
312.337
312.002
311.671
311.342
311.016
310.69
310.362
310.032
309.698
309.361
309.02
308.677
308.333
307.99
307.65
307.314
306.982
306.654
306.329
306.005
305.682
305.358
305.031
304.7
304.366
304.028
303.688
303.347
303.008
302.671
302.337
302.008
301.683
301.361
301.041
300.721
300.399
300.075
299.748
299.416
299.082
298.745
298.407
298.071
297.737
297.408
297.082
296.76
296.442
296.125
295.809
295.491
295.172
294.849
294.522
294.193
293.861
293.53
293.2
292.873
292.551
292.234
291.923
291.615
291.312
291.01
290.708
290.404
290.096
289.783
289.462
289.133
318.364
318.043
317.717
317.389
317.061
316.735
316.412
316.089
315.766
315.44
315.109
314.772
314.428
314.079
313.725
313.369
313.016
312.667
312.325
311.989
311.66
311.337
311.016
310.695
310.372
310.045
309.712
309.372
309.027
308.678
308.327
307.979
307.634
307.296
306.965
306.64
306.32
306.002
305.685
305.366
305.042
304.712
304.376
304.034
303.688
303.341
302.996
302.655
302.32
301.991
301.669
301.352
301.038
300.723
300.406
300.085
299.759
299.426
299.087
298.744
298.4
298.058
297.72
297.389
297.064
296.745
296.431
296.12
295.809
295.496
295.18
294.857
294.529
294.195
293.858
293.519
293.184
292.853
292.529
292.213
291.905
291.604
291.307
291.014
290.721
290.427
290.127
289.82
289.502
289.171
318.433
318.102
317.763
317.424
317.089
316.76
316.437
316.118
315.8
315.478
315.149
314.811
314.462
314.103
313.738
313.369
313.004
312.648
312.302
311.967
311.643
311.327
311.015
310.703
310.388
310.066
309.734
309.392
309.04
308.681
308.319
307.961
307.61
307.269
306.94
306.62
306.307
305.999
305.691
305.38
305.061
304.733
304.394
304.046
303.691
303.332
302.977
302.63
302.292
301.966
301.649
301.339
301.034
300.729
300.42
300.104
299.779
299.443
299.098
298.745
298.39
298.038
297.694
297.36
297.036
296.723
296.416
296.114
295.813
295.507
295.195
294.874
294.543
294.202
293.855
293.506
293.16
292.822
292.496
292.181
291.878
291.584
291.298
291.017
290.737
290.456
290.17
289.872
289.559
289.227
318.518
318.17
317.811
317.453
317.107
316.775
316.456
316.146
315.839
315.526
315.202
314.864
314.51
314.138
313.754
313.364
312.981
312.613
312.263
311.93
311.614
311.31
311.013
310.717
310.414
310.1
309.771
309.426
309.063
308.688
308.306
307.932
307.57
307.227
306.9
306.588
306.288
305.996
305.703
305.404
305.094
304.768
304.427
304.068
303.697
303.319
302.948
302.59
302.249
301.926
301.617
301.32
301.03
300.74
300.443
300.136
299.813
299.474
299.119
298.75
298.376
298.008
297.653
297.316
296.995
296.69
296.395
296.108
295.821
295.528
295.224
294.905
294.571
294.22
293.856
293.487
293.124
292.776
292.445
292.132
291.836
291.554
291.283
291.018
290.756
290.494
290.228
289.948
289.644
289.31
318.628
318.256
317.855
317.468
317.104
316.771
316.462
316.171
315.885
315.588
315.276
314.941
314.582
314.192
313.779
313.348
312.938
312.552
312.198
311.87
311.568
311.283
311.011
310.74
310.456
310.156
309.832
309.484
309.105
308.704
308.284
307.883
307.506
307.159
306.837
306.54
306.259
305.992
305.724
305.444
305.148
304.827
304.483
304.109
303.712
303.296
302.899
302.525
302.183
301.864
301.569
301.291
301.026
300.76
300.483
300.189
299.871
299.53
299.158
298.764
298.352
297.958
297.588
297.248
296.932
296.64
296.364
296.102
295.839
295.564
295.274
294.959
294.622
294.255
293.865
293.458
293.069
292.704
292.369
292.059
291.774
291.508
291.258
291.015
290.773
290.539
290.305
290.057
289.774
289.439
318.784
318.386
317.877
317.448
317.056
316.735
316.44
316.191
315.947
315.672
315.385
315.051
314.698
314.278
313.83
313.303
312.858
312.443
312.098
311.773
311.497
311.236
311.008
310.781
310.521
310.248
309.927
309.587
309.18
308.746
308.234
307.8
307.396
307.057
306.739
306.468
306.212
305.987
305.763
305.507
305.237
304.92
304.584
304.182
303.753
303.246
302.817
302.416
302.081
301.766
301.498
301.243
301.021
300.799
300.545
300.277
299.963
299.629
299.23
298.804
298.301
297.876
297.478
297.146
296.833
296.567
296.315
296.095
295.874
295.623
295.358
295.047
294.716
294.322
293.899
293.402
292.98
292.587
292.258
291.949
291.687
291.438
291.223
291.012
290.778
290.582
290.404
290.215
289.981
289.656
319.03
318.675
317.784
317.378
316.904
316.659
316.355
316.202
316.054
315.772
315.563
315.187
314.911
314.404
313.995
313.142
312.735
312.236
311.966
311.605
311.405
311.141
311.004
310.868
310.605
310.407
310.05
309.785
309.296
308.9
308.072
307.676
307.19
306.927
306.573
306.377
306.117
305.983
305.848
305.59
305.394
305.041
304.779
304.296
303.904
303.085
302.694
302.212
301.952
301.601
301.406
301.15
301.016
300.883
300.626
300.432
300.082
299.822
299.342
298.953
298.14
297.752
297.274
297.015
296.667
296.474
296.22
296.087
295.955
295.701
295.508
295.161
294.903
294.428
294.042
293.236
292.851
292.376
292.119
291.772
291.579
291.32
291.184
291.039
290.729
290.6
290.518
290.437
290.317
290.073
288.687
288.294
287.899
287.504
287.109
286.714
286.319
285.925
285.532
285.14
284.749
284.359
283.97
283.582
283.194
288.689
288.295
287.9
287.504
287.109
286.713
286.318
285.924
285.531
285.139
284.748
284.358
283.969
283.581
283.194
288.691
288.297
287.901
287.505
287.108
286.712
286.316
285.922
285.528
285.136
284.746
284.356
283.968
283.58
283.193
288.695
288.3
287.903
287.506
287.108
286.71
286.314
285.918
285.525
285.133
284.742
284.353
283.966
283.579
283.193
288.702
288.305
287.906
287.506
287.107
286.708
286.31
285.914
285.519
285.127
284.737
284.349
283.963
283.577
283.192
288.71
288.311
287.91
287.508
287.105
286.704
286.304
285.907
285.512
285.12
284.731
284.344
283.958
283.574
283.191
288.722
288.32
287.915
287.509
287.102
286.698
286.296
285.897
285.502
285.11
284.722
284.336
283.953
283.571
283.19
288.739
288.332
287.922
287.509
287.098
286.689
286.284
285.884
285.488
285.097
284.71
284.326
283.945
283.566
283.189
288.762
288.349
287.929
287.509
287.091
286.677
286.268
285.866
285.47
285.08
284.695
284.314
283.936
283.561
283.187
288.795
288.37
287.939
287.507
287.079
286.658
286.246
285.842
285.447
285.058
284.675
284.298
283.924
283.554
283.184
288.84
288.399
287.949
287.5
287.061
286.632
286.215
285.81
285.416
285.03
284.651
284.278
283.91
283.545
283.181
288.906
288.435
287.957
287.486
287.031
286.593
286.173
285.768
285.376
284.994
284.621
284.254
283.893
283.534
283.178
289.003
288.48
287.957
287.455
286.983
286.537
286.116
285.713
285.325
284.95
284.584
284.225
283.872
283.522
283.174
289.147
288.526
287.934
287.396
286.908
286.458
286.039
285.642
285.263
284.897
284.54
284.191
283.847
283.507
283.169
289.355
288.542
287.859
287.288
286.793
286.349
285.94
285.555
285.188
284.833
284.489
284.151
283.819
283.49
283.163
322.896
322.689
322.481
322.272
322.062
321.85
321.636
321.419
321.198
320.972
320.737
320.489
320.218
319.902
319.49
322.901
322.703
322.504
322.305
322.105
321.904
321.702
321.499
321.293
321.085
320.872
320.653
320.419
320.148
319.737
322.906
322.717
322.528
322.339
322.149
321.96
321.77
321.58
321.39
321.201
321.013
320.827
320.647
320.49
320.437
322.91
322.731
322.551
322.372
322.193
322.015
321.837
321.661
321.487
321.316
321.151
320.996
320.859
320.76
320.724
322.915
322.745
322.575
322.406
322.237
322.07
321.904
321.741
321.581
321.427
321.282
321.152
321.046
320.985
321.01
322.919
322.759
322.598
322.439
322.28
322.123
321.969
321.818
321.672
321.533
321.404
321.291
321.202
321.15
321.142
322.924
322.772
322.621
322.471
322.322
322.175
322.031
321.892
321.757
321.63
321.514
321.413
321.333
321.285
321.285
322.928
322.785
322.643
322.502
322.362
322.225
322.091
321.962
321.838
321.721
321.614
321.52
321.443
321.385
321.35
322.933
322.798
322.664
322.532
322.401
322.273
322.148
322.028
321.913
321.805
321.705
321.616
321.538
321.471
321.403
322.937
322.81
322.684
322.56
322.438
322.318
322.202
322.09
321.983
321.883
321.789
321.704
321.627
321.557
321.495
322.941
322.822
322.704
322.587
322.473
322.361
322.253
322.148
322.049
321.955
321.868
321.786
321.71
321.636
321.555
322.944
322.833
322.722
322.613
322.506
322.402
322.301
322.204
322.111
322.024
321.942
321.865
321.792
321.721
321.656
322.948
322.843
322.74
322.638
322.537
322.44
322.346
322.255
322.17
322.088
322.012
321.941
321.872
321.803
321.722
322.951
322.853
322.756
322.661
322.567
322.476
322.388
322.304
322.225
322.15
322.08
322.015
321.953
321.893
321.834
322.954
322.862
322.772
322.682
322.595
322.51
322.428
322.35
322.277
322.208
322.144
322.086
322.032
321.981
321.916
322.957
322.871
322.786
322.702
322.621
322.542
322.465
322.393
322.325
322.262
322.204
322.154
322.111
322.08
322.078
322.96
322.879
322.8
322.721
322.645
322.571
322.5
322.433
322.37
322.312
322.26
322.216
322.181
322.158
322.15
322.962
322.887
322.812
322.739
322.667
322.598
322.532
322.47
322.411
322.358
322.311
322.272
322.242
322.226
322.231
322.965
322.894
322.824
322.755
322.688
322.624
322.562
322.504
322.449
322.4
322.357
322.321
322.294
322.278
322.272
322.967
322.9
322.835
322.77
322.708
322.647
322.589
322.535
322.484
322.438
322.398
322.364
322.338
322.323
322.322
322.969
322.906
322.845
322.784
322.725
322.668
322.614
322.563
322.515
322.472
322.434
322.401
322.376
322.358
322.347
322.971
322.912
322.854
322.797
322.742
322.688
322.637
322.589
322.544
322.502
322.465
322.434
322.407
322.388
322.377
322.972
322.917
322.863
322.809
322.757
322.706
322.658
322.612
322.569
322.53
322.494
322.462
322.435
322.411
322.392
322.974
322.922
322.87
322.82
322.77
322.723
322.677
322.633
322.593
322.555
322.52
322.488
322.459
322.432
322.404
322.975
322.926
322.878
322.83
322.783
322.738
322.694
322.653
322.614
322.577
322.543
322.511
322.482
322.454
322.427
322.977
322.93
322.884
322.839
322.795
322.752
322.711
322.671
322.634
322.598
322.565
322.534
322.504
322.474
322.442
322.978
322.934
322.89
322.847
322.805
322.765
322.725
322.688
322.652
322.618
322.586
322.555
322.525
322.496
322.468
322.979
322.937
322.896
322.855
322.815
322.776
322.739
322.703
322.669
322.636
322.605
322.575
322.547
322.517
322.485
322.98
322.94
322.901
322.862
322.824
322.787
322.752
322.717
322.685
322.653
322.624
322.595
322.568
322.541
322.514
322.981
322.943
322.906
322.869
322.833
322.797
322.763
322.731
322.699
322.669
322.641
322.615
322.589
322.565
322.536
322.982
322.946
322.91
322.875
322.84
322.807
322.774
322.743
322.713
322.684
322.658
322.633
322.61
322.591
322.579
322.983
322.948
322.914
322.88
322.847
322.815
322.784
322.754
322.725
322.698
322.673
322.65
322.629
322.612
322.598
322.983
322.95
322.918
322.885
322.854
322.823
322.793
322.764
322.737
322.711
322.687
322.665
322.646
322.63
322.62
322.984
322.952
322.921
322.89
322.86
322.83
322.801
322.774
322.747
322.722
322.699
322.678
322.66
322.644
322.631
322.985
322.954
322.924
322.894
322.865
322.836
322.809
322.782
322.757
322.733
322.71
322.69
322.671
322.656
322.644
322.985
322.956
322.927
322.898
322.87
322.842
322.816
322.79
322.765
322.742
322.72
322.7
322.681
322.665
322.651
322.986
322.957
322.929
322.902
322.874
322.848
322.822
322.797
322.773
322.75
322.728
322.708
322.69
322.673
322.659
322.986
322.959
322.932
322.905
322.878
322.852
322.827
322.803
322.779
322.757
322.736
322.716
322.697
322.68
322.663
322.987
322.96
322.934
322.907
322.882
322.857
322.832
322.808
322.785
322.763
322.742
322.722
322.703
322.685
322.666
322.987
322.961
322.935
322.91
322.885
322.86
322.837
322.813
322.791
322.769
322.748
322.728
322.709
322.69
322.672
322.987
322.962
322.937
322.912
322.888
322.864
322.84
322.818
322.796
322.774
322.754
322.734
322.714
322.695
322.676
322.988
322.963
322.938
322.914
322.89
322.867
322.844
322.822
322.8
322.779
322.759
322.739
322.72
322.701
322.682
322.988
322.964
322.94
322.916
322.893
322.87
322.847
322.825
322.804
322.783
322.763
322.743
322.724
322.706
322.686
322.988
322.964
322.941
322.918
322.895
322.872
322.85
322.828
322.807
322.787
322.767
322.748
322.729
322.711
322.693
322.988
322.965
322.942
322.919
322.896
322.874
322.852
322.831
322.81
322.79
322.771
322.752
322.734
322.716
322.698
322.988
322.965
322.943
322.92
322.898
322.876
322.854
322.833
322.813
322.793
322.774
322.755
322.738
322.721
322.707
322.989
322.966
322.943
322.921
322.899
322.877
322.856
322.835
322.815
322.795
322.776
322.758
322.741
322.725
322.71
322.989
322.966
322.944
322.921
322.9
322.878
322.857
322.836
322.816
322.797
322.779
322.761
322.744
322.728
322.714
322.989
322.966
322.944
322.922
322.9
322.879
322.858
322.837
322.818
322.799
322.78
322.763
322.746
322.73
322.716
322.989
322.966
322.944
322.922
322.9
322.879
322.858
322.838
322.818
322.799
322.781
322.764
322.747
322.732
322.717
322.989
322.966
322.944
322.922
322.901
322.879
322.858
322.838
322.819
322.8
322.782
322.764
322.748
322.732
322.718
322.989
322.966
322.944
322.922
322.9
322.879
322.858
322.838
322.818
322.8
322.781
322.764
322.748
322.732
322.718
322.989
322.966
322.944
322.922
322.9
322.878
322.858
322.837
322.818
322.799
322.781
322.764
322.747
322.732
322.718
322.989
322.966
322.943
322.921
322.899
322.878
322.857
322.836
322.816
322.798
322.779
322.762
322.746
322.731
322.717
322.988
322.966
322.943
322.92
322.898
322.876
322.855
322.835
322.815
322.796
322.778
322.76
322.744
322.729
322.715
322.988
322.965
322.942
322.919
322.897
322.875
322.853
322.832
322.812
322.793
322.775
322.758
322.742
322.727
322.714
322.988
322.964
322.941
322.918
322.895
322.873
322.851
322.83
322.809
322.79
322.772
322.754
322.738
322.724
322.71
322.988
322.964
322.94
322.916
322.893
322.87
322.848
322.827
322.806
322.786
322.767
322.75
322.734
322.719
322.707
322.988
322.963
322.938
322.914
322.89
322.867
322.845
322.823
322.802
322.782
322.763
322.745
322.728
322.713
322.7
322.987
322.962
322.937
322.912
322.888
322.864
322.841
322.818
322.797
322.776
322.757
322.738
322.721
322.705
322.693
322.987
322.961
322.935
322.91
322.885
322.86
322.836
322.814
322.791
322.77
322.75
322.731
322.713
322.696
322.677
322.987
322.96
322.933
322.907
322.881
322.856
322.831
322.808
322.785
322.764
322.743
322.724
322.705
322.687
322.669
322.986
322.958
322.931
322.904
322.877
322.851
322.826
322.802
322.779
322.756
322.735
322.715
322.696
322.677
322.657
322.986
322.957
322.928
322.9
322.873
322.846
322.82
322.795
322.771
322.748
322.727
322.706
322.687
322.668
322.65
322.985
322.955
322.925
322.896
322.868
322.84
322.813
322.787
322.763
322.74
322.718
322.697
322.677
322.659
322.639
322.984
322.953
322.922
322.892
322.862
322.833
322.805
322.779
322.754
322.73
322.708
322.687
322.668
322.649
322.632
322.984
322.951
322.919
322.887
322.856
322.826
322.797
322.769
322.743
322.719
322.696
322.676
322.657
322.639
322.622
322.983
322.949
322.915
322.882
322.849
322.818
322.788
322.759
322.732
322.707
322.684
322.663
322.645
322.629
322.616
322.982
322.946
322.911
322.876
322.842
322.809
322.777
322.747
322.719
322.693
322.67
322.649
322.632
322.618
322.609
322.981
322.943
322.906
322.869
322.833
322.799
322.766
322.734
322.705
322.678
322.654
322.633
322.616
322.603
322.594
322.98
322.94
322.901
322.862
322.824
322.788
322.753
322.72
322.689
322.661
322.636
322.614
322.597
322.586
322.582
322.979
322.937
322.895
322.854
322.814
322.776
322.739
322.704
322.671
322.641
322.615
322.592
322.575
322.563
322.557
322.978
322.933
322.889
322.846
322.803
322.762
322.723
322.686
322.652
322.62
322.591
322.567
322.548
322.536
322.536
322.976
322.929
322.882
322.836
322.791
322.748
322.707
322.667
322.63
322.596
322.565
322.538
322.516
322.501
322.494
322.975
322.925
322.875
322.826
322.778
322.732
322.688
322.646
322.607
322.57
322.536
322.506
322.48
322.46
322.456
322.973
322.92
322.867
322.815
322.765
322.715
322.668
322.623
322.581
322.541
322.504
322.47
322.439
322.409
322.372
322.972
322.915
322.859
322.803
322.749
322.697
322.647
322.599
322.554
322.511
322.471
322.433
322.398
322.363
322.329
322.97
322.909
322.849
322.791
322.733
322.678
322.624
322.573
322.524
322.479
322.436
322.395
322.356
322.316
322.269
322.968
322.903
322.84
322.777
322.716
322.656
322.599
322.545
322.493
322.445
322.399
322.356
322.314
322.273
322.234
322.966
322.897
322.829
322.762
322.697
322.634
322.573
322.515
322.46
322.409
322.36
322.315
322.272
322.229
322.181
322.963
322.89
322.818
322.746
322.677
322.609
322.545
322.483
322.425
322.371
322.32
322.273
322.229
322.187
322.149
322.961
322.883
322.805
322.729
322.655
322.583
322.514
322.448
322.387
322.33
322.277
322.229
322.185
322.144
322.1
322.958
322.875
322.792
322.711
322.632
322.555
322.481
322.411
322.346
322.286
322.231
322.182
322.139
322.103
322.073
322.955
322.866
322.778
322.691
322.606
322.524
322.445
322.371
322.301
322.238
322.181
322.131
322.09
322.056
322.038
322.952
322.857
322.763
322.67
322.579
322.491
322.407
322.327
322.253
322.185
322.125
322.075
322.034
321.999
321.958
322.949
322.848
322.747
322.648
322.551
322.456
322.365
322.279
322.199
322.127
322.064
322.013
321.974
321.947
321.923
322.946
322.838
322.73
322.624
322.52
322.418
322.32
322.227
322.14
322.062
321.994
321.941
321.906
321.892
321.897
322.942
322.827
322.712
322.599
322.487
322.378
322.272
322.171
322.076
321.989
321.915
321.857
321.823
321.823
321.866
322.939
322.816
322.694
322.572
322.453
322.335
322.22
322.11
322.005
321.908
321.824
321.756
321.717
321.725
321.81
322.935
322.804
322.674
322.545
322.417
322.29
322.166
322.045
321.929
321.819
321.72
321.636
321.579
321.573
321.681
289.574
288.437
287.688
287.118
286.641
286.217
285.826
285.458
285.107
284.767
284.435
284.11
283.79
283.473
283.157
289.173
288.071
287.408
286.9
286.466
286.073
285.707
285.359
285.025
284.7
284.382
284.07
283.762
283.456
283.152
287.588
287.401
287.02
286.632
286.262
285.911
285.575
285.251
284.936
284.628
284.325
284.027
283.731
283.438
283.146
286.965
286.867
286.636
286.35
286.045
285.739
285.436
285.137
284.842
284.552
284.265
283.981
283.7
283.419
283.14
286.377
286.424
286.292
286.08
285.83
285.565
285.293
285.019
284.746
284.474
284.204
283.935
283.667
283.4
283.133
286.111
286.104
286.004
285.835
285.626
285.395
285.151
284.901
284.649
284.395
284.141
283.887
283.633
283.38
283.127
285.835
285.848
285.763
285.619
285.438
285.233
285.013
284.785
284.552
284.316
284.078
283.839
283.6
283.36
283.12
285.712
285.66
285.564
285.429
285.266
285.081
284.882
284.673
284.458
284.239
284.016
283.792
283.566
283.34
283.113
285.613
285.503
285.391
285.26
285.108
284.939
284.757
284.565
284.367
284.163
283.955
283.745
283.534
283.321
283.107
285.443
285.346
285.232
285.104
284.962
284.806
284.639
284.462
284.279
284.09
283.896
283.7
283.501
283.301
283.101
285.333
285.202
285.083
284.959
284.825
284.681
284.527
284.365
284.195
284.019
283.84
283.656
283.47
283.283
283.094
285.151
285.049
284.937
284.82
284.696
284.563
284.421
284.272
284.115
283.952
283.785
283.614
283.441
283.265
283.088
285.032
284.903
284.794
284.686
284.573
284.451
284.321
284.184
284.039
283.888
283.733
283.574
283.412
283.248
283.083
284.831
284.743
284.652
284.556
284.455
284.345
284.227
284.1
283.967
283.828
283.684
283.536
283.385
283.232
283.077
284.685
284.586
284.511
284.431
284.343
284.245
284.137
284.022
283.899
283.771
283.637
283.5
283.359
283.216
283.072
284.4
284.412
284.373
284.312
284.237
284.15
284.054
283.948
283.836
283.717
283.593
283.466
283.335
283.202
283.067
284.272
284.275
284.25
284.203
284.14
284.063
283.976
283.88
283.777
283.667
283.552
283.434
283.312
283.188
283.063
284.13
284.156
284.143
284.106
284.051
283.983
283.905
283.817
283.722
283.62
283.514
283.404
283.291
283.175
283.059
284.059
284.065
284.053
284.02
283.972
283.911
283.839
283.759
283.671
283.577
283.479
283.376
283.271
283.163
283.055
283.974
283.987
283.976
283.946
283.902
283.846
283.78
283.706
283.624
283.538
283.446
283.351
283.253
283.152
283.051
283.93
283.927
283.912
283.882
283.84
283.788
283.726
283.657
283.582
283.501
283.416
283.327
283.236
283.142
283.048
283.879
283.876
283.857
283.826
283.785
283.736
283.678
283.613
283.543
283.468
283.388
283.305
283.22
283.133
283.044
283.854
283.836
283.811
283.778
283.737
283.689
283.634
283.574
283.508
283.437
283.363
283.286
283.206
283.124
283.041
283.833
283.801
283.77
283.734
283.694
283.647
283.595
283.538
283.476
283.409
283.34
283.267
283.193
283.116
283.039
283.796
283.765
283.732
283.695
283.654
283.609
283.559
283.505
283.446
283.384
283.319
283.251
283.18
283.109
283.036
283.771
283.732
283.695
283.658
283.618
283.574
283.526
283.475
283.419
283.361
283.299
283.235
283.169
283.102
283.034
283.729
283.696
283.66
283.623
283.584
283.542
283.496
283.447
283.395
283.34
283.282
283.221
283.159
283.096
283.032
283.702
283.662
283.626
283.59
283.553
283.512
283.469
283.422
283.373
283.32
283.266
283.209
283.15
283.091
283.03
283.655
283.624
283.592
283.558
283.523
283.485
283.443
283.399
283.352
283.303
283.251
283.197
283.142
283.086
283.029
283.621
283.587
283.558
283.528
283.495
283.459
283.42
283.378
283.334
283.287
283.237
283.187
283.134
283.081
283.027
283.556
283.547
283.526
283.5
283.469
283.435
283.399
283.359
283.317
283.272
283.225
283.177
283.127
283.077
283.026
283.526
283.515
283.497
283.474
283.446
283.414
283.379
283.341
283.301
283.259
283.214
283.168
283.121
283.073
283.024
283.494
283.488
283.473
283.451
283.425
283.395
283.362
283.326
283.287
283.247
283.204
283.161
283.116
283.07
283.023
283.479
283.468
283.452
283.431
283.406
283.378
283.346
283.312
283.275
283.236
283.196
283.154
283.111
283.067
283.022
283.46
283.451
283.435
283.415
283.391
283.363
283.332
283.299
283.264
283.227
283.188
283.147
283.106
283.064
283.021
283.451
283.438
283.421
283.401
283.377
283.35
283.321
283.289
283.254
283.218
283.181
283.142
283.102
283.062
283.021
283.441
283.427
283.41
283.389
283.366
283.339
283.31
283.279
283.246
283.211