/*--------------------------------*- C++ -*----------------------------------*\
| =========                 |                                                 |
| \\      /  F ield         | OpenFOAM: The Open Source CFD Toolbox           |
|  \\    /   O peration     | Version:  5.x                                   |
|   \\  /    A nd           | Web:      www.OpenFOAM.org                      |
|    \\/     M anipulation  |                                                 |
\*---------------------------------------------------------------------------*/
FoamFile
{
    version     2.0;
    format      ascii;
    class       volScalarField;
    location    "6.8";
    object      gradTy;
}
// * * * * * * * * * * * * * * * * * * * * * * * * * * * * * * * * * * * * * //

dimensions      [0 -1 0 1 0 0 0];

internalField   nonuniform List<scalar> 
3200
(
18.2491
8.63593
11.73
8.31253
9.74992
8.03995
8.79413
7.7929
8.2418
7.60097
7.87637
7.51749
7.72795
7.31763
7.52987
7.13961
7.33878
6.98022
7.16199
6.83808
7.0014
6.71247
6.85754
6.60242
6.73043
6.50628
6.62054
6.42091
6.53589
6.36677
6.23163
6.31877
6.20031
6.25795
6.16582
6.21045
6.13649
6.17239
6.11228
6.14147
6.09244
6.11622
6.07629
6.09559
6.06332
6.07875
6.0532
6.06509
6.04599
6.05417
6.0431
6.04923
6.03769
6.04306
6.03415
6.03776
6.03287
6.03389
6.03458
6.0319
6.04067
6.03232
6.05369
6.03585
6.07865
6.04279
6.12654
6.04836
6.22317
6.00076
6.29315
7.10887
6.42161
7.94766
6.78058
9.89624
9.12562
9.00778
8.98345
8.97821
17.0095
9.75188
11.3324
8.77653
9.54717
8.27014
8.67391
7.92544
8.16464
7.68518
7.83222
7.56434
7.6765
7.36911
7.48123
7.18888
7.29418
7.02562
7.12176
6.87915
6.96555
6.74915
6.82591
6.63484
6.7026
6.53475
6.5954
6.4461
6.50844
6.37056
6.25651
6.3044
6.21592
6.24665
6.17769
6.20137
6.14598
6.165
6.11998
6.13544
6.09873
6.11132
6.08142
6.09163
6.06746
6.07563
6.0565
6.06278
6.04848
6.05282
6.04456
6.04781
6.03916
6.04199
6.03531
6.03721
6.03354
6.03407
6.03458
6.03313
6.03968
6.03522
6.05119
6.04164
6.07361
6.0543
6.11673
6.07394
6.20338
6.07617
6.35164
6.99357
6.62344
7.76498
7.15799
9.50291
9.09947
9.00399
8.98263
8.97795
16.0602
10.5142
11.1001
9.10741
9.42627
8.43306
8.59973
8.01843
8.11618
7.74427
7.80462
7.59595
7.64179
7.40376
7.44872
7.2222
7.2645
7.05637
7.09503
6.90702
6.94177
6.77406
6.80494
6.65686
6.68415
6.55405
6.57862
6.46279
6.48895
6.37337
6.27489
6.29546
6.22674
6.23932
6.18584
6.19541
6.15248
6.16015
6.12525
6.13148
6.10302
6.1081
6.08492
6.08903
6.0703
6.07359
6.05876
6.06129
6.05021
6.05197
6.04554
6.04686
6.04016
6.04129
6.03612
6.03687
6.03404
6.03424
6.03464
6.03404
6.03913
6.03729
6.0497
6.04576
6.0706
6.06254
6.11112
6.09262
6.19385
6.13546
6.39546
6.91877
6.76481
7.65227
7.41733
9.21956
9.06103
8.99728
8.9812
8.97755
15.3327
11.0313
10.9711
9.34584
9.35785
8.54958
8.55547
8.08425
8.0865
7.78608
7.78778
7.61737
7.61843
7.42709
7.42706
7.24476
7.24483
7.07726
7.07737
6.92597
6.92608
6.79102
6.79113
6.67186
6.672
6.56715
6.56746
6.4738
6.47514
6.37549
6.28851
6.29008
6.23431
6.23462
6.19146
6.19156
6.15695
6.157
6.12887
6.12891
6.10598
6.10601
6.08733
6.08735
6.07226
6.07227
6.06033
6.06033
6.05142
6.05145
6.04621
6.04623
6.04085
6.04084
6.03669
6.03668
6.03441
6.0344
6.03474
6.03471
6.03885
6.03879
6.04886
6.04872
6.06891
6.06852
6.1082
6.10651
6.1907
6.18202
6.42876
6.87105
6.86453
7.58446
7.59519
9.01464
9.01881
8.98866
8.97927
8.977
14.7772
11.3788
10.9046
9.51877
9.32224
8.63353
8.53029
8.13114
8.06893
7.8158
7.77783
7.63193
7.60277
7.44277
7.4127
7.26003
7.23186
7.09144
7.06577
6.93887
6.9158
6.80258
6.7821
6.68209
6.66404
6.57605
6.56006
6.48101
6.46537
6.37711
6.29858
6.287
6.23964
6.23166
6.19536
6.18909
6.16003
6.15498
6.13137
6.12726
6.10801
6.10466
6.08899
6.08627
6.07361
6.07143
6.06142
6.05974
6.05227
6.05113
6.04667
6.04581
6.04133
6.04056
6.0371
6.03658
6.0347
6.03454
6.03486
6.03522
6.03874
6.03989
6.04843
6.05088
6.06805
6.07289
6.10694
6.11697
6.19126
6.21837
6.45423
6.84128
6.93519
7.54501
7.7167
8.86632
8.97795
8.97921
8.97705
8.97636
14.3577
11.6093
10.8746
9.64413
9.30632
8.69406
8.51695
8.16454
8.059
7.83691
7.77219
7.64183
7.59234
7.45326
7.40324
7.27032
7.22339
7.10103
7.05821
6.94761
6.90913
6.81042
6.77625
6.68903
6.65888
6.58207
6.55518
6.48568
6.4585
6.37833
6.30597
6.28534
6.24339
6.22984
6.19805
6.18754
6.16215
6.15369
6.13309
6.12621
6.10941
6.10381
6.09013
6.08559
6.07454
6.07091
6.06218
6.05937
6.05287
6.05095
6.04698
6.04554
6.04166
6.04039
6.03739
6.03654
6.03491
6.03467
6.03497
6.0356
6.03873
6.04069
6.04825
6.05244
6.06768
6.07609
6.10663
6.12486
6.19371
6.24636
6.47365
6.82324
6.98522
7.52309
7.7991
8.75953
8.94152
8.9699
8.97478
8.9757
14.0481
11.7592
10.8644
9.73378
9.30138
8.73719
8.51061
8.18807
8.05373
7.85173
7.76917
7.64848
7.58549
7.46018
7.3971
7.27716
7.21793
7.10744
7.05337
6.95346
6.90487
6.81569
6.77252
6.6937
6.65559
6.58609
6.552
6.48866
6.45375
6.37924
6.3113
6.28454
6.246
6.22874
6.19989
6.18658
6.16359
6.1529
6.13425
6.12556
6.11036
6.10328
6.09091
6.08517
6.07518
6.07058
6.06269
6.05916
6.05329
6.05085
6.0472
6.04537
6.04188
6.04029
6.03759
6.03652
6.03507
6.03477
6.03508
6.03589
6.03876
6.04127
6.0482
6.05356
6.06758
6.0784
6.10681
6.13072
6.19681
6.26737
6.48819
6.8127
7.02021
7.51165
7.85412
8.68388
8.91123
8.96153
8.97266
8.97507
13.8301
11.8534
10.8637
9.79551
9.30171
8.76681
8.50812
8.20408
8.05117
7.86177
7.76768
7.65283
7.58113
7.46461
7.39323
7.28158
7.21452
7.11159
7.05036
6.95726
6.90223
6.81911
6.77021
6.69673
6.65355
6.58869
6.55
6.4905
6.45059
6.37989
6.31497
6.28422
6.24776
6.22811
6.20111
6.18601
6.16454
6.15242
6.13502
6.12517
6.11099
6.10296
6.09142
6.08491
6.0756
6.07039
6.06304
6.05903
6.05357
6.0508
6.04734
6.04526
6.04202
6.04023
6.03772
6.03652
6.03518
6.03485
6.03516
6.03609
6.03881
6.04167
6.04822
6.05433
6.06761
6.08001
6.10718
6.1349
6.19973
6.28236
6.49857
6.80684
7.04384
7.50616
7.88964
8.63232
8.88802
8.95473
8.97089
8.97455
13.6912
11.908
10.8661
9.83425
9.30368
8.78538
8.50744
8.21403
8.05006
7.868
7.76703
7.65545
7.57857
7.46723
7.39097
7.28421
7.21255
7.11407
7.04862
6.95954
6.90071
6.82116
6.76889
6.69855
6.65238
6.59025
6.54882
6.49155
6.44865
6.38031
6.31728
6.28412
6.24885
6.22777
6.20185
6.1857
6.16512
6.15216
6.13549
6.12495
6.11137
6.10279
6.09173
6.08477
6.07585
6.07029
6.06325
6.05897
6.05374
6.05077
6.04742
6.04519
6.04211
6.04019
6.03781
6.03652
6.03525
6.0349
6.03521
6.03621
6.03885
6.04192
6.04825
6.05482
6.06768
6.08104
6.10752
6.13759
6.20194
6.29202
6.50527
6.80384
7.05846
7.50382
7.9108
8.60025
8.87237
8.94995
8.96963
8.97416
13.6236
11.933
10.8681
9.85295
9.30516
8.79433
8.50737
8.21881
8.04968
7.87098
7.76679
7.65669
7.57739
7.46845
7.38994
7.28544
7.21164
7.11523
7.04783
6.9606
6.90001
6.82213
6.76829
6.6994
6.65185
6.59098
6.54828
6.49203
6.44774
6.38051
6.31839
6.2841
6.24937
6.22762
6.2022
6.18556
6.16539
6.15204
6.1357
6.12485
6.11155
6.10271
6.09188
6.08471
6.07597
6.07024
6.06335
6.05894
6.05383
6.05076
6.04746
6.04517
6.04215
6.04018
6.03785
6.03653
6.03529
6.03493
6.03524
6.03628
6.03887
6.04205
6.04827
6.05506
6.06772
6.08153
6.10772
6.13891
6.20311
6.29675
6.50856
6.80259
7.06545
7.50303
7.92067
8.58486
8.8645
8.94749
8.96897
8.97396
-13.7611
-11.9556
-10.7266
-9.38744
-8.57702
-7.68517
-7.12321
-6.47133
-6.05629
-5.5742
-5.28076
-4.95512
-4.7175
-4.38898
-4.15329
-3.84158
-3.62374
-3.34253
-3.14827
-2.90012
-2.72956
-2.5127
-2.3639
-2.17492
-2.0449
-1.87895
-1.76239
-1.60839
-1.48598
-1.29832
-1.1226
-1.02399
-0.921657
-0.856324
-0.77822
-0.726099
-0.661616
-0.618092
-0.563739
-0.526931
-0.48084
-0.449617
-0.410528
-0.384109
-0.351146
-0.329041
-0.301755
-0.283871
-0.262484
-0.249284
-0.234401
-0.223439
-0.208171
-0.19717
-0.182562
-0.172327
-0.159083
-0.149924
-0.138214
-0.13018
-0.119996
-0.11309
-0.104474
-0.098867
-0.0923187
-0.0889737
-0.0869457
-0.0903998
-0.104672
-0.138606
-0.228726
-0.374867
-0.529468
-0.815976
-1.11866
-1.62782
-1.84321
-1.90721
-1.92378
-1.92764
-13.8333
-11.9326
-10.731
-9.36629
-8.58028
-7.67198
-7.12681
-6.46186
-6.05898
-5.56666
-5.28205
-4.9516
-4.72114
-4.38527
-4.15634
-3.83782
-3.62628
-3.33905
-3.15043
-2.89702
-2.73142
-2.50998
-2.36551
-2.17256
-2.04634
-1.87698
-1.76389
-1.60714
-1.48859
-1.29784
-1.11952
-1.02415
-0.92018
-0.856837
-0.777183
-0.726595
-0.66078
-0.618527
-0.563039
-0.527304
-0.480247
-0.449934
-0.410023
-0.384373
-0.350714
-0.32925
-0.30138
-0.284013
-0.262157
-0.249353
-0.234245
-0.223613
-0.208001
-0.197315
-0.182388
-0.172449
-0.158921
-0.150027
-0.138068
-0.130267
-0.119866
-0.113159
-0.104354
-0.0989054
-0.0921913
-0.0889217
-0.0867271
-0.0899677
-0.103886
-0.136359
-0.226486
-0.374529
-0.524191
-0.815329
-1.1104
-1.63957
-1.84926
-1.90911
-1.92429
-1.92779
-13.9816
-11.8816
-10.742
-9.322
-8.58844
-7.64426
-7.13521
-6.44191
-6.06525
-5.55081
-5.28518
-4.94409
-4.729
-4.37729
-4.16297
-3.8298
-3.63185
-3.33164
-3.15518
-2.89041
-2.73551
-2.50419
-2.36907
-2.16754
-2.04951
-1.87276
-1.76714
-1.60435
-1.49409
-1.29687
-1.11313
-1.02464
-0.91708
-0.858005
-0.774986
-0.727704
-0.659004
-0.619494
-0.561552
-0.528132
-0.478987
-0.450636
-0.408949
-0.384958
-0.349795
-0.329717
-0.300587
-0.284336
-0.261471
-0.249515
-0.233912
-0.223987
-0.207636
-0.197632
-0.182016
-0.172715
-0.158574
-0.150254
-0.137757
-0.130459
-0.119589
-0.113313
-0.104101
-0.0989954
-0.091927
-0.0888276
-0.0862918
-0.0891092
-0.102359
-0.131807
-0.221929
-0.374127
-0.513256
-0.814524
-1.09278
-1.6641
-1.86131
-1.91279
-1.92526
-1.92808
-14.2139
-11.7922
-10.7642
-9.25026
-8.60503
-7.59915
-7.15099
-6.4093
-6.07703
-5.52502
-5.29133
-4.93155
-4.74234
-4.36381
-4.17436
-3.81637
-3.64151
-3.31928
-3.16347
-2.87941
-2.74267
-2.49455
-2.37528
-2.15919
-2.05504
-1.8657
-1.77268
-1.59947
-1.50308
-1.29537
-1.10292
-1.02591
-0.912044
-0.860135
-0.771363
-0.729672
-0.656063
-0.621201
-0.559086
-0.529592
-0.476897
-0.451874
-0.407169
-0.385993
-0.348275
-0.330548
-0.299281
-0.284925
-0.260349
-0.249825
-0.233353
-0.224619
-0.207019
-0.198174
-0.181392
-0.173176
-0.157996
-0.150649
-0.137239
-0.130795
-0.119129
-0.113586
-0.103685
-0.0991647
-0.0915048
-0.0887117
-0.0856432
-0.0878341
-0.100184
-0.124828
-0.21489
-0.374247
-0.495836
-0.814639
-1.06344
-1.70359
-1.87919
-1.91803
-1.92662
-1.92849
-14.543
-11.647
-10.8058
-9.14377
-8.63605
-7.53174
-7.17851
-6.36033
-6.09761
-5.4865
-5.30254
-4.91219
-4.76324
-4.34278
-4.1925
-3.79562
-3.65708
-3.30027
-3.1769
-2.86252
-2.75428
-2.47976
-2.38537
-2.14636
-2.06398
-1.85478
-1.78144
-1.59152
-1.51652
-1.29326
-1.08811
-1.02865
-0.904532
-0.863741
-0.765859
-0.732919
-0.651574
-0.624
-0.555317
-0.531982
-0.473702
-0.453901
-0.404451
-0.387691
-0.345957
-0.331922
-0.297299
-0.285924
-0.258667
-0.250374
-0.232486
-0.225608
-0.206052
-0.199035
-0.180428
-0.173917
-0.157106
-0.151287
-0.136443
-0.131341
-0.118425
-0.114033
-0.103055
-0.0994605
-0.0908887
-0.0886076
-0.084785
-0.0861535
-0.0975185
-0.115233
-0.205079
-0.375879
-0.470527
-0.817555
-1.01843
-1.76167
-1.90253
-1.92449
-1.92825
-1.92897
-14.988
-11.4196
-10.8802
-8.99112
-8.69094
-7.43428
-7.22463
-6.28913
-6.13213
-5.43091
-5.322
-4.88317
-4.79502
-4.31095
-4.22051
-3.76455
-3.68138
-3.27193
-3.19797
-2.8374
-2.77255
-2.45778
-2.40126
-2.12727
-2.07799
-1.83844
-1.79486
-1.57897
-1.5359
-1.29042
-1.06746
-1.03398
-0.89369
-0.869634
-0.75776
-0.738105
-0.644937
-0.628446
-0.549737
-0.535772
-0.46897
-0.457117
-0.400427
-0.39039
-0.342532
-0.334121
-0.29439
-0.28756
-0.256229
-0.251308
-0.23118
-0.227105
-0.204585
-0.200361
-0.17898
-0.175071
-0.155777
-0.152288
-0.135259
-0.1322
-0.117382
-0.114746
-0.10213
-0.0999563
-0.0900219
-0.088566
-0.08372
-0.0840736
-0.0945995
-0.102753
-0.192031
-0.380556
-0.435123
-0.826317
-0.95174
-1.84384
-1.93064
-1.93167
-1.93
-1.92947
-15.5757
-11.0711
-11.0086
-8.77492
-8.7841
-7.29496
-7.29979
-6.18681
-6.18843
-5.35162
-5.35467
-4.84014
-4.84264
-4.26338
-4.26314
-3.71856
-3.71874
-3.23017
-3.23052
-2.80045
-2.80082
-2.42546
-2.42584
-2.09919
-2.09962
-1.81427
-1.81518
-1.55952
-1.56338
-1.28669
-1.03925
-1.04359
-0.878202
-0.879042
-0.745975
-0.746233
-0.635236
-0.635383
-0.541569
-0.541677
-0.462043
-0.462127
-0.394538
-0.394603
-0.337532
-0.337575
-0.290166
-0.290178
-0.252735
-0.252853
-0.229234
-0.229341
-0.202388
-0.202375
-0.176835
-0.176842
-0.153817
-0.153832
-0.133517
-0.133531
-0.115852
-0.115858
-0.100788
-0.100763
-0.0888167
-0.0886609
-0.0824476
-0.0815876
-0.091776
-0.0870287
-0.175013
-0.390593
-0.386254
-0.845709
-0.854378
-1.95822
-1.96217
-1.93895
-1.93171
-1.92996
-16.3436
-10.5449
-11.2239
-8.46901
-8.93719
-7.09587
-7.41967
-6.0399
-6.27827
-5.23874
-5.40804
-4.77643
-4.91353
-4.19265
-4.32756
-3.6508
-3.77565
-3.16886
-3.28028
-2.74628
-2.84413
-2.37813
-2.46351
-2.05804
-2.13268
-1.77865
-1.84576
-1.52969
-1.60208
-1.2818
-1.00096
-1.05999
-0.856067
-0.89381
-0.728859
-0.758815
-0.621091
-0.646081
-0.529647
-0.550775
-0.451928
-0.469847
-0.385945
-0.401104
-0.330249
-0.342928
-0.284047
-0.294295
-0.24774
-0.255348
-0.22634
-0.232662
-0.199115
-0.205411
-0.17367
-0.179535
-0.150937
-0.156189
-0.130963
-0.135571
-0.113616
-0.117574
-0.0988457
-0.102048
-0.0871408
-0.0889988
-0.080962
-0.0786604
-0.0895506
-0.0675959
-0.152892
-0.409426
-0.318833
-0.883133
-0.713209
-2.1166
-1.99479
-1.9456
-1.93319
-1.93038
-17.3434
-9.75964
-11.5766
-8.03418
-9.18267
-6.81019
-7.6077
-5.82828
-6.41922
-5.07752
-5.49346
-4.68197
-5.01875
-4.0877
-4.42444
-3.55097
-3.86183
-3.07883
-3.35586
-2.66685
-2.91
-2.30874
-2.52082
-1.99768
-2.18289
-1.72618
-1.89168
-1.48432
-1.65649
-1.27533
-0.949081
-1.08691
-0.824269
-0.916688
-0.70395
-0.778107
-0.60044
-0.662438
-0.512225
-0.564673
-0.437145
-0.481642
-0.373392
-0.411048
-0.319626
-0.351146
-0.275164
-0.300687
-0.24058
-0.259309
-0.222034
-0.237578
-0.194249
-0.209969
-0.169001
-0.183608
-0.146704
-0.159767
-0.127217
-0.138674
-0.110344
-0.120199
-0.0960268
-0.104058
-0.0847951
-0.0897333
-0.0792476
-0.0752063
-0.0886397
-0.0438737
-0.123922
-0.442145
-0.225216
-0.949926
-0.509107
-2.33598
-2.0245
-1.95078
-1.93429
-1.93068
-18.647
-8.59864
-12.1439
-7.41203
-9.5693
-6.39804
-7.89913
-5.52217
-6.63781
-4.84632
-5.62829
-4.5419
-5.175
-3.93234
-4.57005
-3.40407
-3.99208
-2.94669
-3.47038
-2.55041
-3.00992
-2.20708
-2.60781
-1.90925
-2.25904
-1.64907
-1.96075
-1.416
-1.73326
-1.26687
-0.878831
-1.13004
-0.778445
-0.951949
-0.667728
-0.807635
-0.570354
-0.687435
-0.486836
-0.585911
-0.415611
-0.499675
-0.355121
-0.426273
-0.304195
-0.363773
-0.262323
-0.310604
-0.230361
-0.265604
-0.215705
-0.244938
-0.187105
-0.216879
-0.162187
-0.189819
-0.140543
-0.165241
-0.121776
-0.143435
-0.105605
-0.124246
-0.0919757
-0.107216
-0.0815325
-0.0911361
-0.0773218
-0.0710995
-0.0900968
-0.015199
-0.0854537
-0.496281
-0.0939462
-1.06333
-0.214287
-2.64086
-2.04467
-1.95363
-1.93484
-1.9308
18.647
8.59864
12.1439
7.41203
9.5693
6.39804
7.89913
5.52217
6.63781
4.84632
5.62829
4.5419
5.175
3.93234
4.57005
3.40407
3.99208
2.94669
3.47038
2.55041
3.00992
2.20708
2.60781
1.90925
2.25904
1.64907
1.96075
1.416
1.73326
1.26687
0.878829
1.13004
0.778443
0.951949
0.667727
0.807634
0.570353
0.687435
0.486835
0.58591
0.41561
0.499675
0.355121
0.426273
0.304194
0.363773
0.262322
0.310604
0.23036
0.265604
0.215704
0.244938
0.187104
0.216879
0.162187
0.189819
0.140543
0.165241
0.121776
0.143435
0.105605
0.124246
0.0919755
0.107216
0.0815323
0.0911361
0.0773215
0.0710997
0.0900964
0.0151997
0.0854534
0.496279
0.0939463
1.06333
0.214287
2.64087
2.04467
1.95363
1.93485
1.93081
17.3434
9.75964
11.5766
8.03418
9.18267
6.8102
7.6077
5.82828
6.41923
5.07752
5.49346
4.68197
5.01875
4.0877
4.42444
3.55097
3.86184
3.07883
3.35587
2.66685
2.91
2.30874
2.52082
1.99768
2.1829
1.72619
1.89168
1.48432
1.65649
1.27533
0.949082
1.08691
0.82427
0.91669
0.703951
0.778108
0.600442
0.66244
0.512226
0.564674
0.437147
0.481643
0.373393
0.411049
0.319627
0.351147
0.275165
0.300688
0.240581
0.25931
0.222035
0.237579
0.19425
0.20997
0.169002
0.183609
0.146705
0.159768
0.127218
0.138675
0.110344
0.1202
0.0960274
0.104059
0.0847956
0.089734
0.079248
0.0752069
0.0886399
0.0438744
0.123922
0.442142
0.225215
0.949923
0.509104
2.33598
2.0245
1.95078
1.93429
1.93068
16.3436
10.5449
11.2239
8.46902
8.9372
7.09588
7.41968
6.03991
6.27827
5.23875
5.40805
4.77643
4.91354
4.19266
4.32756
3.6508
3.77566
3.16887
3.28029
2.74629
2.84414
2.37813
2.46352
2.05804
2.13268
1.77865
1.84577
1.52969
1.60208
1.2818
1.00096
1.05999
0.856071
0.893814
0.728862
0.758819
0.621094
0.646084
0.52965
0.550777
0.451931
0.46985
0.385948
0.401107
0.330251
0.34293
0.284049
0.294298
0.247742
0.25535
0.226342
0.232664
0.199117
0.205413
0.173672
0.179537
0.150939
0.156191
0.130965
0.135573
0.113617
0.117576
0.098847
0.10205
0.087142
0.089
0.080963
0.0786615
0.0895513
0.0675968
0.152892
0.409424
0.318831
0.88313
0.713206
2.11659
1.99478
1.9456
1.93319
1.93038
15.5757
11.0711
11.0087
8.77493
8.78411
7.29497
7.2998
6.18682
6.18844
5.35163
5.35467
4.84015
4.84265
4.26339
4.26315
3.71857
3.71875
3.23018
3.23052
2.80045
2.80083
2.42547
2.42585
2.0992
2.09962
1.81428
1.81519
1.55952
1.56338
1.2867
1.03925
1.0436
0.878206
0.879047
0.745979
0.746237
0.63524
0.635387
0.541573
0.541681
0.462046
0.462131
0.394541
0.394606
0.337535
0.337577
0.290169
0.29018
0.252737
0.252855
0.229236
0.229344
0.202391
0.202377
0.176838
0.176844
0.153819
0.153834
0.133519
0.133533
0.115854
0.11586
0.10079
0.100765
0.0888182
0.0886623
0.0824489
0.0815889
0.0917769
0.0870296
0.175013
0.390591
0.386252
0.845706
0.854375
1.95822
1.96217
1.93895
1.93171
1.92996
14.988
11.4196
10.8802
8.99113
8.69095
7.43429
7.22464
6.28914
6.13214
5.43092
5.32201
4.88318
4.79503
4.31096
4.22052
3.76456
3.68139
3.27194
3.19798
2.83741
2.77256
2.45778
2.40126
2.12727
2.078
1.83845
1.79487
1.57898
1.53591
1.29043
1.06747
1.03399
0.893695
0.869639
0.757764
0.738109
0.644941
0.62845
0.549741
0.535775
0.468974
0.45712
0.40043
0.390393
0.342535
0.334124
0.294393
0.287563
0.256231
0.251311
0.231183
0.227108
0.204588
0.200364
0.178983
0.175073
0.155779
0.15229
0.135261
0.132202
0.117384
0.114747
0.102132
0.0999579
0.0900234
0.0885675
0.0837213
0.0840749
0.0946004
0.102754
0.192031
0.380555
0.435121
0.826314
0.951737
1.84384
1.93063
1.93166
1.93
1.92947
14.543
11.647
10.8058
9.14378
8.63606
7.53175
7.17852
6.36034
6.09762
5.48651
5.30255
4.9122
4.76325
4.34279
4.19251
3.79563
3.65709
3.30028
3.17691
2.86253
2.75429
2.47977
2.38538
2.14636
2.06398
1.85479
1.78145
1.59152
1.51653
1.29326
1.08811
1.02866
0.904537
0.863746
0.765863
0.732923
0.651578
0.624004
0.555321
0.531986
0.473706
0.453905
0.404454
0.387694
0.34596
0.331925
0.297302
0.285927
0.25867
0.250377
0.232489
0.22561
0.206055
0.199038
0.18043
0.173919
0.157108
0.151289
0.136445
0.131343
0.118427
0.114035
0.103056
0.0994621
0.0908903
0.0886091
0.0847864
0.0861547
0.0975194
0.115233
0.205079
0.375877
0.470525
0.817552
1.01843
1.76167
1.90253
1.92448
1.92825
1.92896
14.2139
11.7922
10.7642
9.25027
8.60504
7.59916
7.151
6.40931
6.07704
5.52503
5.29134
4.93156
4.74234
4.36382
4.17437
3.81638
3.64152
3.31929
3.16348
2.87942
2.74267
2.49456
2.37529
2.15919
2.05505
1.8657
1.77269
1.59948
1.50309
1.29537
1.10293
1.02591
0.912049
0.860139
0.771367
0.729676
0.656067
0.621205
0.55909
0.529596
0.4769
0.451877
0.407173
0.385996
0.348278
0.330551
0.299283
0.284927
0.260352
0.249827
0.233356
0.224622
0.207021
0.198176
0.181395
0.173178
0.157998
0.150651
0.137241
0.130797
0.119131
0.113587
0.103687
0.0991663
0.0915063
0.0887132
0.0856446
0.0878354
0.100185
0.124828
0.21489
0.374246
0.495834
0.814637
1.06343
1.70359
1.87918
1.91803
1.92662
1.92848
13.9816
11.8816
10.742
9.32201
8.58845
7.64427
7.13522
6.44192
6.06526
5.55082
5.28519
4.9441
4.72901
4.3773
4.16298
3.82981
3.63186
3.33165
3.15519
2.89042
2.73552
2.50419
2.36907
2.16755
2.04952
1.87276
1.76715
1.60436
1.4941
1.29688
1.11313
1.02465
0.917085
0.85801
0.774991
0.727708
0.659008
0.619498
0.561556
0.528136
0.47899
0.450639
0.408952
0.384961
0.349798
0.32972
0.30059
0.284338
0.261473
0.249518
0.233914
0.223989
0.207639
0.197634
0.182018
0.172717
0.158576
0.150256
0.137759
0.130461
0.119591
0.113315
0.104103
0.098997
0.0919285
0.088829
0.0862932
0.0891104
0.10236
0.131807
0.221929
0.374125
0.513254
0.814521
1.09278
1.6641
1.86131
1.91279
1.92526
1.92808
13.8333
11.9326
10.7311
9.3663
8.58029
7.67198
7.12682
6.46187
6.05899
5.56667
5.28206
4.95161
4.72115
4.38528
4.15634
3.83783
3.62628
3.33906
3.15043
2.89702
2.73142
2.50999
2.36552
2.17257
2.04635
1.87698
1.7639
1.60714
1.48859
1.29785
1.11953
1.02415
0.920184
0.856841
0.777188
0.7266
0.660784
0.618531
0.563043
0.527307
0.480251
0.449937
0.410026
0.384376
0.350717
0.329253
0.301383
0.284016
0.26216
0.249355
0.234247
0.223615
0.208004
0.197318
0.18239
0.172451
0.158923
0.150029
0.13807
0.130269
0.119868
0.113161
0.104356
0.098907
0.0921928
0.0889231
0.0867284
0.0899689
0.103887
0.13636
0.226486
0.374528
0.524189
0.815326
1.1104
1.63957
1.84926
1.90911
1.92429
1.92779
13.7611
11.9557
10.7266
9.38745
8.57703
7.68518
7.12322
6.47134
6.0563
5.57421
5.28076
4.95513
4.71751
4.38898
4.1533
3.84158
3.62375
3.34253
3.14827
2.90012
2.72957
2.51271
2.36391
2.17492
2.04491
1.87895
1.7624
1.6084
1.48598
1.29832
1.12261
1.024
0.921661
0.856328
0.778224
0.726102
0.66162
0.618095
0.563742
0.526934
0.480843
0.44962
0.41053
0.384112
0.351149
0.329044
0.301757
0.283874
0.262486
0.249286
0.234403
0.223441
0.208173
0.197172
0.182564
0.172329
0.159085
0.149926
0.138216
0.130182
0.119998
0.113091
0.104475
0.0988684
0.09232
0.088975
0.0869469
0.0904009
0.104673
0.138607
0.228726
0.374866
0.529466
0.815973
1.11866
1.62782
1.8432
1.90721
1.92378
1.92763
-13.6271
-11.938
-10.8749
-9.86348
-9.31985
-8.817
-8.53914
-8.26797
-8.11741
-7.96865
-7.86607
-7.73026
-7.63457
-7.50988
-7.4229
-7.31056
-7.23243
-7.1318
-7.06197
-6.97226
-6.9102
-6.83073
-6.77592
-6.70597
-6.65774
-6.5961
-6.5529
-6.49604
-6.45131
-6.38345
-6.32077
-6.28618
-6.25116
-6.22924
-6.20362
-6.18684
-6.16653
-6.15307
-6.13662
-6.12569
-6.11229
-6.10339
-6.09248
-6.08526
-6.07647
-6.07069
-6.06375
-6.05931
-6.05416
-6.05108
-6.04775
-6.04544
-6.0424
-6.04041
-6.03806
-6.03672
-6.03546
-6.03509
-6.03539
-6.03641
-6.03899
-6.04216
-6.04837
-6.05515
-6.06781
-6.08161
-6.10779
-6.13897
-6.20317
-6.2968
-6.5086
-6.80263
-7.06548
-7.50305
-7.92069
-8.58489
-8.86452
-8.94751
-8.96899
-8.97398
-13.6946
-11.913
-10.8729
-9.84476
-9.31822
-8.808
-8.53887
-8.26314
-8.11734
-7.96681
-7.86739
-7.72865
-7.63572
-7.50837
-7.42391
-7.30919
-7.23333
-7.13056
-7.06276
-6.97115
-6.91089
-6.82974
-6.77653
-6.7051
-6.65828
-6.59536
-6.55345
-6.49556
-6.45223
-6.38324
-6.31965
-6.28619
-6.25063
-6.22938
-6.20327
-6.18699
-6.16626
-6.15319
-6.1364
-6.12579
-6.11211
-6.10347
-6.09234
-6.08533
-6.07634
-6.07074
-6.06365
-6.05934
-6.05408
-6.05109
-6.04771
-6.04547
-6.04236
-6.04042
-6.03802
-6.03672
-6.03543
-6.03506
-6.03536
-6.03635
-6.03897
-6.04203
-6.04835
-6.05491
-6.06776
-6.08111
-6.10759
-6.13765
-6.20199
-6.29207
-6.50531
-6.80387
-7.05849
-7.50385
-7.91083
-8.60027
-8.87239
-8.94997
-8.96965
-8.97418
-13.8334
-11.8583
-10.8703
-9.80599
-9.31593
-8.78936
-8.53886
-8.25312
-8.11746
-7.96291
-7.8703
-7.72521
-7.63826
-7.50515
-7.42613
-7.30626
-7.2353
-7.12793
-7.06451
-6.96879
-6.91242
-6.82763
-6.77786
-6.70324
-6.65946
-6.59378
-6.55463
-6.49449
-6.45418
-6.38282
-6.31732
-6.28629
-6.24954
-6.22973
-6.20252
-6.1873
-6.16567
-6.15346
-6.13593
-6.12601
-6.11173
-6.10364
-6.09202
-6.08547
-6.07609
-6.07085
-6.06344
-6.05941
-6.0539
-6.05111
-6.04763
-6.04553
-6.04227
-6.04046
-6.03793
-6.03671
-6.03535
-6.03501
-6.0353
-6.03622
-6.03893
-6.04178
-6.04832
-6.05443
-6.06769
-6.08009
-6.10725
-6.13496
-6.19978
-6.28241
-6.49861
-6.80688
-7.04387
-7.50618
-7.88967
-8.63235
-8.88804
-8.95475
-8.97091
-8.97457
-14.0513
-11.7641
-10.8708
-9.74424
-9.3151
-8.75967
-8.54027
-8.23709
-8.11833
-7.95654
-7.87529
-7.71945
-7.64264
-7.49976
-7.42999
-7.30138
-7.23873
-7.12354
-7.06755
-6.96485
-6.91509
-6.82413
-6.78019
-6.70015
-6.66151
-6.59114
-6.55665
-6.49263
-6.45737
-6.38216
-6.31361
-6.28662
-6.24776
-6.23036
-6.20129
-6.18788
-6.16472
-6.15394
-6.13516
-6.1264
-6.1111
-6.10396
-6.09151
-6.08572
-6.07566
-6.07104
-6.06309
-6.05953
-6.05362
-6.05116
-6.04748
-6.04564
-6.04212
-6.04052
-6.03779
-6.03671
-6.03524
-6.03493
-6.03522
-6.03602
-6.03888
-6.04138
-6.0483
-6.05365
-6.06766
-6.07848
-6.10688
-6.13079
-6.19686
-6.26742
-6.48823
-6.81273
-7.02024
-7.51167
-7.85414
-8.6839
-8.91125
-8.96155
-8.97268
-8.9751
-14.3606
-11.6141
-10.8806
-9.65459
-9.31933
-8.71654
-8.54502
-8.21369
-8.12092
-7.94695
-7.88328
-7.71052
-7.64966
-7.49144
-7.4362
-7.29386
-7.24427
-7.11678
-7.07246
-6.9588
-6.9194
-6.81874
-6.78396
-6.69541
-6.66484
-6.58706
-6.55986
-6.48961
-6.46216
-6.38124
-6.30823
-6.28743
-6.24512
-6.23147
-6.19943
-6.18884
-6.16326
-6.15474
-6.13398
-6.12706
-6.11014
-6.1045
-6.09072
-6.08615
-6.07502
-6.07136
-6.06257
-6.05975
-6.0532
-6.05126
-6.04727
-6.04581
-6.0419
-6.04062
-6.03759
-6.03673
-6.03508
-6.03483
-6.03512
-6.03574
-6.03885
-6.0408
-6.04835
-6.05253
-6.06776
-6.07616
-6.10669
-6.12492
-6.19376
-6.24641
-6.47369
-6.82327
-6.98525
-7.52312
-7.79912
-8.75955
-8.94154
-8.96992
-8.9748
-8.97572
-14.7798
-11.3837
-10.9102
-9.52931
-9.33426
-8.65615
-8.55616
-8.18074
-8.12676
-7.93294
-7.89562
-7.69711
-7.66058
-7.47901
-7.44589
-7.28263
-7.25291
-7.10669
-7.08013
-6.94977
-6.92617
-6.81071
-6.78988
-6.68834
-6.67005
-6.58096
-6.56478
-6.48488
-6.46909
-6.37999
-6.30077
-6.28909
-6.24134
-6.23331
-6.19672
-6.19041
-6.16112
-6.15603
-6.13226
-6.12812
-6.10873
-6.10536
-6.08957
-6.08684
-6.07408
-6.07189
-6.06181
-6.06012
-6.0526
-6.05145
-6.04695
-6.04609
-6.04157
-6.0408
-6.0373
-6.03678
-6.03486
-6.03471
-6.035
-6.03536
-6.03886
-6.04
-6.04853
-6.05097
-6.06813
-6.07296
-6.107
-6.11704
-6.19131
-6.21842
-6.45427
-6.84131
-6.93522
-7.54504
-7.71673
-8.86635
-8.97798
-8.97923
-8.97707
-8.97639
-15.3348
-11.0363
-10.976
-9.3566
-9.3685
-8.57265
-8.57833
-8.13493
-8.13819
-7.91267
-7.91441
-7.67723
-7.6773
-7.46064
-7.46079
-7.26606
-7.26622
-7.09182
-7.09196
-6.93647
-6.9366
-6.7989
-6.79903
-6.67795
-6.67809
-6.57194
-6.57226
-6.47759
-6.47895
-6.37836
-6.29061
-6.2922
-6.23597
-6.23629
-6.19279
-6.19289
-6.15802
-6.15807
-6.12974
-6.12978
-6.10668
-6.10671
-6.0879
-6.08792
-6.07272
-6.07274
-6.06071
-6.06072
-6.05174
-6.05176
-6.04649
-6.04651
-6.04109
-6.04108
-6.03689
-6.03688
-6.03458
-6.03456
-6.03488
-6.03485
-6.03897
-6.03891
-6.04896
-6.04882
-6.06899
-6.06859
-6.10827
-6.10658
-6.19075
-6.18208
-6.4288
-6.87108
-6.86456
-7.58448
-7.59522
-9.01466
-9.01883
-8.98868
-8.97929
-8.97702
-16.0617
-10.5194
-11.1042
-9.11863
-9.43506
-8.45708
-8.61845
-8.07126
-8.15877
-7.88332
-7.94276
-7.64785
-7.70269
-7.43359
-7.48348
-7.24169
-7.28651
-7.06996
-7.11002
-6.91695
-6.95255
-6.78158
-6.81302
-6.6627
-6.69038
-6.55867
-6.58353
-6.46646
-6.49289
-6.3762
-6.27687
-6.29761
-6.22834
-6.24102
-6.18713
-6.19677
-6.15351
-6.16124
-6.12609
-6.13237
-6.10371
-6.10882
-6.08547
-6.08962
-6.07075
-6.07406
-6.05913
-6.06168
-6.05051
-6.05229
-6.04581
-6.04715
-6.0404
-6.04153
-6.03631
-6.03708
-6.0342
-6.03441
-6.03477
-6.03418
-6.03924
-6.03741
-6.04979
-6.04585
-6.07068
-6.06262
-6.11119
-6.09269
-6.1939
-6.13552
-6.39551
-6.91879
-6.76485
-7.6523
-7.41736
-9.21958
-9.06105
-8.9973
-8.98122
-8.97757
-17.0104
-9.75741
-11.3352
-8.78858
-9.55339
-8.29593
-8.68692
-7.9822
-8.19387
-7.84056
-7.98528
-7.60449
-7.74103
-7.39378
-7.51783
-7.20585
-7.31725
-7.03784
-7.1374
-6.88828
-6.97677
-6.75616
-6.83429
-6.64034
-6.70905
-6.53912
-6.60048
-6.44959
-6.51255
-6.37336
-6.25833
-6.30663
-6.21743
-6.24841
-6.17892
-6.20277
-6.14697
-6.16613
-6.12079
-6.13636
-6.09938
-6.11206
-6.08195
-6.09223
-6.06789
-6.07612
-6.05685
-6.06318
-6.04878
-6.05315
-6.04482
-6.04811
-6.03939
-6.04224
-6.0355
-6.03742
-6.0337
-6.03424
-6.03471
-6.03328
-6.03979
-6.03534
-6.05127
-6.04174
-6.07368
-6.05439
-6.11679
-6.07401
-6.20343
-6.07623
-6.35168
-6.9936
-6.62347
-7.76501
-7.15801
-9.50293
-9.09949
-9.00401
-8.98266
-8.97797
-18.2491
-8.64212
-11.7312
-8.32603
-9.75256
-8.0688
-8.79916
-7.85644
-8.25152
-7.77784
-8.04878
-7.54038
-7.79868
-7.33508
-7.56959
-7.15304
-7.36358
-6.99051
-7.17868
-6.84606
-7.0133
-6.71875
-6.86639
-6.60742
-6.73722
-6.51029
-6.62588
-6.42412
-6.54025
-6.36951
-6.23322
-6.32112
-6.20169
-6.2598
-6.16694
-6.21193
-6.13741
-6.17357
-6.11302
-6.14243
-6.09305
-6.117
-6.07679
-6.09622
-6.06372
-6.07926
-6.05353
-6.06551
-6.04627
-6.0545
-6.04336
-6.04954
-6.0379
-6.04332
-6.03432
-6.03797
-6.03301
-6.03407
-6.0347
-6.03205
-6.04077
-6.03244
-6.05377
-6.03596
-6.07872
-6.04287
-6.12659
-6.04843
-6.22322
-6.00082
-6.29319
-7.1089
-6.42164
-7.94768
-6.78061
-9.89626
-9.12565
-9.0078
-8.98347
-8.97823
)
;

boundaryField
{
    F1_1
    {
        type            calculated;
        value           nonuniform List<scalar> 
80
(
18.9513
7.97362
11.9795
8.04114
9.87616
7.90489
8.86816
7.71488
8.28903
7.55142
7.90345
7.48949
7.75866
7.28685
7.55901
7.1102
7.36553
6.95315
7.18614
6.8136
7.02294
6.69061
6.87655
6.58311
6.74715
6.4893
6.6356
6.40577
6.55194
6.36458
6.2173
6.32759
6.19106
6.26479
6.15876
6.21594
6.13084
6.17684
6.10769
6.1451
6.0887
6.11918
6.07325
6.09797
6.06085
6.08063
6.05125
6.06648
6.04452
6.05498
6.04223
6.05008
6.0368
6.0437
6.03346
6.03809
6.03248
6.0338
6.03461
6.03118
6.04129
6.03062
6.05524
6.03247
6.08179
6.03606
6.13271
6.03353
6.23621
5.95855
6.25962
7.17864
6.30276
8.06026
6.55695
10.1251
9.13432
9.00882
8.98369
8.97831
)
;
    }
    F1_2
    {
        type            calculated;
        value           nonuniform List<scalar> 
80
(
-19.3851
-7.90706
-12.493
-7.04541
-9.80524
-6.1544
-8.076
-5.34106
-6.77052
-4.71002
-5.71071
-4.45827
-5.26841
-3.83968
-4.65749
-3.31664
-4.07045
-2.86812
-3.53937
-2.48121
-3.07014
-2.14669
-2.66025
-1.85671
-2.30493
-1.60321
-2.00227
-1.37502
-1.77824
-1.2621
-0.838433
-1.15653
-0.751389
-0.973332
-0.646279
-0.825502
-0.552529
-0.702555
-0.471794
-0.598757
-0.402856
-0.510588
-0.344306
-0.435494
-0.295069
-0.371431
-0.254743
-0.316642
-0.224362