/*--------------------------------*- C++ -*----------------------------------*\
| =========                 |                                                 |
| \\      /  F ield         | OpenFOAM: The Open Source CFD Toolbox           |
|  \\    /   O peration     | Version:  5.x                                   |
|   \\  /    A nd           | Web:      www.OpenFOAM.org                      |
|    \\/     M anipulation  |                                                 |
\*---------------------------------------------------------------------------*/
FoamFile
{
    version     2.0;
    format      ascii;
    class       volScalarField;
    location    "6.8";
    object      gradTx;
}
// * * * * * * * * * * * * * * * * * * * * * * * * * * * * * * * * * * * * * //

dimensions      [0 -1 0 1 0 0 0];

internalField   nonuniform List<scalar> 
3200
(
45.2108
3.71184
1.64871
1.54017
0.814955
0.771368
0.466731
0.447275
0.293828
0.282722
0.170835
0.166692
0.180698
0.180847
0.173157
0.172315
0.159536
0.158419
0.144296
0.143114
0.128828
0.127659
0.113855
0.11276
0.10022
0.0993327
0.0901578
0.0901517
0.0950844
0.164768
0.0825067
0.0552626
0.0534342
0.0416852
0.040858
0.0332599
0.032701
0.0269838
0.0265542
0.0219955
0.021649
0.0179096
0.017622
0.0144738
0.0142267
0.0114581
0.011231
0.00856793
0.00832913
0.00520537
0.00507456
0.00507417
0.00502658
0.00396164
0.00384857
0.00219794
0.00203248
-0.000274261
-0.00051169
-0.0038696
-0.00423198
-0.00949851
-0.0101037
-0.0191765
-0.0203245
-0.0381832
-0.0408558
-0.0840503
-0.092974
-0.238813
-0.617506
-0.43637
-0.681857
-0.713229
-1.2686
-1.24297
-0.0558122
-0.00753167
-0.00152592
-52.946
47.8953
3.1052
1.57728
1.3545
0.774064
0.68101
0.436323
0.394721
0.271789
0.248195
0.160333
0.151487
0.160988
0.161196
0.155218
0.153445
0.143364
0.141
0.129823
0.127317
0.116004
0.113525
0.102597
0.100278
0.0903723
0.0885088
0.0814371
0.081588
0.0883747
0.13738
0.0766066
0.0516219
0.0475502
0.0380174
0.0362434
0.0301861
0.0289975
0.0244567
0.0235446
0.0199275
0.019192
0.0162258
0.0156154
0.0131179
0.0125932
0.0103958
0.0099136
0.0077983
0.00729428
0.00485634
0.00457839
0.00453338
0.00442941
0.00358877
0.00334915
0.00204016
0.00168883
-0.000144155
-0.00064885
-0.00332082
-0.00409198
-0.00829028
-0.00958058
-0.0168385
-0.0192971
-0.0336986
-0.0394881
-0.0750721
-0.0949957
-0.227158
-0.517893
-0.414993
-0.602263
-0.666852
-1.08536
-1.0317
-0.121882
-0.020904
-0.00438782
-54.7421
50.5631
2.57641
1.45364
1.18313
0.713679
0.596717
0.397791
0.34542
0.245775
0.216239
0.146669
0.135549
0.14165
0.141792
0.137111
0.134906
0.126883
0.123933
0.115004
0.111873
0.102827
0.0997295
0.0909935
0.0880985
0.0802032
0.0778932
0.0724275
0.0727587
0.0799762
0.114383
0.0692748
0.0471447
0.0418846
0.0340391
0.0318001
0.0269176
0.025428
0.0217845
0.0206432
0.0177442
0.0168243
0.0144477
0.0136843
0.0116829
0.0110267
0.00926486
0.00866147
0.0069642
0.00633678
0.00442089
0.00407289
0.00399493
0.00386169
0.00319186
0.0028925
0.00184407
0.00140445
-6.71889e-05
-0.000699326
-0.00284807
-0.0038149
-0.00719838
-0.00881881
-0.0146925
-0.0177919
-0.0295584
-0.0369287
-0.0667203
-0.0925279
-0.209161
-0.434025
-0.38201
-0.527575
-0.606319
-0.921012
-0.854674
-0.155597
-0.0308979
-0.00673337
-56.5381
53.2102
2.11319
1.29591
1.01972
0.639193
0.515702
0.353397
0.298011
0.216957
0.185884
0.130668
0.118921
0.12255
0.122581
0.118905
0.116601
0.1102
0.107106
0.0999519
0.0966649
0.0894118
0.0861595
0.0791567
0.0761193
0.0698106
0.0674037
0.063186
0.063654
0.0704901
0.0945673
0.061024
0.0419926
0.0363225
0.0298366
0.0274625
0.0235133
0.0219446
0.0190121
0.017812
0.0154818
0.0145148
0.012605
0.0118026
0.0101942
0.00950432
0.00808756
0.00745309
0.0060873
0.0054308
0.00392272
0.00355658
0.00345868
0.00331542
0.00278012
0.0024658
0.00162362
0.00116133
-2.38095e-05
-0.000689144
-0.00242261
-0.00344116
-0.006177
-0.00788691
-0.0126574
-0.0159402
-0.0255941
-0.0334723
-0.0585279
-0.086427
-0.186835
-0.361233
-0.341123
-0.455561
-0.536349
-0.771905
-0.702959
-0.166338
-0.0368704
-0.00833336
-58.3339
55.8359
1.7041
1.11654
0.860482
0.554426
0.43624
0.304726
0.251627
0.186141
0.156495
0.112927
0.101679
0.103594
0.103519
0.100645
0.0984592
0.093384
0.0904413
0.0847456
0.0816158
0.0758365
0.0727394
0.0671614
0.064271
0.0592619
0.0569867
0.0537571
0.0542946
0.0603143
0.0770559
0.0521925
0.036306
0.0307929
0.0254696
0.0231879
0.0200137
0.0185157
0.0161704
0.015026
0.0131648
0.012243
0.010718
0.00995318
0.00866872
0.00801103
0.00687895
0.00627395
0.00518201
0.00455887
0.00337886
0.00302954
0.00292424
0.00278483
0.00235953
0.00206021
0.00138797
0.000947124
-1.22888e-06
-0.000636244
-0.00202575
-0.00299873
-0.00519667
-0.00683258
-0.0106819
-0.0138335
-0.0217008
-0.0293289
-0.0502218
-0.0774259
-0.161548
-0.296221
-0.294855
-0.384892
-0.460187
-0.634977
-0.569952
-0.160793
-0.0388057
-0.00906477
-60.1294
58.4414
1.33867
0.923911
0.703246
0.462145
0.357311
0.252919
0.20574
0.15389
0.127663
0.0938943
0.0839094
0.0847184
0.0845681
0.0823561
0.0804331
0.0764829
0.0738865
0.0694366
0.0666727
0.0621539
0.0594187
0.0550585
0.0525074
0.0486038
0.0466079
0.0441774
0.0447158
0.0497096
0.0612088
0.043002
0.0302045
0.0252557
0.0209809
0.018949
0.0164471
0.0151207
0.0132807
0.0122687
0.0108101
0.00999529
0.00880059
0.00812452
0.00711815
0.0065367
0.00564925
0.00511427
0.00425796
0.00370921
0.00280177
0.00249272
0.00239115
0.00226566
0.00193389
0.00166952
0.00114305
0.000753211
8.81274e-06
-0.000553168
-0.00164555
-0.00250731
-0.00423882
-0.00568973
-0.00873428
-0.0115382
-0.0178171
-0.024655
-0.0416632
-0.066148
-0.13424
-0.23665
-0.24493
-0.314814
-0.380046
-0.507643
-0.450709
-0.143761
-0.0370512
-0.00890269
-61.9246
61.0293
1.00747
0.723515
0.546826
0.364412
0.278365
0.198823
0.160039
0.120614
0.0991319
0.0739099
0.0657085
0.0658807
0.0657
0.0640562
0.0624881
0.0595276
0.0574059
0.0540601
0.0517998
0.0483999
0.0461629
0.0428832
0.0407978
0.0378695
0.0362464
0.034479
0.0349589
0.0388447
0.0465498
0.0335951
0.023789
0.0196915
0.0164024
0.0147289
0.0128334
0.0117463
0.0103578
0.00952927
0.00842975
0.00776278
0.00686242
0.00630906
0.00555057
0.0050746
0.00440543
0.00396744
0.0033216
0.00287388
0.00220074
0.0019476
0.00185902
0.00175474
0.00150556
0.00128932
0.000892664
0.000573476
1.15532e-05
-0.000448881
-0.00127458
-0.0019811
-0.00329219
-0.00448313
-0.00679629
-0.00910398
-0.0139111
-0.0195742
-0.0328055
-0.0531259
-0.10556
-0.180845
-0.192542
-0.244922
-0.297411
-0.387689
-0.341468
-0.118719
-0.0321543
-0.00790487
-63.7195
63.6029
0.701929
0.518829
0.390636
0.262825
0.199158
0.143096
0.114364
0.0866211
0.0707508
0.0532448
0.0471727
0.0470572
0.0468903
0.0457532
0.0445988
0.0425388
0.0409742
0.0386402
0.0369725
0.0345995
0.0329487
0.0306601
0.029122
0.0270829
0.0258907
0.0246906
0.0250656
0.0278269
0.0327172
0.0240623
0.0171452
0.014095
0.0117594
0.0105176
0.00918744
0.00838383
0.00741252
0.00680063
0.00603206
0.0055396
0.00491036
0.0045018
0.00397167
0.00362023
0.00315237
0.00282891
0.00237731
0.00204758
0.0015829
0.0013959
0.00132751
0.00124962
0.0010759
0.000916324
0.000639174
0.000403446
1.02305e-05
-0.000329987
-0.000908386
-0.00143071
-0.00235038
-0.00323165
-0.00485852
-0.00656974
-0.0099708
-0.0141906
-0.0236643
-0.0388192
-0.0759651
-0.127584
-0.138526
-0.175025
-0.213264
-0.273196
-0.239287
-0.0882298
-0.0247648
-0.00619425
-65.5141
66.166
0.414186
0.311946
0.23443
0.158672
0.119647
0.0862768
0.0686492
0.052153
0.0424351
0.0321222
0.0283985
0.0282356
0.0281195
0.0274509
0.0267457
0.0255301
0.0245733
0.0231936
0.0221733
0.0207701
0.0197601
0.018407
0.0174663
0.0162624
0.0155353
0.0148393
0.0150769
0.016724
0.0194264
0.0144599
0.0103466
0.00846983
0.00707252
0.0063099
0.00552037
0.00502811
0.00445285
0.00407826
0.00362332
0.00332189
0.00294947
0.0026994
0.00238563
0.0021705
0.00189352
0.00169551
0.00142813
0.00122666
0.000953948
0.000839445
0.000796374
0.000748319
0.000645669
0.000548031
0.000384024
0.000239713
6.78545e-06
-0.000201568
-0.000544435
-0.000864426
-0.00141011
-0.00195034
-0.00291738
-0.00396792
-0.00599776
-0.00859698
-0.0142959
-0.023633
-0.0457915
-0.0759494
-0.0834882
-0.105059
-0.12825
-0.162456
-0.141793
-0.0542371
-0.0155795
-0.00394202
-67.3085
68.7227
0.136911
0.104074
0.0781543
0.0530503
0.0399098
0.0288275
0.0228892
0.0174137
0.0141432
0.0107361
0.00948197
0.00941226
0.00937078
0.00915009
0.00891304
0.00851111
0.0081893
0.00773273
0.00738949
0.00692504
0.00658528
0.00613743
0.005821
0.00542286
0.00517865
0.00495055
0.00503185
0.00557889
0.00644237
0.00482335
0.00345863
0.00282552
0.00236028
0.00210324
0.00184141
0.00167571
0.00148514
0.00135909
0.00120843
0.001107
0.000983679
0.000899536
0.000795629
0.000723242
0.000631508
0.000564878
0.000476322
0.000408591
0.000318668
0.000280133
0.000265438
0.000249204
0.000215238
0.000182391
0.000128085
7.95232e-05
2.35591e-06
-6.77691e-05
-0.000181399
-0.000289118
-0.000470048
-0.000651968
-0.000972902
-0.00132692
-0.00200195
-0.00287933
-0.00478196
-0.00793381
-0.0152979
-0.0252198
-0.027889
-0.035028
-0.0427945
-0.0539113
-0.0469743
-0.0182885
-0.00531334
-0.00135221
-69.1029
68.7148
0.150882
0.128425
0.107468
0.085211
0.0726961
0.0607376
0.0533356
0.0448798
0.0387603
0.0310035
0.028192
0.028305
0.0282032
0.0273694
0.0264714
0.0249557
0.023769
0.0221251
0.0209316
0.0193755
0.0182801
0.0168935
0.0159479
0.0148031
0.0141265
0.0135366
0.0138345
0.015513
0.018099
0.0137233
0.0100671
0.00838821
0.0071773
0.00651112
0.00583265
0.00539964
0.00489551
0.00455732
0.00414625
0.00386501
0.00351669
0.00327477
0.00296994
0.00275273
0.00247027
0.00225769
0.00196414
0.0017285
0.00140624
0.00129355
0.00131133
0.00131311
0.00128039
0.00124183
0.00117406
0.00111994
0.00104363
0.000986997
0.00091111
0.000854315
0.000776241
0.000710761
0.000607644
0.000493544
0.000267474
-7.60453e-05
-0.00089354
-0.0024328
-0.00622053
-0.0117902
-0.0150741
-0.0220599
-0.0294949
-0.040439
-0.0360515
-0.0140893
-0.00409804
-0.00104327
-69.8074
66.1419
0.456015
0.385216
0.322455
0.255243
0.218066
0.18203
0.160049
0.134546
0.116346
0.0928125
0.0844592
0.0849236
0.0846388
0.0821109
0.079439
0.074854
0.0713254
0.0663572
0.0628094
0.058108
0.0548519
0.0506628
0.0478517
0.0443906
0.042376
0.0405742
0.0414484
0.0465028
0.0545754
0.041141
0.0301222
0.0251459
0.0215101
0.0195339
0.0174881
0.0162018
0.0146799
0.0136749
0.0124336
0.0115977
0.0105458
0.00982684
0.00890631
0.00826082
0.00740802
0.00677631
0.00589012
0.00518896
0.00421035
0.00387544
0.00393463
0.00394072
0.00384141
0.00372668
0.00352165
0.00336072
0.00313012
0.00296176
0.00273257
0.0025638
0.00232822
0.00213379
0.00182337
0.00148511
0.000807124
-0.000209173
-0.00265174
-0.00720845
-0.0185903
-0.0354621
-0.0450742
-0.0661618
-0.0883442
-0.12193
-0.108857
-0.0417889
-0.0120167
-0.00304146
-69.4223
63.5616
0.77134
0.641686
0.53762
0.424074
0.36339
0.302761
0.266903
0.22392
0.194146
0.154014
0.140374
0.141572
0.141164
0.136858
0.132483
0.12471
0.118939
0.110533
0.104733
0.0967827
0.0914611
0.084377
0.0797815
0.0739202
0.070617
0.0675049
0.0688951
0.0773718
0.0919122
0.0684622
0.0499356
0.0418501
0.0357766
0.0325594
0.0291133
0.0270133
0.0244436
0.0228019
0.0207047
0.0193391
0.0175617
0.016387
0.0148317
0.0137772
0.012337
0.0113051
0.00980872
0.00866053
0.00698872
0.00644157
0.00656007
0.00657256
0.00640306
0.00621514
0.00586748
0.00560429
0.00521413
0.00493898
0.00455162
0.00427597
0.00387857
0.00356147
0.00304023
0.00249028
0.00136032
-0.000285238
-0.00432537
-0.0117111
-0.0307404
-0.0594243
-0.0746152
-0.11022
-0.146737
-0.205288
-0.183823
-0.0679967
-0.0191034
-0.00477935
-69.037
60.9692
1.10394
0.897132
0.753164
0.590791
0.508712
0.422501
0.374042
0.312765
0.27236
0.214157
0.195694
0.198285
0.197845
0.191608
0.185663
0.174486
0.166659
0.154604
0.146744
0.135352
0.128141
0.117992
0.111762
0.103348
0.0988504
0.0942555
0.0960583
0.107998
0.130769
0.0955866
0.0693314
0.0584738
0.0499288
0.0455942
0.0406846
0.0378437
0.0341703
0.0319472
0.0289466
0.027097
0.0245534
0.0229624
0.0207371
0.0193091
0.0172496
0.0158526
0.0137134
0.0121531
0.00972212
0.0089811
0.00918977
0.0092117
0.00896547
0.00871002
0.00820995
0.00785297
0.00729356
0.0069207
0.00636623
0.00599302
0.00542573
0.00499733
0.00425825
0.00351867
0.00193415
-0.0002655
-0.00586515
-0.0157479
-0.0425043
-0.0839261
-0.10334
-0.154241
-0.204249
-0.291846
-0.262563
-0.0915271
-0.0248074
-0.00609958
-68.6516
58.3604
1.46128
1.15006
0.969445
0.754296
0.6542
0.540731
0.481694
0.400776
0.351286
0.272709
0.250173
0.255119
0.254759
0.246346
0.239053
0.224128
0.214547
0.198507
0.188895
0.173755
0.164938
0.15145
0.14383
0.132618
0.127088
0.12075
0.122816
0.138192
0.171943
0.122354
0.0881115
0.075005
0.0639128
0.058652
0.0521733
0.0487075
0.043839
0.0411237
0.0371425
0.0348827
0.0315072
0.0295632
0.0266107
0.0248662
0.0221357
0.0204297
0.017595
0.0156805
0.012388
0.0114827
0.011827
0.0118616
0.0115283
0.0112147
0.0105467
0.0101098
0.00936556
0.00890971
0.00817362
0.00771787
0.00696735
0.00644565
0.00547631
0.00458089
0.00253262
-0.000109732
-0.00723356
-0.0191098
-0.0536816
-0.109308
-0.130804
-0.198298
-0.260257
-0.383078
-0.346974
-0.110885
-0.0285908
-0.00687001
-68.266
55.7312
1.85138
1.39777
1.18711
0.913198
0.800222
0.656783
0.590221
0.48753
0.431375
0.32902
0.303553
0.312165
0.311994
0.30104
0.292748
0.273556
0.262695
0.242153
0.231267
0.211904
0.201922
0.184673
0.176042
0.161662
0.155358
0.146909
0.149042
0.167651
0.216452
0.148508
0.106046
0.0914558
0.0776635
0.0717587
0.0635415
0.0596275
0.0534217
0.0503508
0.0452696
0.0427131
0.0384037
0.0362045
0.032436
0.0304629
0.026981
0.0250521
0.0214398
0.0192631
0.0149584
0.0139343
0.0144766
0.0145263
0.0140903
0.0137336
0.0128743
0.0123789
0.0114261
0.01091
0.00996983
0.00945455
0.00849986
0.00791191
0.00669146
0.00568925
0.00315489
0.000225334
-0.00841184
-0.0215638
-0.0640165
-0.136055
-0.156429
-0.242577
-0.313831
-0.480668
-0.439383
-0.124091
-0.0299514
-0.00699564
-67.8802
53.0789
2.28283
1.63576
1.4073
1.06566
0.947463
0.769761
0.700193
0.572422
0.513312
0.382256
0.355569
0.369563
0.369661
0.355627
0.346878
0.322651
0.311229
0.285414
0.273979
0.249679
0.239197
0.217552
0.208483
0.190383
0.183713
0.172645
0.174609
0.195902
0.265631
0.173642
0.122866
0.107875
0.0910989
0.0849579
0.0747378
0.0706392
0.0628791
0.0596585
0.0532958
0.0506137
0.0452159
0.0429086
0.0381895
0.03612
0.0317642
0.0297419
0.0252273
0.0229308
0.0173976
0.0163233
0.017146
0.0172104
0.0166493
0.0162727
0.0151874
0.0146664
0.0134691
0.0129272
0.0117491
0.0112088
0.0100177
0.00940351
0.00789791
0.00685893
0.00379301
0.000788751
-0.00940947
-0.0228457
-0.0731679
-0.164869
-0.179423
-0.28745
-0.363581
-0.586583
-0.542753
-0.12845
-0.0284645
-0.00643171
-67.4941
50.4019
2.76479
1.85701
1.63202
1.20919
1.09708
0.878413
0.812493
0.654567
0.598127
0.431317
0.405958
0.427517
0.427893
0.410003
0.401628
0.371235
0.360339
0.328099
0.317206
0.286901
0.276919
0.249928
0.241287
0.218646
0.212245
0.197859
0.199402
0.222215
0.321278
0.197128
0.138255
0.124365
0.104109
0.0983205
0.0856892
0.0817975
0.072155
0.069092
0.0611749
0.058623
0.0519046
0.0497093
0.0438372
0.0418687
0.0364541
0.0345315
0.0289261
0.0267281
0.0196585
0.0186365
0.0198458
0.0199196
0.0192009
0.0188402
0.017478
0.016981
0.0154861
0.01497
0.0135029
0.0129892
0.0115126
0.0109308
0.00908575
0.00810975
0.00442871
0.00163998
-0.0102775
-0.022652
-0.080664
-0.196768
-0.198677
-0.3336
-0.407456
-0.70317
-0.660941
-0.120237
-0.0238595
-0.00519723
-67.1078
47.7012
3.30676
2.05095
1.86465
1.34029
1.25097
0.980955
0.928474
0.732654
0.687357
0.47472
0.454471
0.486318
0.486856
0.463999
0.457259
0.419038
0.410303
0.36993
0.361209
0.32331
0.315321
0.28157
0.27465
0.246261
0.241096
0.222436
0.223345
0.245479
0.385854
0.218004
0.151845
0.141111
0.116541
0.111957
0.0962913
0.093186
0.0811679
0.0787198
0.0688396
0.0667991
0.0584125
0.0566572
0.0493288
0.0477553
0.0410045
0.0394684
0.0324887
0.0307204
0.0216776
0.0208605
0.022591
0.0226606
0.0217383
0.0214478
0.019734
0.0193356
0.0174639
0.0170509
0.0152186
0.0148082
0.0129717
0.0125087
0.0102389
0.00946882
0.00502878
0.00285643
-0.0111272
-0.0206328
-0.0858362
-0.233235
-0.212611
-0.382192
-0.442456
-0.833276
-0.799068
-0.0942511
-0.0161459
-0.00338698
-66.7214
44.9813
3.91816
2.2021
2.1108
1.45399
1.41208
1.0748
1.05019
0.804719
0.783281
0.510427
0.5009
0.546371
0.546755
0.517349
0.51415
0.465662
0.461533
0.410495
0.40638
0.358523
0.354754
0.312139
0.308872
0.272946
0.270488
0.246231
0.24644
0.264014
0.46276
0.234812
0.163217
0.15841
0.128173
0.126037
0.106391
0.104931
0.0897981
0.088645
0.0761908
0.0752292
0.0646553
0.0638281
0.0545904
0.0538491
0.0453464
0.0446232
0.0358429
0.0350037
0.0233677
0.0229827
0.0254028
0.0254413
0.0242505
0.0241124
0.0219375
0.0217491
0.0193835
0.0191886
0.0168775
0.0166843
0.014376
0.0141589
0.0113321
0.0109748
0.00553821
0.00454539
-0.0121559
-0.0163855
-0.0877205
-0.276422
-0.218936
-0.435156
-0.464234
-0.980381
-0.96402
-0.0431963
-0.00581848
-0.0011779
-66.3348
44.9813
3.91816
2.2021
2.1108
1.45399
1.41208
1.0748
1.05019
0.804719
0.783281
0.510427
0.5009
0.546371
0.546755
0.51735
0.51415
0.465662
0.461534
0.410496
0.40638
0.358523
0.354754
0.312139
0.308872
0.272946
0.270488
0.246232
0.24644
0.264015
0.462761
0.234812
0.163218
0.15841
0.128173
0.126037
0.106391
0.104932
0.0897984
0.0886453
0.076191
0.0752295
0.0646555
0.0638283
0.0545906
0.0538493
0.0453466
0.0446234
0.0358431
0.0350038
0.0233677
0.0229828
0.0254029
0.0254414
0.0242506
0.0241125
0.0219376
0.0217493
0.0193836
0.0191888
0.0168776
0.0166844
0.0143761
0.0141591
0.0113322
0.0109749
0.00553837
0.00454557
-0.0121556
-0.0163851
-0.0877195
-0.27642
-0.218935
-0.435155
-0.464233
-0.980382
-0.96402
-0.0431963
-0.00581847
-0.00117794
-66.3348
47.7012
3.30676
2.05095
1.86465
1.34029
1.25097
0.980955
0.928474
0.732654
0.687357
0.47472
0.454471
0.486318
0.486856
0.463999
0.45726
0.419038
0.410304
0.36993
0.361209
0.32331
0.315322
0.28157
0.27465
0.246261
0.241097
0.222437
0.223346
0.24548
0.385855
0.218004
0.151845
0.141111
0.116541
0.111957
0.0962916
0.0931863
0.0811682
0.0787201
0.0688398
0.0667994
0.0584127
0.0566574
0.049329
0.0477555
0.0410047
0.0394686
0.0324888
0.0307205
0.0216776
0.0208606
0.0225911
0.0226607
0.0217384
0.0214479
0.0197341
0.0193357
0.017464
0.017051
0.0152187
0.0148083
0.0129718
0.0125088
0.010239
0.00946895
0.00502894
0.0028566
-0.0111269
-0.0206324
-0.0858353
-0.233233
-0.212609
-0.382191
-0.442455
-0.833276
-0.799069
-0.094251
-0.0161459
-0.00338702
-66.7214
50.4019
2.76479
1.85701
1.63201
1.20919
1.09708
0.878413
0.812493
0.654568
0.598127
0.431317
0.405958
0.427517
0.427893
0.410003
0.401629
0.371235
0.360339
0.328099
0.317206
0.286901
0.276919
0.249928
0.241287
0.218647
0.212245
0.197859
0.199403
0.222216
0.321279
0.197129
0.138255
0.124366
0.104109
0.0983208
0.0856895
0.0817978
0.0721553
0.0690922
0.0611752
0.0586232
0.0519048
0.0497095
0.0438374
0.0418689
0.0364543
0.0345316
0.0289262
0.0267282
0.0196586
0.0186366
0.0198458
0.0199197
0.019201
0.0188403
0.0174781
0.0169811
0.0154862
0.0149701
0.013503
0.0129893
0.0115127
0.0109309
0.00908586
0.00810986
0.00442885
0.00164015
-0.0102772
-0.0226516
-0.0806631
-0.196766
-0.198676
-0.333599
-0.407455
-0.703171
-0.660941
-0.120237
-0.0238595
-0.00519724
-67.1078
53.0789
2.28283
1.63576
1.4073
1.06566
0.947462
0.769761
0.700193
0.572422
0.513312
0.382256
0.355569
0.369563
0.369661
0.355627
0.346879
0.322652
0.311229
0.285414
0.273979
0.249679
0.239198
0.217552
0.208484
0.190383
0.183714
0.172645
0.174609
0.195902
0.265631
0.173643
0.122867
0.107875
0.0910991
0.0849582
0.074738
0.0706394
0.0628793
0.0596587
0.053296
0.0506138
0.0452161
0.0429088
0.0381897
0.0361202
0.0317643
0.029742
0.0252274
0.0229309
0.0173976
0.0163234
0.0171461
0.0172105
0.0166494
0.0162728
0.0151875
0.0146665
0.0134692
0.0129273
0.0117492
0.0112089
0.0100178
0.0094036
0.00789801
0.00685903
0.00379313
0.0007889
-0.00940922
-0.0228453
-0.0731672
-0.164867
-0.179422
-0.287449
-0.36358
-0.586583
-0.542753
-0.12845
-0.0284645
-0.00643168
-67.4941
55.7312
1.85138
1.39777
1.18711
0.913198
0.800222
0.656783
0.590221
0.48753
0.431375
0.32902
0.303553
0.312165
0.311994
0.30104
0.292748
0.273556
0.262695
0.242154
0.231268
0.211905
0.201922
0.184673
0.176042
0.161662
0.155358
0.146909
0.149042
0.167651
0.216452
0.148508
0.106046
0.0914561
0.0776637
0.0717589
0.0635417
0.0596277
0.0534219
0.050351
0.0452697
0.0427132
0.0384038
0.0362046
0.0324361
0.0304631
0.0269811
0.0250522
0.0214399
0.0192631
0.0149584
0.0139344
0.0144767
0.0145263
0.0140904
0.0137337
0.0128744
0.012379
0.0114261
0.0109101
0.0099699
0.00945462
0.00849993
0.00791199
0.00669154
0.00568933
0.00315499
0.000225461
-0.00841163
-0.0215635
-0.0640159
-0.136054
-0.156428
-0.242576
-0.31383
-0.480668
-0.439383
-0.124091
-0.0299513
-0.00699558
-67.8802
58.3604
1.46128
1.15006
0.969444
0.754295
0.6542
0.540731
0.481694
0.400776
0.351286
0.272709
0.250173
0.255119
0.254759
0.246346
0.239053
0.224128
0.214548
0.198507
0.188895
0.173755
0.164938
0.15145
0.14383
0.132619
0.127088
0.12075
0.122816
0.138192
0.171944
0.122354
0.0881117
0.0750052
0.0639129
0.0586522
0.0521735
0.0487077
0.0438392
0.0411238
0.0371426
0.0348828
0.0315073
0.0295633
0.0266108
0.0248663
0.0221358
0.0204298
0.0175951
0.0156806
0.012388
0.0114827
0.011827
0.0118617
0.0115283
0.0112148
0.0105468
0.0101098
0.00936562
0.00890977
0.00817368
0.00771793
0.00696741
0.00644571
0.00547638
0.00458095
0.00253271
-0.000109627
-0.0072334
-0.0191096
-0.0536811
-0.109307
-0.130804
-0.198298
-0.260257
-0.383078
-0.346974
-0.110885
-0.0285908
-0.00686993
-68.266
60.9692
1.10393
0.897131
0.753164
0.590791
0.508712
0.422501
0.374042
0.312765
0.27236
0.214157
0.195694
0.198285
0.197846
0.191608
0.185663
0.174486
0.166659
0.154604
0.146744
0.135352
0.128141
0.117992
0.111762
0.103348
0.0988505
0.0942556
0.0960585
0.107999
0.130769
0.0955869
0.0693316
0.0584739
0.049929
0.0455943
0.0406847
0.0378438
0.0341704
0.0319473
0.0289466
0.0270971
0.0245535
0.0229625
0.0207372
0.0193092
0.0172496
0.0158526
0.0137135
0.0121531
0.00972216
0.00898113
0.00918981
0.00921174
0.00896551
0.00871007
0.00821
0.00785302
0.00729361
0.00692074
0.00636628
0.00599307
0.00542577
0.00499738
0.0042583
0.00351872
0.00193422
-0.00026542
-0.00586502
-0.0157477
-0.042504
-0.0839254
-0.103339
-0.154241
-0.204249
-0.291845
-0.262563
-0.091527
-0.0248073
-0.00609949
-68.6516
63.5616
0.771339
0.641685
0.53762
0.424074
0.36339
0.302761
0.266903
0.22392
0.194146
0.154014
0.140374
0.141572
0.141164
0.136858
0.132483
0.12471
0.118939
0.110533
0.104733
0.0967828
0.0914611
0.0843771
0.0797816
0.0739203
0.0706171
0.067505
0.0688952
0.0773719
0.0919124
0.0684624
0.0499357
0.0418502
0.0357767
0.0325595
0.0291134
0.0270134
0.0244437
0.022802
0.0207047
0.0193391
0.0175617
0.016387
0.0148318
0.0137773
0.012337
0.0113052
0.00980876
0.00866057
0.00698874
0.00644159
0.00656009
0.00657259
0.00640309
0.00621517
0.00586751
0.00560433
0.00521416
0.00493901
0.00455166
0.004276
0.0038786
0.0035615
0.00304026
0.00249032
0.00136036
-0.000285182
-0.00432528
-0.011711
-0.0307402
-0.0594238
-0.0746148
-0.110219
-0.146737
-0.205287
-0.183823
-0.0679966
-0.0191034
-0.00477927
-69.037
66.1419
0.456014
0.385216
0.322455
0.255243
0.218066
0.18203
0.160049
0.134546
0.116346
0.0928126
0.0844592
0.0849236
0.0846388
0.0821109
0.0794391
0.074854
0.0713254
0.0663573
0.0628095
0.058108
0.0548519
0.0506628
0.0478517
0.0443906
0.042376
0.0405743
0.0414484
0.0465028
0.0545756
0.0411412
0.0301223
0.025146
0.0215102
0.0195339
0.0174882
0.0162018
0.0146799
0.0136749
0.0124336
0.0115977
0.0105459
0.00982687
0.00890634
0.00826085
0.00740805
0.00677634
0.00589015
0.00518898
0.00421036
0.00387545
0.00393464
0.00394074
0.00384143
0.00372669
0.00352166
0.00336074
0.00313014
0.00296178
0.00273259
0.00256382
0.00232824
0.00213381
0.00182339
0.00148514
0.00080715
-0.000209141
-0.00265169
-0.00720838
-0.0185901
-0.0354618
-0.0450739
-0.0661615
-0.0883441
-0.12193
-0.108857
-0.0417889
-0.0120166
-0.00304139
-69.4223
68.7148
0.150881
0.128425
0.107468
0.085211
0.0726961
0.0607376
0.0533356
0.0448798
0.0387603
0.0310035
0.0281921
0.028305
0.0282032
0.0273694
0.0264714
0.0249557
0.023769
0.0221251
0.0209317
0.0193755
0.0182801
0.0168935
0.0159479
0.0148031
0.0141265
0.0135366
0.0138345
0.015513
0.018099
0.0137233
0.0100671
0.00838823
0.00717732
0.00651114
0.00583267
0.00539965
0.00489552
0.00455733
0.00414626
0.00386502
0.0035167
0.00327478
0.00296995
0.00275274
0.00247028
0.0022577
0.00196415
0.0017285
0.00140625
0.00129355
0.00131133
0.00131312
0.0012804
0.00124184
0.00117407
0.00111995
0.00104364
0.000987003
0.000911116
0.000854321
0.000776247
0.000710766
0.00060765
0.000493551
0.000267482
-7.6035e-05
-0.000893524
-0.00243277
-0.00622048
-0.0117901
-0.015074
-0.0220598
-0.0294948
-0.0404389
-0.0360515
-0.0140892
-0.00409803
-0.00104324
-69.8074
68.7223
0.136743
0.103796
0.0777609
0.0524431
0.039054
0.027503
0.0210894
0.0150024
0.0125849
0.011923
0.011573
0.0110199
0.0105818
0.00996791
0.00952198
0.00893967
0.00852168
0.00797847
0.00758751
0.00707792
0.00671251
0.00623936
0.00590821
0.00549512
0.00524231
0.00500595
0.00508443
0.0056328
0.00650179
0.0048663
0.00348802
0.00284868
0.00237899
0.00211955
0.00185538
0.00168825
0.00149609
0.00136901
0.00121715
0.00111494
0.000990676
0.000905903
0.000801236
0.000728328
0.000635948
0.000568856
0.000479696
0.000411507
0.000320984
0.000282222
0.000267511
0.000251249
0.000217192
0.000184257
0.000129811
8.11431e-05
3.83191e-06
-6.63958e-05
-0.000180158
-0.000287968
-0.000469013
-0.000651012
-0.000972043
-0.00132613
-0.00200124
-0.00287866
-0.00478134
-0.0079332
-0.0152973
-0.025219
-0.0278884
-0.0350276
-0.0427942
-0.0539111
-0.0469742
-0.0182884
-0.00531331
-0.00135216
-69.1029
66.1647
0.413683
0.311112
0.233254
0.156852
0.117088
0.0823035
0.063255
0.0448604
0.0376846
0.0357566
0.0347272
0.033055
0.0317523
0.029897
0.0285714
0.0268124
0.02557
0.0239293
0.0227673
0.021228
0.0201418
0.0187124
0.0177279
0.0164789
0.0157263
0.0150053
0.0152345
0.0168856
0.0196055
0.0145886
0.0104345
0.00853926
0.00712855
0.00635883
0.00556226
0.00506574
0.00448566
0.00410802
0.00364947
0.0033457
0.00297045
0.0027185
0.00240244
0.00218576
0.00190683
0.00170745
0.00143825
0.00123541
0.000960881
0.000845703
0.000802593
0.000754458
0.000651531
0.000553632
0.000389202
0.000244575
1.12119e-05
-0.000197447
-0.000540712
-0.000860976
-0.001407
-0.00194748
-0.00291481
-0.00396554
-0.00599562
-0.00859498
-0.0142941
-0.0236311
-0.0457895
-0.0759471
-0.0834865
-0.105058
-0.128249
-0.162455
-0.141792
-0.0542369
-0.0155794
-0.00394191
-67.3085
63.6008
0.701094
0.517439
0.388689
0.259796
0.194924
0.136475
0.105394
0.0742696
0.0625743
0.0595542
0.0579071
0.0550753
0.0529449
0.0498049
0.0476381
0.0446645
0.0426343
0.039861
0.0379621
0.0353599
0.0335849
0.0311677
0.0295582
0.0274429
0.0262089
0.0249666
0.0253277
0.0280956
0.0330188
0.0242764
0.0172906
0.0142104
0.0118525
0.0105992
0.00925713
0.00844656
0.00746714
0.00685026
0.0060756
0.00557931
0.00494528
0.00453367
0.00399966
0.00364568
0.00317453
0.00284883
0.00239414
0.00206218
0.0015944
0.0014063
0.00133787
0.00125986
0.00108567
0.000925666
0.000647799
0.000411554
1.76023e-05
-0.000323114
-0.000902187
-0.00142495
-0.00234521
-0.00322687
-0.00485423
-0.00656577
-0.00996723
-0.0141873
-0.0236613
-0.0388162
-0.0759618
-0.12758
-0.138523
-0.175023
-0.213263
-0.273195
-0.239286
-0.0882295
-0.0247646
-0.00619409
-65.5141
61.0264
1.00631
0.721569
0.54413
0.360178
0.272502
0.189551
0.147536
0.102902
0.087117
0.0832969
0.0811343
0.0770676
0.074178
0.0696739
0.0667372
0.0624789
0.0597284
0.0557577
0.0531851
0.0494588
0.0470536
0.0435906
0.0414087
0.0383716
0.036692
0.0348637
0.0353246
0.0392193
0.0469786
0.0338939
0.0239905
0.0198527
0.0165322
0.0148431
0.0129307
0.0118341
0.0104341
0.00959881
0.00849058
0.00781842
0.00691121
0.00635372
0.00558967
0.00511029
0.0044364
0.00399537
0.00334512
0.00289438
0.00221673
0.00196211
0.00187354
0.0017691
0.00151923
0.00130241
0.000904728
0.000584839
2.18608e-05
-0.00043925
-0.00126592
-0.00197303
-0.00328497
-0.00447643
-0.0067903
-0.00909842
-0.0139061
-0.0195695
-0.0328012
-0.0531216
-0.105555
-0.18084
-0.192538
-0.244919
-0.297409
-0.387688
-0.341466
-0.118718
-0.0321541
-0.00790468
-63.7194
58.4377
1.33719
0.921408
0.699831
0.45671
0.349892
0.24099
0.189782
0.13038
0.111181
0.106973
0.104438
0.0990128
0.0954756
0.0894802
0.085889
0.0802329
0.0768712
0.0715985
0.0684542
0.0635048
0.0605647
0.0559623
0.0532933
0.049246
0.0471809
0.0446693
0.0451841
0.0501885
0.0617722
0.0433842
0.0304598
0.0254623
0.0211466
0.0190959
0.0165717
0.0152338
0.0133785
0.0123583
0.0108881
0.0100669
0.00886314
0.00818202
0.00716829
0.00658266
0.00568895
0.00515027
0.00428812
0.00373565
0.00282214
0.00251127
0.00240983
0.00228415
0.00195147
0.00168639
0.00115854
0.000767843
2.20411e-05
-0.000540767
-0.00163443
-0.00249693
-0.00422955
-0.0056811
-0.00872659
-0.0115311
-0.0178107
-0.024649
-0.0416577
-0.0661426
-0.134235
-0.236643
-0.244925
-0.314811
-0.380044
-0.50764
-0.450708
-0.14376
-0.037051
-0.0089025
-61.9245
55.8314
1.7023
1.11348
0.856394
0.547789
0.427364
0.290121
0.232356
0.15625
0.134646
0.130583
0.127857
0.120882
0.116871
0.10919
0.105124
0.0978952
0.0940904
0.0873542
0.0837955
0.0774704
0.0741422
0.0682566
0.0652332
0.0600411
0.0576877
0.0543538
0.054864
0.0608945
0.0777646
0.0526558
0.0366119
0.0310446
0.0256705
0.0233676
0.0201652
0.0186542
0.0162894
0.0151357
0.0132597
0.0123307
0.0107942
0.0100236
0.00872977
0.00806735
0.00692729
0.0063181
0.00521872
0.00459136
0.00340343
0.00305204
0.00294709
0.00280748
0.002381
0.00208087
0.00140686
0.000965047
1.48969e-05
-0.000621055
-0.0020122
-0.00298601
-0.00518538
-0.00682201
-0.0106725
-0.0138247
-0.021693
-0.0293216
-0.0502151
-0.0774193
-0.161541
-0.296212
-0.294849
-0.384888
-0.460184
-0.634975
-0.56995
-0.160792
-0.0388056
-0.00906461
-60.1293
53.205
2.1111
1.29228
1.01502
0.631341
0.50551
0.336073
0.275663
0.179939
0.157408
0.154139
0.151446
0.142634
0.138414
0.128756
0.124484
0.115421
0.111427
0.102983
0.0992475
0.0913161
0.0878221
0.0804364
0.0772597
0.0707226
0.0682337
0.0638845