/*--------------------------------*- C++ -*----------------------------------*\
| =========                 |                                                 |
| \\      /  F ield         | OpenFOAM: The Open Source CFD Toolbox           |
|  \\    /   O peration     | Version:  5.x                                   |
|   \\  /    A nd           | Web:      www.OpenFOAM.org                      |
|    \\/     M anipulation  |                                                 |
\*---------------------------------------------------------------------------*/
FoamFile
{
    version     2.0;
    format      ascii;
    class       volScalarField;
    location    "6.8";
    object      T;
}
// * * * * * * * * * * * * * * * * * * * * * * * * * * * * * * * * * * * * * //

dimensions      [0 0 0 1 0 0 0];

internalField   nonuniform List<scalar> 
3200
(
2.08496
2.43612
2.45615
2.60099
2.61016
2.68248
2.6873
2.72916
2.73203
2.75854
2.7603
2.77562
2.77697
2.79369
2.79505
2.81101
2.81229
2.82696
2.82813
2.84139
2.84244
2.85428
2.8552
2.86566
2.86648
2.87568
2.87641
2.8847
2.88543
2.89421
2.90191
2.90246
2.90743
2.9078
2.9116
2.91189
2.91493
2.91516
2.91763
2.91781
2.91982
2.91998
2.92162
2.92174
2.92306
2.92316
2.92421
2.92429
2.92507
2.92512
2.92559
2.92563
2.92609
2.92613
2.92649
2.92651
2.92671
2.92672
2.92668
2.92667
2.9263
2.92624
2.92535
2.92523
2.92343
2.9232
2.91961
2.91911
2.9112
2.90982
2.88732
2.84807
2.84369
2.77988
2.77236
2.65302
2.64807
2.64744
2.64731
2.64729
2.26043
2.5291
2.57095
2.68683
2.7064
2.76423
2.7745
2.80787
2.81397
2.83505
2.83879
2.85108
2.85394
2.86718
2.87006
2.8827
2.88541
2.89704
2.89951
2.91002
2.91224
2.92162
2.92359
2.93188
2.93362
2.94092
2.94247
2.94906
2.95063
2.9579
2.96437
2.96556
2.96953
2.97031
2.97333
2.97394
2.97635
2.97684
2.97879
2.97919
2.98079
2.98111
2.98241
2.98267
2.98372
2.98393
2.98476
2.98492
2.98554
2.98565
2.98603
2.98611
2.98648
2.98655
2.98684
2.98689
2.98704
2.98706
2.98703
2.98699
2.9867
2.98658
2.98587
2.98562
2.98418
2.98369
2.98081
2.97975
2.97331
2.97025
2.95059
2.91846
2.90909
2.85823
2.84241
2.74969
2.73924
2.73751
2.73715
2.73707
2.42515
2.63116
2.68279
2.77652
2.80111
2.84789
2.86078
2.88767
2.89532
2.91224
2.91694
2.92691
2.9305
2.94108
2.94468
2.95479
2.95817
2.96748
2.97056
2.97898
2.98175
2.98926
2.99172
2.99836
3.00053
3.00638
3.00832
3.01362
3.0156
3.02162
3.02704
3.02855
3.03175
3.03273
3.03515
3.03591
3.03785
3.03846
3.04003
3.04052
3.0418
3.0422
3.04324
3.04357
3.04441
3.04467
3.04534
3.04554
3.04604
3.04617
3.04648
3.04658
3.04688
3.04697
3.0472
3.04726
3.04738
3.0474
3.04737
3.04733
3.04709
3.04695
3.04637
3.04606
3.0449
3.04429
3.04194
3.04059
3.03527
3.03134
3.01436
2.98794
2.97616
2.93518
2.91552
2.84308
2.83006
2.82752
2.82697
2.82685
2.58163
2.73938
2.79295
2.86898
2.89493
2.9329
2.9465
2.96824
2.9763
2.98993
2.99489
3.003
3.00678
3.01525
3.01904
3.02714
3.0307
3.03816
3.04141
3.04816
3.05107
3.0571
3.05969
3.06502
3.0673
3.072
3.07404
3.07831
3.08041
3.08536
3.08986
3.09147
3.09406
3.0951
3.09705
3.09784
3.0994
3.10004
3.1013
3.10182
3.10285
3.10327
3.10411
3.10445
3.10513
3.1054
3.10594
3.10615
3.10654
3.10669
3.10694
3.10705
3.10728
3.10738
3.10756
3.10762
3.10772
3.10774
3.10772
3.10767
3.10748
3.10733
3.10686
3.10654
3.1056
3.10495
3.10304
3.1016
3.09718
3.09296
3.0785
3.05683
3.04439
3.01128
2.99075
2.93409
2.92046
2.91745
2.91677
2.91662
2.73181
2.85178
2.90222
2.96344
2.98826
3.01888
3.03189
3.04935
3.05705
3.06797
3.0727
3.07926
3.08287
3.08962
3.09322
3.09968
3.10307
3.10902
3.11211
3.11749
3.12027
3.12508
3.12755
3.13179
3.13397
3.13772
3.13967
3.1431
3.1451
3.14913
3.15281
3.15435
3.15644
3.15743
3.15898
3.15975
3.16099
3.1616
3.1626
3.1631
3.16392
3.16432
3.16499
3.16532
3.16586
3.16612
3.16655
3.16675
3.16706
3.1672
3.1674
3.16751
3.16769
3.16779
3.16793
3.16799
3.16807
3.16809
3.16807
3.16802
3.16787
3.16772
3.16735
3.16704
3.16628
3.16566
3.16411
3.16272
3.15909
3.15498
3.14293
3.12536
3.11345
3.08687
3.06743
3.02337
3.01043
3.00729
3.00655
3.00639
2.87718
2.96696
3.01105
3.05935
3.08137
3.10557
3.1171
3.13086
3.13768
3.14625
3.15044
3.15564
3.15883
3.16411
3.16729
3.17234
3.17533
3.17999
3.18272
3.18694
3.18939
3.19315
3.19533
3.19866
3.20058
3.20352
3.20524
3.20794
3.20971
3.21291
3.21584
3.21721
3.21886
3.21973
3.22095
3.22163
3.2226
3.22314
3.22393
3.22437
3.22501
3.22537
3.22589
3.22618
3.2266
3.22683
3.22716
3.22734
3.22759
3.22771
3.22787
3.22796
3.22811
3.22819
3.2283
3.22836
3.22842
3.22843
3.22842
3.22838
3.22825
3.22813
3.22783
3.22756
3.22696
3.2264
3.22517
3.22394
3.22101
3.21732
3.20758
3.19366
3.18309
3.16218
3.14509
3.11141
3.10002
3.09704
3.09631
3.09615
3.01896
3.08397
3.11971
3.15632
3.17439
3.19276
3.20223
3.21264
3.21823
3.2247
3.22814
3.23209
3.23472
3.23868
3.24129
3.24509
3.24753
3.25104
3.25327
3.25645
3.25845
3.26129
3.26307
3.26558
3.26715
3.26936
3.27078
3.27281
3.27427
3.27669
3.27893
3.28005
3.2813
3.28202
3.28295
3.2835
3.28423
3.28467
3.28526
3.28562
3.28611
3.2864
3.28679
3.28703
3.28735
3.28754
3.28779
3.28794
3.28812
3.28822
3.28834
3.28842
3.28853
3.28859
3.28868
3.28872
3.28877
3.28878
3.28877
3.28873
3.28864
3.28854
3.28831
3.28809
3.28763
3.28718
3.28624
3.28522
3.28296
3.27991
3.2724
3.26182
3.25315
3.23733
3.22341
3.19856
3.18926
3.18669
3.18605
3.1859
3.15814
3.20214
3.22833
3.25403
3.2674
3.28031
3.28731
3.29462
3.29875
3.30328
3.30583
3.30861
3.31054
3.31331
3.31523
3.31789
3.31969
3.32214
3.32379
3.326
3.32749
3.32946
3.33078
3.33253
3.33369
3.33524
3.33628
3.33771
3.33879
3.34049
3.34206
3.3429
3.34378
3.34431
3.34495
3.34536
3.34587
3.3462
3.34661
3.34688
3.34721
3.34743
3.34771
3.34788
3.3481
3.34824
3.34842
3.34853
3.34866
3.34873
3.34881
3.34887
3.34895
3.349
3.34905
3.34909
3.34912
3.34913
3.34912
3.34909
3.34903
3.34895
3.34879
3.34863
3.34831
3.34797
3.34731
3.34655
3.34494
3.34267
3.33735
3.32991
3.3235
3.31241
3.30217
3.28509
3.27824
3.27627
3.27576
3.27565
3.29556
3.32103
3.33698
3.35223
3.36042
3.3681
3.37239
3.37672
3.37925
3.38194
3.3835
3.38515
3.38634
3.38797
3.38915
3.39072
3.39182
3.39327
3.39428
3.39559
3.3965
3.39767
3.39847
3.39951
3.40022
3.40114
3.40178
3.40262
3.40328
3.40429
3.40523
3.40574
3.40626
3.40659
3.40697
3.40722
3.40752
3.40772
3.40796
3.40813
3.40833
3.40846
3.40862
3.40873
3.40886
3.40895
3.40905
3.40912
3.40919
3.40924
3.40929
3.40932
3.40937
3.4094
3.40943
3.40945
3.40947
3.40948
3.40947
3.40946
3.40942
3.40937
3.40928
3.40917
3.40898
3.40878
3.40838
3.40792
3.40695
3.40555
3.40238
3.39796
3.39403
3.38745
3.3812
3.37121
3.36702
3.36578
3.36546
3.36539
3.43197
3.4403
3.44566
3.45071
3.45347
3.45602
3.45746
3.4589
3.45975
3.46064
3.46117
3.46172
3.46211
3.46266
3.46305
3.46357
3.46394
3.46442
3.46476
3.4652
3.4655
3.46589
3.46616
3.4665
3.46674
3.46704
3.46726
3.46754
3.46776
3.4681
3.46841
3.46858
3.46875
3.46886
3.46899
3.46907
3.46917
3.46924
3.46932
3.46938
3.46944
3.46949
3.46954
3.46958
3.46962
3.46965
3.46968
3.46971
3.46973
3.46975
3.46976
3.46977
3.46979
3.4698
3.46981
3.46982
3.46982
3.46983
3.46982
3.46982
3.46981
3.46979
3.46976
3.46972
3.46966
3.46959
3.46946
3.4693
3.46898
3.46851
3.46745
3.46599
3.46466
3.46249
3.46038
3.45709
3.45569
3.45527
3.45516
3.45513
3.43128
3.44019
3.44637
3.45304
3.45712
3.46156
3.46439
3.46763
3.46972
3.47212
3.4736
3.47522
3.47642
3.47805
3.47924
3.48079
3.48188
3.48328
3.48426
3.4855
3.48635
3.48743
3.48818
3.48912
3.48978
3.4906
3.49119
3.49196
3.49257
3.49351
3.49438
3.49488
3.49539
3.49572
3.49611
3.49637
3.49669
3.49691
3.49718
3.49737
3.4976
3.49775
3.49795
3.49808
3.49824
3.49836
3.49849
3.49858
3.49869
3.49875
3.49883
3.49888
3.49896
3.49901
3.49909
3.49914
3.4992
3.49925
3.49931
3.49935
3.4994
3.49943
3.49948
3.49951
3.49954
3.49956
3.49956
3.49955
3.49948
3.4993
3.49885
3.49813
3.49735
3.49592
3.4944
3.49188
3.49079
3.49047
3.49038
3.49036
3.29349
3.32069
3.3391
3.35921
3.37134
3.38474
3.39315
3.40294
3.40915
3.4164
3.42079
3.42568
3.42923
3.43417
3.4377
3.44238
3.44564
3.44987
3.45277
3.4565
3.45905
3.46231
3.46454
3.46738
3.46932
3.47182
3.47356
3.47588
3.47771
3.48053
3.48316
3.48464
3.48618
3.48715
3.48833
3.48911
3.49008
3.49073
3.49154
3.4921
3.49279
3.49326
3.49384
3.49424
3.49473
3.49506
3.49547
3.49574
3.49606
3.49626
3.49648
3.49665
3.49688
3.49704
3.49726
3.49741
3.49761
3.49775
3.49793
3.49805
3.4982
3.4983
3.49843
3.49852
3.49862
3.49867
3.4987
3.49864
3.49843
3.49792
3.49657
3.49438
3.49206
3.48776
3.48323
3.47557
3.47234
3.47139
3.47114
3.47109
3.15462
3.20154
3.23175
3.26571
3.28551
3.30812
3.32185
3.33839
3.34854
3.36079
3.36796
3.37619
3.38199
3.39035
3.39611
3.40403
3.40936
3.4165
3.42125
3.42756
3.43173
3.43723
3.44087
3.44567
3.44885
3.45306
3.45591
3.45981
3.4628
3.46755
3.47199
3.4744
3.47699
3.47858
3.48056
3.48184
3.48348
3.48454
3.48592
3.48682
3.48799
3.48875
3.48975
3.49039
3.49123
3.49177
3.49246
3.4929
3.49344
3.49377
3.49414
3.49441
3.4948
3.49507
3.49544
3.49569
3.49603
3.49625
3.49655
3.49674
3.497
3.49717
3.49739
3.49753
3.49769
3.49778
3.49783
3.49775
3.4974
3.49658
3.49432
3.49063
3.48686
3.47961
3.47219
3.45908
3.45381
3.45228
3.4519
3.45181
3.01386
3.08306
3.12426
3.17277
3.19957
3.23185
3.25044
3.2741
3.28785
3.30538
3.31508
3.3268
3.33465
3.34662
3.35444
3.36578
3.373
3.38323
3.38967
3.39869
3.40434
3.41223
3.41716
3.42403
3.42833
3.43436
3.43822
3.44379
3.44783
3.45459
3.4609
3.46415
3.46784
3.46999
3.47283
3.47455
3.4769
3.47834
3.48031
3.48153
3.48321
3.48424
3.48566
3.48654
3.48774
3.48847
3.48946
3.49006
3.49083
3.49127
3.49181
3.49217
3.49272
3.49309
3.49362
3.49396
3.49444
3.49475
3.49517
3.49544
3.49581
3.49604
3.49635
3.49654
3.49678
3.49689
3.49697
3.49686
3.49638
3.49529
3.49213
3.48689
3.4818
3.47147
3.46137
3.44229
3.43512
3.43313
3.43264
3.43252
2.87034
2.9657
3.01647
3.08071
3.11341
3.15614
3.17883
3.21021
3.227
3.25029
3.26213
3.27756
3.28715
3.30307
3.31262
3.3277
3.33653
3.35012
3.35798
3.36997
3.37687
3.38734
3.39337
3.40249
3.40775
3.41575
3.42046
3.42782
3.43274
3.44164
3.44993
3.45388
3.45875
3.46138
3.46514
3.46724
3.47035
3.47212
3.47474
3.47623
3.47845
3.47972
3.4816
3.48267
3.48426
3.48516
3.48648
3.4872
3.48824
3.48877
3.48948
3.48992
3.49066
3.4911
3.49181
3.49223
3.49287
3.49324
3.4938
3.49413
3.49462
3.4949
3.49532
3.49554
3.49586
3.496
3.49612
3.49599
3.49539
3.49408
3.49003
3.48315
3.47695
3.46332
3.45092
3.42501
3.41622
3.41392
3.41336
3.41324
2.723
2.85012
2.90814
2.9899
3.02685
3.08122
3.10687
3.1469
3.1659
3.19565
3.20903
3.22855
3.23939
3.25977
3.27059
3.28987
3.29986
3.31723
3.32613
3.34144
3.34926
3.36263
3.36945
3.3811
3.38705
3.39727
3.40259
3.41196
3.41749
3.42872
3.43914
3.44357
3.44974
3.45272
3.45751
3.4599
3.46387
3.46586
3.46921
3.47089
3.47373
3.47516
3.47757
3.47879
3.48082
3.48183
3.48352
3.48434
3.48566
3.48626
3.48716
3.48766
3.4886
3.48911
3.49001
3.49048
3.4913
3.49172
3.49244
3.49281
3.49344
3.49376
3.49429
3.49455
3.49496
3.49512
3.49527
3.49514
3.49443
3.49298
3.48803
3.47938
3.47239
3.45512
3.44101
3.40705
3.39707
3.39464
3.39407
3.39394
2.57058
2.73731
2.79886
2.90088
2.93959
3.00745
3.03434
3.08443
3.10436
3.14167
3.15569
3.17989
3.19125
3.21685
3.22821
3.25241
3.2629
3.28468
3.29402
3.31322
3.32142
3.33819
3.34534
3.35994
3.36619
3.37898
3.38456
3.39625
3.40202
3.41584
3.42859
3.4332
3.44087
3.44399
3.44998
3.45248
3.45746
3.45955
3.46374
3.46551
3.46907
3.47057
3.47359
3.47486
3.47741
3.47848
3.48059
3.48145
3.48311
3.48374
3.48485
3.48538
3.48657
3.4871
3.48823
3.48872
3.48975
3.49019
3.4911
3.49148
3.49227
3.4926
3.49327
3.49355
3.49406
3.49423
3.49444
3.49431
3.4935
3.49203
3.48619
3.47554
3.46824
3.44679
3.43189
3.38814
3.37761
3.37529
3.37476
3.37465
2.41149
2.6287
2.68797
2.8144
2.85117
2.93532
2.96088
3.02316
3.04213
3.08862
3.10194
3.13175
3.14254
3.1745
3.18532
3.2155
3.22549
3.25262
3.26152
3.28543
3.29324
3.31412
3.32093
3.33912
3.34506
3.36098
3.36629
3.38077
3.38623
3.40299
3.41836
3.4227
3.43218
3.43514
3.44259
3.44497
3.45116
3.45315
3.45838
3.46006
3.46449
3.46592
3.46968
3.47089
3.47407
3.47508
3.47771
3.47853
3.48061
3.48121
3.48257
3.48307
3.48456
3.48506
3.48648
3.48695
3.48822
3.48864
3.48977
3.49014
3.49112
3.49144
3.49227
3.49253
3.49318
3.49334
3.49363
3.49351
3.4926
3.49124
3.48453
3.47157
3.46466
3.43821
3.42392
3.36789
3.35782
3.35586
3.35544
3.35535
2.24371
2.52641
2.57438
2.7315
2.76085
2.86553
2.88595
2.96363
2.97879
3.03689
3.04753
3.08437
3.09298
3.133
3.14166
3.1794
3.18739
3.2213
3.22842
3.25829
3.26454
3.29062
3.29607
3.31878
3.32354
3.34341
3.34765
3.36565
3.36998
3.3902
3.40857
3.412
3.42375
3.42611
3.4354
3.43731
3.44503
3.44662
3.45315
3.4545
3.46003
3.46118
3.46588
3.46684
3.47081
3.47162
3.47491
3.47556
3.47816
3.47864
3.48033
3.48072
3.48258
3.48299
3.48476
3.48513
3.48673
3.48707
3.48848
3.48877
3.49
3.49025
3.4913
3.4915
3.49232
3.49245
3.49282
3.49274
3.49171
3.49067
3.48313
3.46735
3.46187
3.42913
3.41762
3.3458
3.33771
3.33638
3.3361
3.33604
2.06462
2.43351
2.45644
2.65372
2.66752
2.79912
2.80872
2.9066
2.91374
2.98707
2.99207
3.03811
3.04216
3.09275
3.09684
3.14448
3.14825
3.19105
3.1944
3.2321
3.23504
3.26795
3.27052
3.29916
3.3014
3.32646
3.32845
3.35108
3.3531
3.37748
3.39937
3.40096
3.4157
3.41681
3.42851
3.42941
3.43915
3.4399
3.44813
3.44877
3.45575
3.45629
3.46222
3.46267
3.46768
3.46806
3.47221
3.47252
3.47579
3.47602
3.47813
3.47832
3.48067
3.48086
3.4831
3.48327
3.48529
3.48545
3.48723
3.48737
3.48892
3.48904
3.49035
3.49045
3.49149
3.49155
3.49204
3.492
3.49083
3.49036
3.48205
3.46272
3.46016
3.41921
3.41374
3.32117
3.31733
3.31685
3.31675
3.31673
2.06462
2.43351
2.45644
2.65372
2.66752
2.79911
2.80872
2.90659
2.91374
2.98707
2.99207
3.03811
3.04216
3.09275
3.09684
3.14448
3.14825
3.19105
3.1944
3.2321
3.23504
3.26795
3.27052
3.29916
3.3014
3.32646
3.32845
3.35108
3.3531
3.37748
3.39937
3.40096
3.41569
3.4168
3.42851
3.42941
3.43915
3.4399
3.44813
3.44877
3.45575
3.45629
3.46222
3.46267
3.46767
3.46806
3.47221
3.47252
3.47579
3.47602
3.47813
3.47832
3.48067
3.48086
3.4831
3.48327
3.48529
3.48545
3.48723
3.48737
3.48892
3.48904
3.49035
3.49045
3.49149
3.49155
3.49204
3.492
3.49082
3.49036
3.48205
3.46272
3.46016
3.41921
3.41374
3.32117
3.31733
3.31685
3.31675
3.31673
2.24371
2.52641
2.57438
2.7315
2.76085
2.86553
2.88595
2.96363
2.97879
3.03689
3.04753
3.08436
3.09298
3.133
3.14166
3.1794
3.18739
3.2213
3.22842
3.25829
3.26454
3.29062
3.29607
3.31878
3.32354
3.34341
3.34765
3.36565
3.36998
3.3902
3.40857
3.412
3.42375
3.42611
3.4354
3.43731
3.44503
3.44662
3.45315
3.4545
3.46003
3.46118
3.46588
3.46684
3.47081
3.47162
3.47491
3.47556
3.47816
3.47864
3.48033
3.48072
3.48258
3.48299
3.48476
3.48513
3.48673
3.48707
3.48848
3.48877
3.49
3.49025
3.4913
3.4915
3.49232
3.49245
3.49282
3.49274
3.49171
3.49067
3.48313
3.46735
3.46187
3.42913
3.41762
3.3458
3.33771
3.33638
3.3361
3.33604
2.41149
2.6287
2.68797
2.8144
2.85117
2.93532
2.96088
3.02316
3.04213
3.08862
3.10194
3.13175
3.14253
3.1745
3.18532
3.2155
3.22549
3.25262
3.26152
3.28543
3.29324
3.31412
3.32093
3.33912
3.34506
3.36098
3.36629
3.38077
3.38623
3.40299
3.41835
3.4227
3.43218
3.43514
3.44259
3.44497
3.45116
3.45315
3.45838
3.46006
3.46449
3.46592
3.46968
3.47089
3.47407
3.47508
3.47771
3.47853
3.48061
3.48121
3.48257
3.48307
3.48456
3.48506
3.48648
3.48695
3.48822
3.48864
3.48977
3.49014
3.49112
3.49144
3.49227
3.49253
3.49318
3.49334
3.49363
3.49351
3.4926
3.49124
3.48453
3.47157
3.46466
3.43821
3.42392
3.36789
3.35782
3.35586
3.35544
3.35535
2.57058
2.73731
2.79886
2.90088
2.93959
3.00745
3.03434
3.08443
3.10436
3.14167
3.15569
3.17989
3.19125
3.21685
3.22821
3.25241
3.2629
3.28468
3.29402
3.31322
3.32142
3.33819
3.34534
3.35994
3.36619
3.37898
3.38456
3.39624
3.40202
3.41583
3.42858
3.4332
3.44087
3.44399
3.44998
3.45248
3.45746
3.45955
3.46374
3.46551
3.46907
3.47057
3.47359
3.47486
3.47741
3.47848
3.48059
3.48145
3.48311
3.48374
3.48485
3.48538
3.48657
3.4871
3.48823
3.48872
3.48975
3.49019
3.4911
3.49148
3.49227
3.4926
3.49327
3.49355
3.49406
3.49423
3.49444
3.49431
3.4935
3.49203
3.48619
3.47554
3.46824
3.44679
3.43189
3.38814
3.37761
3.37529
3.37476
3.37465
2.723
2.85012
2.90814
2.9899
3.02685
3.08122
3.10687
3.1469
3.16589
3.19565
3.20903
3.22855
3.23939
3.25977
3.27059
3.28987
3.29986
3.31723
3.32613
3.34144
3.34926
3.36263
3.36945
3.3811
3.38705
3.39727
3.40259
3.41196
3.41749
3.42872
3.43914
3.44357
3.44974
3.45272
3.45751
3.4599
3.46386
3.46586
3.46921
3.47089
3.47373
3.47516
3.47757
3.47878
3.48082
3.48183
3.48352
3.48434
3.48566
3.48626
3.48716
3.48766
3.4886
3.48911
3.49001
3.49048
3.4913
3.49172
3.49244
3.49281
3.49344
3.49376
3.49429
3.49455
3.49496
3.49512
3.49527
3.49514
3.49443
3.49298
3.48803
3.47938
3.47239
3.45512
3.44101
3.40705
3.39707
3.39464
3.39407
3.39394
2.87034
2.9657
3.01647
3.08071
3.11341
3.15614
3.17883
3.21021
3.227
3.25029
3.26213
3.27756
3.28715
3.30307
3.31262
3.3277
3.33653
3.35012
3.35798
3.36997
3.37687
3.38734
3.39337
3.40249
3.40775
3.41575
3.42046
3.42782
3.43274
3.44164
3.44993
3.45388
3.45875
3.46138
3.46514
3.46724
3.47035
3.47212
3.47474
3.47623
3.47845
3.47972
3.4816
3.48267
3.48426
3.48516
3.48648
3.4872
3.48824
3.48877
3.48948
3.48992
3.49066
3.4911
3.49181
3.49223
3.49287
3.49324
3.4938
3.49413
3.49462
3.4949
3.49532
3.49554
3.49586
3.496
3.49612
3.49599
3.49539
3.49408
3.49003
3.48315
3.47695
3.46332
3.45092
3.42501
3.41622
3.41392
3.41336
3.41324
3.01386
3.08306
3.12426
3.17277
3.19957
3.23185
3.25044
3.2741
3.28785
3.30538
3.31508
3.3268
3.33465
3.34662
3.35444
3.36578
3.373
3.38323
3.38967
3.39869
3.40434
3.41223
3.41716
3.42403
3.42833
3.43436
3.43822
3.44379
3.44783
3.45459
3.4609
3.46415
3.46784
3.46999
3.47283
3.47455
3.4769
3.47834
3.48031
3.48153
3.48321
3.48424
3.48566
3.48654
3.48774
3.48847
3.48946
3.49005
3.49083
3.49127
3.49181
3.49217
3.49272
3.49309
3.49362
3.49396
3.49444
3.49475
3.49517
3.49544
3.49581
3.49604
3.49635
3.49654
3.49678
3.49689
3.49697
3.49686
3.49638
3.49529
3.49213
3.4869
3.4818
3.47147
3.46137
3.44229
3.43512
3.43313
3.43264
3.43252
3.15462
3.20154
3.23175
3.26571
3.28551
3.30812
3.32185
3.33839
3.34854
3.36079
3.36796
3.37619
3.38199
3.39035
3.39611
3.40403
3.40936
3.4165
3.42125
3.42756
3.43173
3.43723
3.44087
3.44567
3.44885
3.45306
3.45591
3.45981
3.4628
3.46755
3.47199
3.4744
3.47699
3.47858
3.48056
3.48184
3.48348
3.48454
3.48592
3.48682
3.48799
3.48875
3.48975
3.49039
3.49123
3.49177
3.49246
3.4929
3.49344
3.49377
3.49414
3.49441
3.4948
3.49507
3.49544
3.49569
3.49603
3.49625
3.49655
3.49674
3.497
3.49717
3.49739
3.49753
3.49769
3.49778
3.49783
3.49775
3.4974
3.49658
3.49432
3.49063
3.48686
3.47961
3.47219
3.45908
3.45381
3.45228
3.4519
3.45181
3.29349
3.32069
3.3391
3.35921
3.37134
3.38474
3.39315
3.40294
3.40915
3.4164
3.42079
3.42568
3.42923
3.43417
3.4377
3.44238
3.44564
3.44987
3.45277
3.4565
3.45905
3.46231
3.46454
3.46738
3.46932
3.47182
3.47356
3.47588
3.47771
3.48053
3.48316
3.48464
3.48618
3.48715
3.48833
3.48911
3.49008
3.49073
3.49154
3.4921
3.49279
3.49326
3.49384
3.49424
3.49473
3.49506
3.49547
3.49574
3.49606
3.49626
3.49648
3.49665
3.49688
3.49704
3.49726
3.49741
3.49761
3.49775
3.49793
3.49805
3.4982
3.4983
3.49843
3.49852
3.49862
3.49867
3.4987
3.49864
3.49843
3.49792
3.49657
3.49438
3.49206
3.48776
3.48323
3.47557
3.47234
3.47139
3.47114
3.47109
3.43128
3.44019
3.44637
3.45304
3.45712
3.46156
3.46439
3.46763
3.46972
3.47212
3.4736
3.47522
3.47642
3.47805
3.47924
3.48079
3.48188
3.48328
3.48426
3.4855
3.48635
3.48743
3.48818
3.48912
3.48978
3.4906
3.49119
3.49196
3.49257
3.49351
3.49438
3.49488
3.49539
3.49572
3.49611
3.49637
3.49669
3.49691
3.49718
3.49737
3.4976
3.49775
3.49795
3.49808
3.49824
3.49836
3.49849
3.49858
3.49869
3.49875
3.49883
3.49888
3.49896
3.49901
3.49909
3.49914
3.4992
3.49925
3.49931
3.49935
3.4994
3.49943
3.49948
3.49951
3.49954
3.49956
3.49956
3.49955
3.49948
3.4993
3.49885
3.49813
3.49735
3.49592
3.4944
3.49188
3.49079
3.49047
3.49038
3.49036
3.43195
3.44028
3.44562
3.45066
3.4534
3.4559
3.4573
3.45865
3.45941
3.46015
3.46067
3.46135
3.46183
3.46245
3.46289
3.46345
3.46384
3.46434
3.46469
3.46514
3.46545
3.46585
3.46612
3.46647
3.46671
3.46702
3.46724
3.46752
3.46774
3.46808
3.46839
3.46857
3.46874
3.46885
3.46898
3.46907
3.46917
3.46923
3.46932
3.46937
3.46944
3.46948
3.46954
3.46957
3.46962
3.46965
3.46968
3.4697
3.46973
3.46974
3.46976
3.46977
3.46979
3.4698
3.46981
3.46982
3.46982
3.46982
3.46982
3.46982
3.46981
3.46979
3.46976
3.46972
3.46966
3.46959
3.46946
3.4693
3.46898
3.46851
3.46745
3.46599
3.46466
3.46249
3.46038
3.45709
3.45569
3.45527
3.45516
3.45513
3.29551
3.32096
3.33688
3.35207
3.3602
3.36776
3.37191
3.37599
3.37824
3.38047
3.38201
3.38405
3.38548
3.38735
3.38866
3.39034
3.39151
3.39302
3.39407
3.39542
3.39635
3.39754
3.39836
3.39941
3.40013
3.40106
3.40171
3.40256
3.40323
3.40425
3.40519
3.40571
3.40623
3.40656
3.40695
3.4072
3.4075
3.4077
3.40795
3.40811
3.40832
3.40845
3.40861
3.40872
3.40885
3.40894
3.40904
3.40911
3.40919
3.40923
3.40928
3.40932
3.40936
3.40939
3.40943
3.40945
3.40947
3.40947
3.40947
3.40945
3.40942
3.40937
3.40927
3.40917
3.40898
3.40878
3.40838
3.40792
3.40695
3.40555
3.40238
3.39796
3.39403
3.38745
3.3812
3.37121
3.36702
3.36578
3.36546
3.36539
3.15806
3.20202
3.22817
3.25376
3.26703
3.27974
3.28653
3.29339
3.29707
3.30082
3.30332
3.30677
3.30911
3.31228
3.31441
3.31726
3.31917
3.32173
3.32344
3.32571
3.32723
3.32925
3.33059
3.33237
3.33355
3.33511
3.33617
3.33761
3.3387
3.34042
3.342
3.34285
3.34373
3.34427
3.34492
3.34533
3.34584
3.34617
3.34659
3.34686
3.3472
3.34741
3.34769
3.34787
3.34809
3.34823
3.34841
3.34852
3.34865
3.34872
3.34881
3.34886
3.34894
3.34899
3.34905
3.34908
3.34911
3.34912
3.34912
3.34909
3.34903
3.34895
3.34879
3.34863
3.34831
3.34797
3.34731
3.34655
3.34494
3.34267
3.33735
3.32991
3.32349
3.31241
3.30217
3.28509
3.27824
3.27627
3.27576
3.27565
3.01884
3.08379
3.11947
3.15595
3.17389
3.19197
3.20114
3.21092
3.21589
3.22121
3.2246
3.22954
3.23271
3.23725
3.24013
3.24422
3.24681
3.25047
3.25278
3.25604
3.2581
3.26099
3.2628
3.26535
3.26694
3.26918
3.27061
3.27267
3.27415
3.27659
3.27884
3.27998
3.28124
3.28197
3.2829
3.28345
3.28419
3.28463
3.28523
3.28559
3.28608
3.28638
3.28677
3.28701
3.28733
3.28752
3.28778
3.28792
3.28811
3.28821
3.28833
3.28841
3.28852
3.28858
3.28867
3.28871
3.28876
3.28877
3.28876
3.28873
3.28864
3.28853
3.28831
3.28808
3.28763
3.28717
3.28624
3.28522
3.28296
3.27991
3.2724
3.26182
3.25315
3.23733
3.22341
3.19856
3.18926
3.18669
3.18605
3.1859
2.87703
2.96674
3.01075
3.05888
3.08073
3.10455
3.11572
3.12865
3.1347
3.14169
3.14582
3.15238
3.15626
3.16229
3.16581
3.17123
3.1744
3.17926
3.18208
3.18642
3.18893
3.19277
3.19499
3.19836
3.20032
3.20329
3.20503
3.20776
3.20955
3.21277
3.21573
3.21711
3.21878
3.21966
3.22089
3.22157
3.22255
3.22309
3.22389
3.22433
3.22497
3.22533
3.22586
3.22615
3.22658
3.22681
3.22715
3.22733
3.22758
3.2277
3.22786
3.22795
3.2281
3.22818
3.22829
3.22835
3.22841
3.22842
3.22841
3.22837
3.22825
3.22812
3.22783
3.22755
3.22695
3.2264
3.22517
3.22393
3.22101
3.21732
3.20758
3.19366
3.18309
3.16218
3.14509
3.11141
3.10001
3.09704
3.09631
3.09614
2.73163
2.85151
2.90186
2.96286
2.9875
3.01764
3.03024
3.04665
3.05347
3.06228
3.06694
3.07533
3.07972
3.08742
3.09141
3.09834
3.10192
3.10813
3.11133
3.11687
3.11971
3.12461
3.12712
3.13144
3.13365
3.13744
3.13942
3.14288
3.1449
3.14897
3.15268
3.15423
3.15634
3.15734
3.15891
3.15967
3.16092
3.16154
3.16255
3.16305
3.16388
3.16429
3.16496
3.16529
3.16583
3.1661
3.16652
3.16673
3.16705
3.16719
3.16739
3.16749
3.16768
3.16777
3.16792
3.16798
3.16806
3.16808
3.16806
3.16801
3.16786
3.16772
3.16734
3.16703
3.16627
3.16565
3.1641
3.16272
3.15908
3.15498
3.14293
3.12536
3.11344
3.08687
3.06743
3.02337
3.01043
3.00729
3.00655
3.00638
2.58144
2.73907
2.79255
2.86829
2.89405
2.93143
2.9446
2.96503
2.97216
2.98303
2.98791
2.99844
3.00305
3.01271
3.01689
3.02558
3.02934
3.03712
3.04048
3.04742
3.05041
3.05655
3.05919
3.0646
3.06692
3.07167
3.07374
3.07806
3.08017
3.08517
3.08971
3.09133
3.09395
3.09499
3.09696
3.09776
3.09933
3.09997
3.10124
3.10177
3.1028
3.10323
3.10407
3.10442
3.1051
3.10537
3.10591
3.10612
3.10652
3.10667
3.10692
3.10703
3.10727
3.10736
3.10755
3.10761
3.10771
3.10773
3.10771
3.10766
3.10747
3.10732
3.10685
3.10653
3.10559
3.10494
3.10303
3.10159
3.09718
3.09295
3.0785
3.05683
3.04439
3.01127
2.99075
2.93408
2.92045
2.91745
2.91677
2.91662
2.42493
2.63079
2.68234
2.77573
2.80013
2.84619
2.85867
2.88395
2.89071
2.90402
2.90865
2.92179
2.92618
2.93821
2.94219
2.95302
2.9566
2.96629
2.96949
2.97814
2.98098
2.98863
2.99114
2.99788
3.00009
3.006
3.00797
3.01333
3.01532
3.0214
3.02687
3.02839
3.03162
3.03261
3.03505
3.03582
3.03776
3.03838
3.03996
3.04046
3.04174
3.04215
3.0432
3.04353
3.04438
3.04464
3.04531
3.04551
3.04601
3.04615
3.04646
3.04656
3.04686
3.04695
3.04718
3.04724
3.04737
3.04739
3.04736
3.04732
3.04708
3.04694
3.04636
3.04606
3.04489
3.04428
3.04194
3.04059
3.03527
3.03134
3.01435
2.98793
2.97615
2.93518
2.91552
2.84308
2.83005
2.82752
2.82696
2.82684
2.2602
2.52868
2.57046
2.68592
2.70535
2.76229
2.77223
2.80361
2.80899
2.82536
2.82905
2.84549
2.849
2.86403
2.86722
2.88075
2.88361
2.89572
2.89828
2.90908
2.91136
2.92092
2.92293
2.93134
2.93311
2.9405
2.94207
2.94873
2.95031
2.95765
2.96418
2.96538
2.96938
2.97017
2.97321
2.97383
2.97625
2.97675
2.97872
2.97912
2.98073
2.98105
2.98236
2.98262
2.98368
2.98389
2.98473
2.98489
2.98551
2.98562
2.986
2.98609
2.98646
2.98653
2.98682
2.98687
2.98703
2.98704
2.98702
2.98698
2.98669
2.98657
2.98586
2.98562
2.98418
2.98369
2.98081
2.97974
2.9733
2.97024
2.95059
2.91845
2.90909
2.85823
2.8424
2.74969
2.73923
2.7375
2.73714
2.73707
2.08473
2.43564
2.45563
2.59996
2.60906
2.68027
2.68493
2.72431
2.72683
2.74721
2.74894
2.7697
2.77135
2.79033
2.79184
2.8089
2.81025
2.82554
2.82674
2.84037
2.84144
2.85351
2.85446
2.86507
2.8659
2.87522
2.87596
2.88433
2.88507
2.89393
2.9017
2.90226
2.90727
2.90764
2.91147
2.91176
2.91482
2.91506
2.91754
2.91773
2.91976
2.91991
2.92156
2.92169
2.92302
2.92312
2.92417
2.92425
2.92504
2.92509
2.92556
2.9256
2.92607
2.92611
2.92647
2.92649
2.92669
2.9267
2.92667
2.92665
2.92628
2.92623
2.92534
2.92522
2.92342
2.92319
2.9196
2.91911
2.9112
2.90981
2.88732
2.84806
2.84368
2.77988
2.77236
2.65302
2.64806
2.64744
2.64731
2.64728
)
;

boundaryField
{
    F1_1
    {
        type            fixedValue;
        value           nonuniform List<scalar> 
80
(
1.99021
2.39625
2.39625
2.56078
2.56078
2.64296
2.64296
2.69058
2.69058
2.72078
2.72078
2.73818
2.73818
2.75726
2.75726
2.77546
2.77546
2.7922
2.7922
2.80732
2.80732
2.82082
2.82082
2.83275
2.83275
2.84324
2.84324
2.85267
2.85267
2.86238
2.87082
2.87082
2.87648
2.87648
2.88081
2.88081
2.88427
2.88427
2.88709
2.88709
2.88938
2.88938
2.89125
2.89125
2.89276
2.89276
2.89395
2.89395
2.89484
2.89484
2.89538
2.89538
2.89591
2.89591
2.89632
2.89632
2.89655
2.89655
2.89651
2.89651
2.89609
2.89609
2.89507
2.89507
2.89302
2.89302
2.88895
2.88895
2.88002
2.88002
2.85603
2.81217
2.81217
2.73958
2.73958
2.60239
2.60239
2.60239
2.60239
2.60239
)
;
    }
    F1_2
    {
        type            fixedValue;
        value           nonuniform List<scalar> 
80
(
1.96769
2.39397
2.39397
2.61849
2.61849
2.76834
2.76834
2.87989
2.87989
2.96352
2.96352
3.01582
3.01582
3.07355
3.07355
3.1279
3.1279
3.17671
3.17671
3.21969
3.21969
3.25722
3.25722
3.28988
3.28988
3.31844
3.31844
3.34421
3.34421
3.37117
3.39518
3.39518
3.41194
3.41194
3.42528
3.42528
3.43639
3.43639
3.44577
3.44577
3.45374
3.45374
3.46049
3.46049
3.4662
3.4662
3.47094
3.47094
3.47467
3.47467
3.47707
3.47707
3.47976
3.47976
3.48231
3.48231
3.48461
3.48461
3.48664
3.48664
3.4884
3.4884
3.48991
3.48991
3.49109
3.49109
3.49166
3.49166
3.49037
3.49037
3.48174
3.46007
3.46007
3.41354
3.41354
3.30708
3.30708
3.30708
3.30708
3.30708
)
;
    }
    F1_3
    {
        type            fixedValue;
        value           nonuniform List<scalar> 
80
(
1.96769
2.39397
2.39397
2.61849
2.61849
2.76834
2.76834
2.87989
2.87989
2.96352
2.96352
3.01582
3.01582
3.07355
3.07355
3.1279
3.1279
3.17671
3.17671
3.21969
3.21969
3.25722
3.25722
3.28988
3.28988
3.31844
3.31844
3.34421
3.34421
3.37117
3.39518
3.39518
3.41194
3.41194
3.42528
3.42528
3.43639
3.43639
3.44577
3.44577
3.45374
3.45374
3.46049
3.46049
3.4662
3.4662
3.47094
3.47094
3.47467
3.47467
3.47707
3.47707
3.47976
3.47976
3.48231
3.48231
3.48461
3.48461
3.48664
3.48664
3.4884
3.4884
3.48991
3.48991
3.49109
3.49109
3.49166
3.49166
3.49037
3.49037
3.48174
3.46007
3.46007
3.41354
3.41354
3.30708
3.30708
3.30708
3.30708
3.30708
)
;
    }
    F1_4
    {
        type            fixedValue;
        value           nonuniform List<scalar> 
80
(
1.98997
2.39574
2.39574
2.55968
2.55968
2.64059
2.64059
2.68539
2.68539
2.70851
2.70851
2.73219
2.73219
2.75383
2.75383
2.77329
2.77329
2.79073
2.79073
2.80627
2.80627
2.82003
2.82003
2.83213
2.83213
2.84276
2.84276
2.85229
2.85229
2.8621
2.87061
2.87061
2.87631
2.87631
2.88067
2.88067
2.88417
2.88417
2.887
2.887
2.88931
2.88931
2.89119
2.89119
2.89271
2.89271
2.89391
2.89391
2.89481
2.89481
2.89535
2.89535
2.89589
2.89589
2.8963
2.8963
2.89653
2.89653
2.8965
2.8965
2.89608
2.89608
2.89506
2.89506
2.89301
2.89301
2.88894
2.88894
2.88002
2.88002
2.85602
2.81217
2.81217
2.73958
2.73958
2.60239
2.60239
2.60239
2.60239
2.60239
)
;
    }
    F2_1
    {
        type            fixedValue;
        value           uniform 3.5;
    }
    F2_2
    {
        type            fixedValue;
        value           uniform 3.5;
    }
    F2_3
    {
        type            fixedValue;
        value           uniform 3.5;
    }
    F2_4
    {
        type            fixedValue;
        value           uniform 3.5;
    }
    defaultFaces
    {
        type            empty;
    }
}


// ************************************************************************* //
