/*--------------------------------*- C++ -*----------------------------------*\
| =========                 |                                                 |
| \\      /  F ield         | OpenFOAM: The Open Source CFD Toolbox           |
|  \\    /   O peration     | Version:  5.x                                   |
|   \\  /    A nd           | Web:      www.OpenFOAM.org                      |
|    \\/     M anipulation  |                                                 |
\*---------------------------------------------------------------------------*/
FoamFile
{
    version     2.0;
    format      ascii;
    class       volScalarField;
    location    "7.9";
    object      gradTy;
}
// * * * * * * * * * * * * * * * * * * * * * * * * * * * * * * * * * * * * * //

dimensions      [0 -1 0 1 0 0 0];

internalField   nonuniform List<scalar> 
3200
(
18.2486
8.63574
11.7297
8.31234
9.7497
8.03976
8.79393
7.79271
8.2416
7.60077
7.87617
7.51729
7.72775
7.31743
7.52967
7.13941
7.33858
6.98003
7.16179
6.8379
7.00121
6.71229
6.85736
6.60226
6.73025
6.50613
6.62037
6.42077
6.53573
6.36663
6.23151
6.31864
6.2002
6.25783
6.16572
6.21035
6.1364
6.17229
6.1122
6.14138
6.09237
6.11614
6.07623
6.09551
6.06326
6.07868
6.05315
6.06503
6.04594
6.05411
6.04305
6.04918
6.03764
6.04301
6.03411
6.03771
6.03283
6.03385
6.03455
6.03186
6.04064
6.03228
6.05365
6.03582
6.07862
6.04275
6.1265
6.04832
6.22315
6.00072
6.29313
7.10892
6.42159
7.94777
6.7806
9.89648
9.1258
9.00794
8.98361
8.97837
17.0091
9.75162
11.3321
8.77629
9.54692
8.26992
8.67368
7.92522
8.16441
7.68495
7.832
7.56412
7.67628
7.36888
7.481
7.18866
7.29396
7.0254
7.12154
6.87894
6.96534
6.74895
6.8257
6.63465
6.7024
6.53457
6.59521
6.44593
6.50826
6.37041
6.25638
6.30426
6.2158
6.24652
6.17758
6.20124
6.14588
6.16489
6.11989
6.13534
6.09864
6.11123
6.08134
6.09155
6.06739
6.07556
6.05643
6.06272
6.04842
6.05276
6.0445
6.04775
6.03911
6.04193
6.03526
6.03716
6.0335
6.03402
6.03453
6.03309
6.03964
6.03517
6.05115
6.0416
6.07357
6.05426
6.11669
6.0739
6.20335
6.07613
6.35162
6.99361
6.62345
7.76509
7.15805
9.50315
9.09967
9.00418
8.98283
8.97814
16.0597
10.514
11.0999
9.10717
9.42602
8.43283
8.5995
8.0182
8.11595
7.74405
7.8044
7.59572
7.64157
7.40354
7.44849
7.22197
7.26428
7.05616
7.09481
6.90681
6.94156
6.77385
6.80474
6.65666
6.68395
6.55387
6.57844
6.46262
6.48878
6.37321
6.27475
6.29531
6.22662
6.23919
6.18572
6.19529
6.15237
6.16004
6.12516
6.13139
6.10294
6.10801
6.08484
6.08895
6.07023
6.07352
6.05869
6.06122
6.05014
6.05191
6.04548
6.0468
6.04011
6.04124
6.03607
6.03682
6.03399
6.03419
6.0346
6.03399
6.03909
6.03725
6.04966
6.04572
6.07056
6.0625
6.11109
6.09258
6.19381
6.13543
6.39545
6.9188
6.76483
7.65237
7.41741
9.21977
9.06123
8.99747
8.98139
8.97774
15.3323
11.0311
10.9708
9.34559
9.3576
8.54935
8.55524
8.08403
8.08628
7.78585
7.78756
7.61715
7.61821
7.42687
7.42684
7.24454
7.24461
7.07705
7.07715
6.92576
6.92587
6.79082
6.79093
6.67167
6.6718
6.56697
6.56728
6.47363
6.47497
6.37533
6.28836
6.28994
6.23418
6.23449
6.19135
6.19144
6.15684
6.15689
6.12878
6.12881
6.10589
6.10592
6.08725
6.08727
6.07218
6.0722
6.06026
6.06027
6.05136
6.05138
6.04615
6.04617
6.0408
6.04079
6.03664
6.03663
6.03436
6.03435
6.0347
6.03467
6.03881
6.03875
6.04882
6.04868
6.06888
6.06848
6.10817
6.10648
6.19066
6.18199
6.42875
6.87107
6.86456
7.58455
7.59528
9.01483
9.019
8.98885
8.97946
8.9772
14.7768
11.3785
10.9043
9.51852
9.322
8.6333
8.53006
8.13091
8.06871
7.81558
7.7776
7.63171
7.60255
7.44255
7.41248
7.25981
7.23164
7.09123
7.06555
6.93866
6.9156
6.80237
6.7819
6.68189
6.66385
6.57587
6.55988
6.48084
6.4652
6.37695
6.29844
6.28686
6.23951
6.23153
6.19524
6.18898
6.15992
6.15487
6.13127
6.12716
6.10792
6.10457
6.08891
6.08619
6.07354
6.07136
6.06135
6.05967
6.05221
6.05107
6.04661
6.04575
6.04128
6.04051
6.03705
6.03653
6.03465
6.03449
6.03481
6.03518
6.0387
6.03985
6.04839
6.05084
6.06801
6.07285
6.1069
6.11694
6.19123
6.21834
6.45422
6.8413
6.93523
7.5451
7.7168
8.86651
8.97815
8.9794
8.97724
8.97656
14.3573
11.609
10.8743
9.64388
9.30608
8.69383
8.51672
8.16432
8.05878
7.83669
7.77197
7.6416
7.59212
7.45304
7.40302
7.2701
7.22317
7.10082
7.058
6.9474
6.90892
6.81022
6.77605
6.68884
6.65869
6.58189
6.555
6.48551
6.45833
6.37818
6.30583
6.2852
6.24326
6.22971
6.19793
6.18743
6.16204
6.15359
6.13299
6.12611
6.10932
6.10372
6.09005
6.08551
6.07447
6.07083
6.06211
6.05931
6.05281
6.05089
6.04692
6.04548
6.0416
6.04034
6.03734
6.03649
6.03486
6.03462
6.03493
6.03556
6.03869
6.04065
6.04821
6.0524
6.06764
6.07605
6.10659
6.12483
6.19368
6.24633
6.47365
6.82326
6.98526
7.52318
7.79921
8.75971
8.94171
8.97009
8.97497
8.97589
14.0478
11.7589
10.8641
9.73353
9.30114
8.73695
8.51038
8.18785
8.05351
7.85151
7.76895
7.64826
7.58527
7.45995
7.39688
7.27694
7.21771
7.10723
7.05315
6.95325
6.90466
6.81549
6.77232
6.6935
6.6554
6.58591
6.55183
6.48849
6.45359
6.37909
6.31115
6.28441
6.24587
6.22861
6.19977
6.18647
6.16348
6.15279
6.13415
6.12546
6.11027
6.10319
6.09083
6.08509
6.0751
6.07051
6.06263
6.05909
6.05323
6.05079
6.04714
6.04531
6.04182
6.04023
6.03754
6.03647
6.03502
6.03472
6.03503
6.03584
6.03872
6.04123
6.04816
6.05352
6.06754
6.07836
6.10678
6.13069
6.19678
6.26734
6.48818
6.81272
7.02025
7.51173
7.85423
8.68405
8.91142
8.96172
8.97285
8.97527
13.8298
11.853
10.8634
9.79525
9.30146
8.76657
8.50789
8.20385
8.05095
7.86155
7.76746
7.65261
7.58091
7.46438
7.39301
7.28136
7.2143
7.11138
7.05014
6.95705
6.90202
6.81891
6.77001
6.69654
6.65336
6.58851
6.54982
6.49032
6.45042
6.37974
6.31483
6.28408
6.24763
6.22798
6.20099
6.1859
6.16444
6.15232
6.13492
6.12507
6.1109
6.10288
6.09134
6.08484
6.07552
6.07032
6.06297
6.05897
6.05351
6.05074
6.04728
6.0452
6.04197
6.04017
6.03767
6.03647
6.03513
6.0348
6.03511
6.03604
6.03877
6.04163
6.04818
6.05429
6.06757
6.07998
6.10714
6.13487
6.1997
6.28234
6.49856
6.80687
7.04388
7.50624
7.88976
8.63249
8.88821
8.95492
8.97109
8.97474
13.6908
11.9077
10.8658
9.834
9.30343
8.78514
8.50721
8.21381
8.04984
7.86777
7.7668
7.65523
7.57835
7.46701
7.39075
7.28399
7.21233
7.11386
7.04841
6.95933
6.9005
6.82096
6.76869
6.69836
6.65219
6.59007
6.54864
6.49138
6.44849
6.38015
6.31714
6.28398
6.24872
6.22764
6.20173
6.18558
6.16501
6.15205
6.13539
6.12485
6.11128
6.1027
6.09165
6.08469
6.07578
6.07022
6.06318
6.0589
6.05368
6.05071
6.04736
6.04514
6.04206
6.04014
6.03776
6.03647
6.03521
6.03486
6.03517
6.03617
6.03881
6.04188
6.04821
6.05478
6.06764
6.081
6.10749
6.13756
6.20191
6.292
6.50527
6.80386
7.0585
7.50391
7.91092
8.60041
8.87256
8.95014
8.96982
8.97436
13.6232
11.9327
10.8678
9.85269
9.30491
8.7941
8.50715
8.21859
8.04946
7.87075
7.76657
7.65646
7.57717
7.46823
7.38972
7.28522
7.21142
7.11502
7.04762
6.96039
6.89981
6.82193
6.76809
6.69921
6.65166
6.5908
6.5481
6.49186
6.44757
6.38036
6.31825
6.28396
6.24924
6.2275
6.20208
6.18544
6.16529
6.15193
6.1356
6.12475
6.11146
6.10262
6.0918
6.08463
6.0759
6.07017
6.06328
6.05887
6.05376
6.0507
6.0474
6.04511
6.0421
6.04013
6.0378
6.03648
6.03524
6.03488
6.0352
6.03623
6.03883
6.042
6.04823
6.05502
6.06769
6.08149
6.10769
6.13888
6.20308
6.29672
6.50856
6.80261
7.06549
7.50311
7.92078
8.58503
8.86469
8.94768
8.96916
8.97416
-13.7626
-11.9571
-10.7281
-9.38889
-8.57848
-7.68663
-7.12468
-6.4728
-6.05776
-5.57567
-5.28222
-4.95657
-4.71894
-4.3904
-4.1547
-3.84296
-3.6251
-3.34386
-3.14958
-2.9014
-2.73082
-2.51392
-2.3651
-2.17608
-2.04604
-1.88005
-1.76346
-1.60942
-1.48697
-1.29925
-1.12348
-1.02484
-0.922463
-0.857102
-0.778964
-0.726818
-0.662303
-0.618756
-0.564373
-0.527543
-0.481424
-0.450181
-0.411065
-0.384628
-0.351641
-0.329519
-0.302211
-0.284313
-0.262907
-0.249695
-0.234798
-0.223826
-0.208543
-0.197531
-0.182907
-0.172662
-0.159403
-0.150233
-0.138509
-0.130465
-0.120267
-0.113352
-0.104723
-0.0991073
-0.0925468
-0.0891927
-0.0871516
-0.0905947
-0.104849
-0.138763
-0.228844
-0.374937
-0.529503
-0.815963
-1.11861
-1.62773
-1.8431
-1.90709
-1.92366
-1.92752
-13.8348
-11.934
-10.7325
-9.36774
-8.58174
-7.67344
-7.12828
-6.46333
-6.06045
-5.56813
-5.28351
-4.95305
-4.72258
-4.38669
-4.15774
-3.83921
-3.62764
-3.34039
-3.15174
-2.8983
-2.73267
-2.5112
-2.36671
-2.17372
-2.04748
-1.87807
-1.76496
-1.60816
-1.48958
-1.29878
-1.1204
-1.02499
-0.920985
-0.857616
-0.777926
-0.727315
-0.661467
-0.619191
-0.563673
-0.527916
-0.480831
-0.450498
-0.41056
-0.384892
-0.351208
-0.329728
-0.301836
-0.284454
-0.26258
-0.249764
-0.234642
-0.224
-0.208373
-0.197676
-0.182733
-0.172783
-0.15924
-0.150336
-0.138363
-0.130552
-0.120137
-0.113421
-0.104603
-0.0991459
-0.0924193
-0.0891408
-0.0869329
-0.0901628
-0.104063
-0.136517
-0.226604
-0.374599
-0.524227
-0.815315
-1.11036
-1.63948
-1.84915
-1.90899
-1.92417
-1.92767
-13.9831
-11.883
-10.7434
-9.32345
-8.5899
-7.64573
-7.13668
-6.44339
-6.06672
-5.55228
-5.28664
-4.94554
-4.73044
-4.37871
-4.16438
-3.83118
-3.63321
-3.33298
-3.1565
-2.89169
-2.73677
-2.50541
-2.37026
-2.1687
-2.05065
-1.87385
-1.76821
-1.60538
-1.49509
-1.29781
-1.114
-1.02549
-0.917884
-0.858785
-0.775729
-0.728424
-0.659689
-0.620159
-0.562184
-0.528745
-0.47957
-0.451201
-0.409485
-0.385478
-0.350289
-0.330195
-0.301042
-0.284777
-0.261893
-0.249926
-0.234309
-0.224374
-0.208008
-0.197993
-0.182361
-0.17305
-0.158893
-0.150563
-0.138051
-0.130744
-0.11986
-0.113575
-0.10435
-0.099236
-0.0921546
-0.0890469
-0.0864974
-0.0893048
-0.102536
-0.131966
-0.222048
-0.374195
-0.513293
-0.814509
-1.09273
-1.664
-1.8612
-1.91267
-1.92515
-1.92796
-14.2153
-11.7936
-10.7656
-9.25171
-8.60649
-7.60062
-7.15246
-6.41078
-6.07851
-5.52649
-5.2928
-4.933
-4.74378
-4.36524
-4.17577
-3.81776
-3.64288
-3.32062
-3.16479
-2.88069
-2.74393
-2.49577
-2.37648
-2.16034
-2.05618
-1.86679
-1.77376
-1.6005
-1.50408
-1.29631
-1.1038
-1.02676
-0.912846
-0.860915
-0.772103
-0.730393
-0.656747
-0.621866
-0.559717
-0.530206
-0.477478
-0.452439
-0.407705
-0.386513
-0.348767
-0.331027
-0.299735
-0.285367
-0.26077
-0.250236
-0.233749
-0.225007
-0.207389
-0.198536
-0.181736
-0.173511
-0.158314
-0.150958
-0.137532
-0.13108
-0.119399
-0.113848
-0.103933
-0.0994056
-0.0917318
-0.0889314
-0.0858483
-0.0880305
-0.100361
-0.124989
-0.215009
-0.374314
-0.495875
-0.814623
-1.06339
-1.70349
-1.87907
-1.91792
-1.92651
-1.92837
-14.5445
-11.6484
-10.8072
-9.14522
-8.63751
-7.53321
-7.17998
-6.3618
-6.09909
-5.48797
-5.304
-4.91364
-4.76469
-4.34421
-4.19391
-3.79701
-3.65845
-3.30161
-3.17822
-2.8638
-2.75554
-2.48098
-2.38658
-2.14751
-2.06512
-1.85588
-1.78252
-1.59254
-1.51753
-1.29419
-1.08898
-1.0295
-0.905331
-0.864523
-0.766597
-0.733641
-0.652256
-0.624667
-0.555946
-0.532597
-0.474281
-0.454468
-0.404984
-0.388212
-0.346447
-0.332401
-0.297752
-0.286367
-0.259087
-0.250786
-0.232882
-0.225997
-0.206421
-0.199397
-0.18077
-0.174253
-0.157423
-0.151597
-0.136735
-0.131627
-0.118694
-0.114296
-0.103302
-0.0997019
-0.0911148
-0.088828
-0.0849893
-0.086351
-0.0976953
-0.115398
-0.2052
-0.375942
-0.470569
-0.817536
-1.01839
-1.76157
-1.90242
-1.92437
-1.92814
-1.92885
-14.9895
-11.4211
-10.8816
-8.99257
-8.69239
-7.43575
-7.2261
-6.29061
-6.13361
-5.43237
-5.32347
-4.88462
-4.79647
-4.31237
-4.22192
-3.76593
-3.68275
-3.27326
-3.1993
-2.83867
-2.77382
-2.45899
-2.40246
-2.12842
-2.07913
-1.83953
-1.79594
-1.58
-1.53691
-1.29136
-1.06833
-1.03483
-0.894485
-0.870419
-0.758494
-0.73883
-0.645616
-0.629116
-0.550363
-0.536389
-0.469547
-0.457685
-0.400957
-0.390913
-0.34302
-0.334602
-0.29484
-0.288004
-0.256645
-0.251721
-0.231574
-0.227495
-0.204953
-0.200725
-0.179321
-0.175408
-0.156092
-0.152599
-0.13555
-0.132487
-0.117649
-0.115009
-0.102376
-0.100199
-0.0902466
-0.0887874
-0.083923
-0.0842728
-0.0947756
-0.102923
-0.192154
-0.380616
-0.435169
-0.826294
-0.951703
-1.84373
-1.93052
-1.93155
-1.92989
-1.92936
-15.5772
-11.0726
-11.0101
-8.77637
-8.78555
-7.29643
-7.30126
-6.18829
-6.18991
-5.35309
-5.35613
-4.84159
-4.84409
-4.2648
-4.26456
-3.71994
-3.72012
-3.2315
-3.23184
-2.80172
-2.80209
-2.42667
-2.42705
-2.10034
-2.10076
-1.81535
-1.81626
-1.56054
-1.5644
-1.28763
-1.0401
-1.04445
-0.878991
-0.879832
-0.746704
-0.746963
-0.635909
-0.636056
-0.54219
-0.542298
-0.462614
-0.462699
-0.395064
-0.39513
-0.338016
-0.338059
-0.290612
-0.290624
-0.253148
-0.253266
-0.229626
-0.229733
-0.202753
-0.20274
-0.177174
-0.17718
-0.15413
-0.154144
-0.133805
-0.133819
-0.116117
-0.116123
-0.101032
-0.101007
-0.0890395
-0.0888837
-0.0826489
-0.0817892
-0.0919508
-0.0872049
-0.175138
-0.390646
-0.386307
-0.84568
-0.854348
-1.9581
-1.96205
-1.93884
-1.93159
-1.92985
-16.3451
-10.5464
-11.2254
-8.47046
-8.93864
-7.09735
-7.42114
-6.04138
-6.27975
-5.24021
-5.40951
-4.77787
-4.91498
-4.19407
-4.32898
-3.65217
-3.77703
-3.17018
-3.28161
-2.74755
-2.84541
-2.37933
-2.46473
-2.05918
-2.13383
-1.77972
-1.84686
-1.5307
-1.60311
-1.28274
-1.0018
-1.06085
-0.856848
-0.894606
-0.72958
-0.759551
-0.621757
-0.64676
-0.530261
-0.551401
-0.452494
-0.470424
-0.386465
-0.401635
-0.330727
-0.343416
-0.284488
-0.294745
-0.248149
-0.255763
-0.226729
-0.233056
-0.199476
-0.205779
-0.174004
-0.179876
-0.151246
-0.156504
-0.131248
-0.135861
-0.113877
-0.117842
-0.0990862
-0.102294
-0.0873607
-0.089224
-0.0811605
-0.0788654
-0.0897229
-0.0677804
-0.153021
-0.40947
-0.318897
-0.883094
-0.71319
-2.11647
-1.99467
-1.94548
-1.93308
-1.93026
-17.345
-9.76105
-11.578
-8.03563
-9.18411
-6.81167
-7.60917
-5.82976
-6.42071
-5.07899
-5.49493
-4.68341
-5.02021
-4.08911
-4.42587
-3.55233
-3.86323
-3.08014
-3.35721
-2.6681
-2.91128
-2.30993
-2.52205
-1.99881
-2.18406
-1.72725
-1.89278
-1.48532
-1.65754
-1.27627
-0.949904
-1.08778
-0.825036
-0.917494
-0.70466
-0.778852
-0.601096
-0.663126
-0.512829
-0.565308
-0.437701
-0.482226
-0.373903
-0.411586
-0.320096
-0.35164
-0.275598
-0.301141
-0.240982
-0.259728
-0.222418
-0.237977
-0.194605
-0.210342
-0.169331
-0.183953
-0.147007
-0.160086
-0.127496
-0.138968
-0.110601
-0.12047
-0.0962629
-0.104307
-0.0850108
-0.0899621
-0.079442
-0.0754162
-0.0888076
-0.0440692
-0.124055
-0.442175
-0.225296
-0.949872
-0.509104
-2.33583
-2.02438
-1.95066
-1.93418
-1.93057
-18.6483
-8.59983
-12.1452
-7.41329
-9.57054
-6.39932
-7.90039
-5.52345
-6.6391
-4.84758
-5.62957
-4.54315
-5.17627
-3.93355
-4.5713
-3.40523
-3.99329
-2.94781
-3.47156
-2.55147
-3.01105
-2.20809
-2.60888
-1.9102
-2.26006
-1.64997
-1.96172
-1.41684
-1.73419
-1.26768
-0.87951
-1.13081
-0.779082
-0.952659
-0.668318
-0.808291
-0.570898
-0.688041
-0.487336
-0.586469
-0.416071
-0.50019
-0.355544
-0.426746
-0.304583
-0.364207
-0.26268
-0.311002
-0.230693
-0.265968
-0.216025
-0.245287
-0.1874
-0.217204
-0.162459
-0.190121
-0.140793
-0.16552
-0.122006
-0.143692
-0.105816
-0.124482
-0.0921693
-0.107434
-0.081709
-0.0913371
-0.0774799
-0.0712865
-0.0902314
-0.0153831
-0.0855739
-0.496284
-0.0940415
-1.06326
-0.214316
-2.64072
-2.04457
-1.95354
-1.93476
-1.93072
18.6483
8.59983
12.1452
7.41329
9.57054
6.39932
7.90039
5.52344
6.63909
4.84758
5.62957
4.54314
5.17627
3.93355
4.57129
3.40523
3.99329
2.9478
3.47156
2.55147
3.01105
2.20809
2.60888
1.9102
2.26006
1.64997
1.96172
1.41684
1.73419
1.26768
0.879508
1.13081
0.779081
0.952659
0.668317
0.80829
0.570897
0.688041
0.487335
0.586469
0.41607
0.500189
0.355543
0.426746
0.304582
0.364206
0.26268
0.311002
0.230693
0.265968
0.216025
0.245287
0.1874
0.217204
0.162459
0.190121
0.140793
0.16552
0.122006
0.143692
0.105816
0.124482
0.0921691
0.107434
0.0817088
0.0913371
0.0774798
0.0712866
0.0902313
0.0153831
0.0855738
0.496285
0.0940416
1.06327
0.214317
2.64072
2.04458
1.95354
1.93476
1.93072
17.345
9.76105
11.578
8.03563
9.18411
6.81167
7.60917
5.82976
6.42071
5.07899
5.49493
4.68342
5.02021
4.08911
4.42588
3.55234
3.86323
3.08015
3.35721
2.6681
2.91129
2.30993
2.52205
1.99881
2.18406
1.72725
1.89279
1.48533
1.65754
1.27627
0.949906
1.08778
0.825038
0.917496
0.704661
0.778853
0.601097
0.663128
0.51283
0.565309
0.437702
0.482228
0.373904
0.411587
0.320097
0.351641
0.275599
0.301142
0.240983
0.259729
0.222419
0.237978
0.194606
0.210343
0.169331
0.183954
0.147008
0.160087
0.127497
0.138969
0.110602
0.12047
0.0962636
0.104308
0.0850114
0.0899628
0.0794425
0.0754167
0.088808
0.0440696
0.124055
0.442176
0.225297
0.949875
0.509105
2.33584
2.02438
1.95067
1.93418
1.93057
16.3451
10.5464
11.2254
8.47047
8.93864
7.09736
7.42115
6.04139
6.27975
5.24022
5.40952
4.77788
4.91499
4.19407
4.32899
3.65217
3.77704
3.17019
3.28162
2.74755
2.84542
2.37934
2.46474
2.05918
2.13384
1.77973
1.84686
1.5307
1.60312
1.28274
1.0018
1.06086
0.856851
0.89461
0.729584
0.759554
0.62176
0.646763
0.530264
0.551404
0.452496
0.470427
0.386468
0.401638
0.330729
0.343418
0.28449
0.294747
0.248151
0.255765
0.226731
0.233058
0.199478
0.205781
0.174006
0.179878
0.151247
0.156506
0.131249
0.135863
0.113879
0.117843
0.0990875
0.102295
0.0873619
0.0892252
0.0811615
0.0788664
0.0897238
0.0677812
0.153021
0.409471
0.318898
0.883097
0.713192
2.11647
1.99467
1.94549
1.93308
1.93027
15.5772
11.0726
11.0101
8.77638
8.78556
7.29644
7.30127
6.18829
6.18991
5.35309
5.35614
4.84159
4.8441
4.26481
4.26457
3.71995
3.72012
3.23151
3.23185
2.80172
2.8021
2.42668
2.42706
2.10035
2.10077
1.81536
1.81627
1.56054
1.5644
1.28764
1.0401
1.04445
0.878995
0.879836
0.746708
0.746967
0.635913
0.63606
0.542194
0.542301
0.462618
0.462702
0.395067
0.395132
0.338019
0.338061
0.290615
0.290626
0.253151
0.253269
0.229628
0.229736
0.202756
0.202742
0.177176
0.177182
0.154132
0.154146
0.133807
0.133821
0.116119
0.116125
0.101033
0.101008
0.0890409
0.0888851
0.0826501
0.0817904
0.0919519
0.0872058
0.175139
0.390647
0.386309
0.845682
0.85435
1.95811
1.96205
1.93884
1.9316
1.92985
14.9895
11.4211
10.8817
8.99258
8.6924
7.43576
7.22611
6.29062
6.13362
5.43238
5.32347
4.88463
4.79648
4.31238
4.22193
3.76594
3.68276
3.27327
3.1993
2.83868
2.77383
2.459
2.40247
2.12843
2.07914
1.83954
1.79595
1.58
1.53692
1.29137
1.06833
1.03484
0.89449
0.870423
0.758499
0.738834
0.64562
0.629119
0.550366
0.536393
0.46955
0.457689
0.40096
0.390916
0.343023
0.334605
0.294842
0.288007
0.256648
0.251723
0.231577
0.227497
0.204955
0.200727
0.179323
0.17541
0.156094
0.152601
0.135551
0.132489
0.117651
0.115011
0.102377
0.1002
0.0902481
0.0887888
0.0839244
0.0842741
0.0947768
0.102924
0.192155
0.380617
0.435171
0.826296
0.951706
1.84373
1.93052
1.93155
1.92989
1.92936
14.5445
11.6484
10.8072
9.14523
8.63752
7.53321
7.17999
6.36181
6.0991
5.48798
5.30401
4.91365
4.7647
4.34421
4.19392
3.79701
3.65846
3.30161
3.17823
2.86381
2.75555
2.48099
2.38658
2.14752
2.06512
1.85588
1.78252
1.59255
1.51753
1.2942
1.08898
1.0295
0.905336
0.864528
0.766601
0.733646
0.65226
0.624671
0.55595
0.532601
0.474285
0.454471
0.404987
0.388215
0.34645
0.332404
0.297754
0.286369
0.259089
0.250788
0.232884
0.225999
0.206424
0.1994
0.180773
0.174255
0.157425
0.151599
0.136737
0.131629
0.118696
0.114298
0.103304
0.0997035
0.0911163
0.0888294
0.0849907
0.0863523
0.0976965
0.115399
0.205201
0.375944
0.47057
0.817539
1.0184
1.76157
1.90242
1.92437
1.92814
1.92885
14.2153
11.7936
10.7656
9.25172
8.6065
7.60063
7.15247
6.41079
6.07851
5.5265
5.2928
4.93301
4.74379
4.36524
4.17578
3.81776
3.64289
3.32063
3.1648
2.8807
2.74393
2.49578
2.37649
2.16035
2.05618
1.8668
1.77376
1.6005
1.50409
1.29631
1.1038
1.02676
0.912851
0.86092
0.772108
0.730397
0.656751
0.62187
0.559721
0.530209
0.477482
0.452443
0.407708
0.386516
0.34877
0.331029
0.299737
0.285369
0.260773
0.250239
0.233752
0.22501
0.207391
0.198538
0.181739
0.173513
0.158316
0.15096
0.137534
0.131082
0.119401
0.11385
0.103935
0.0994072
0.0917333
0.0889328
0.0858497
0.0880318
0.100362
0.124991
0.215011
0.374315
0.495876
0.814626
1.06339
1.7035
1.87908
1.91792
1.92651
1.92837
13.9831
11.883
10.7434
9.32346
8.58991
7.64574
7.13669
6.44339
6.06673
5.55229
5.28665
4.94555
4.73045
4.37872
4.16439
3.83119
3.63322
3.33298
3.1565
2.8917
2.73678
2.50542
2.37027
2.16871
2.05066
1.87386
1.76822
1.60539
1.4951
1.29782
1.11401
1.0255
0.917889
0.858789
0.775733
0.728428
0.659693
0.620163
0.562188
0.528749
0.479573
0.451204
0.409489
0.385481
0.350292
0.330198
0.301045
0.28478
0.261895
0.249929
0.234311
0.224377
0.20801
0.197995
0.182363
0.173052
0.158895
0.150565
0.138053
0.130746
0.119861
0.113577
0.104352
0.0992375
0.0921561
0.0890483
0.0864987
0.0893061
0.102537
0.131967
0.222049
0.374197
0.513295
0.814512
1.09274
1.66401
1.8612
1.91268
1.92515
1.92797
13.8348
11.9341
10.7325
9.36775
8.58175
7.67345
7.12829
6.46334
6.06046
5.56813
5.28352
4.95306
4.72259
4.3867
4.15775
3.83922
3.62765
3.3404
3.15175
2.8983
2.73268
2.51121
2.36672
2.17373
2.04749
1.87808
1.76497
1.60817
1.48959
1.29878
1.12041
1.025
0.920989
0.85762
0.777931
0.727319
0.66147
0.619195
0.563676
0.52792
0.480834
0.450501
0.410563
0.384895
0.351211
0.329731
0.301839
0.284457
0.262583
0.249766
0.234645
0.224002
0.208375
0.197678
0.182735
0.172785
0.159242
0.150338
0.138365
0.130554
0.120139
0.113423
0.104605
0.0991473
0.0924207
0.0891422
0.0869342
0.0901641
0.104065
0.136518
0.226605
0.3746
0.524229
0.815318
1.11036
1.63948
1.84916
1.909
1.92418
1.92768
13.7626
11.9571
10.7281
9.3889
8.57848
7.68664
7.12469
6.47281
6.05777
5.57567
5.28222
4.95658
4.71895
4.39041
4.1547
3.84297
3.62511
3.34387
3.14959
2.9014
2.73082
2.51393
2.3651
2.17608
2.04604
1.88005
1.76347
1.60943
1.48698
1.29926
1.12349
1.02484
0.922467
0.857106
0.778968
0.726821
0.662307
0.618759
0.564376
0.527546
0.481427
0.450184
0.411068
0.384631
0.351644
0.329522
0.302213
0.284315
0.262909
0.249698
0.2348
0.223828
0.208545
0.197533
0.182909
0.172664
0.159404
0.150235
0.138511
0.130467
0.120269
0.113353
0.104725
0.0991087
0.0925482
0.089194
0.0871529
0.0905959
0.10485
0.138764
0.228845
0.374939
0.529505
0.815966
1.11862
1.62773
1.8431
1.9071
1.92367
1.92752
-13.6267
-11.9377
-10.8746
-9.86322
-9.31961
-8.81677
-8.53891
-8.26774
-8.11719
-7.96843
-7.86584
-7.73003
-7.63434
-7.50966
-7.42267
-7.31034
-7.23221
-7.13158
-7.06176
-6.97205
-6.90999
-6.83052
-6.77572
-6.70577
-6.65755
-6.59591
-6.55272
-6.49587
-6.45114
-6.38329
-6.32062
-6.28604
-6.25102
-6.22911
-6.2035
-6.18673
-6.16642
-6.15297
-6.13652
-6.12559
-6.1122
-6.1033
-6.0924
-6.08518
-6.07639
-6.07062
-6.06368
-6.05925
-6.0541
-6.05102
-6.04769
-6.04538
-6.04235
-6.04036
-6.03801
-6.03667
-6.03542
-6.03504
-6.03534
-6.03637
-6.03895
-6.04211
-6.04833
-6.05511
-6.06777
-6.08157
-6.10775
-6.13894
-6.20314
-6.29677
-6.5086
-6.80265
-7.06552
-7.50314
-7.92081
-8.58505
-8.86471
-8.94771
-8.96918
-8.97418
-13.6943
-11.9127
-10.8726
-9.84451
-9.31797
-8.80777
-8.53864
-8.26292
-8.11712
-7.96658
-7.86717
-7.72843
-7.6355
-7.50815
-7.42369
-7.30897
-7.23311
-7.13035
-7.06255
-6.97094
-6.91068
-6.82954
-6.77633
-6.7049
-6.65809
-6.59518
-6.55327
-6.49538
-6.45206
-6.38309
-6.3195
-6.28605
-6.2505
-6.22926
-6.20314
-6.18687
-6.16615
-6.15309
-6.1363
-6.12569
-6.11202
-6.10338
-6.09225
-6.08525
-6.07627
-6.07067
-6.06358
-6.05927
-6.05402
-6.05103
-6.04765
-6.04541
-6.0423
-6.04037
-6.03797
-6.03667
-6.03538
-6.03502
-6.03531
-6.0363
-6.03893
-6.04199
-6.04831
-6.05487
-6.06772
-6.08107
-6.10755
-6.13762
-6.20196
-6.29205
-6.50531
-6.8039
-7.05853
-7.50393
-7.91094
-8.60044
-8.87258
-8.95017
-8.96984
-8.97438
-13.8331
-11.858
-10.87
-9.80573
-9.31569
-8.78912
-8.53863
-8.25289
-8.11723
-7.96269
-7.87007
-7.72499
-7.63804
-7.50493
-7.42591
-7.30604
-7.23508
-7.12771
-7.0643
-6.96858
-6.91221
-6.82743
-6.77766
-6.70305
-6.65927
-6.5936
-6.55445
-6.49432
-6.45401
-6.38266
-6.31717
-6.28615
-6.2494
-6.2296
-6.2024
-6.18719
-6.16556
-6.15336
-6.13583
-6.12591
-6.11164
-6.10356
-6.09194
-6.08539
-6.07601
-6.07077
-6.06337
-6.05934
-6.05384
-6.05105
-6.04757
-6.04547
-6.04222
-6.0404
-6.03788
-6.03666
-6.03531
-6.03496
-6.03526
-6.03618
-6.03888
-6.04174
-6.04828
-6.05439
-6.06766
-6.08005
-6.10721
-6.13493
-6.19975
-6.28239
-6.49861
-6.8069
-7.04391
-7.50627
-7.88978
-8.63251
-8.88823
-8.95495
-8.97111
-8.97476
-14.0509
-11.7638
-10.8705
-9.74398
-9.31486
-8.75944
-8.54004
-8.23687
-8.11811
-7.95632
-7.87507
-7.71922
-7.64242
-7.49954
-7.42977
-7.30116
-7.23851
-7.12332
-7.06733
-6.96464
-6.91488
-6.82392
-6.77999
-6.69996
-6.66132
-6.59095
-6.55647
-6.49245
-6.4572
-6.382
-6.31346
-6.28648
-6.24763
-6.23023
-6.20117
-6.18776
-6.16461
-6.15384
-6.13506
-6.12631
-6.11101
-6.10388
-6.09142
-6.08564
-6.07559
-6.07097
-6.06302
-6.05946
-6.05356
-6.0511
-6.04742
-6.04558
-6.04207
-6.04046
-6.03774
-6.03666
-6.03519
-6.03489
-6.03517
-6.03598
-6.03884
-6.04134
-6.04826
-6.05361
-6.06762
-6.07844
-6.10684
-6.13075
-6.19683
-6.26739
-6.48822
-6.81276
-7.02028
-7.51176
-7.85425
-8.68407
-8.91144
-8.96175
-8.97288
-8.97529
-14.3602
-11.6138
-10.8804
-9.65434
-9.31909
-8.71631
-8.54479
-8.21346
-8.1207
-7.94672
-7.88305
-7.71029
-7.64944
-7.49122
-7.43598
-7.29364
-7.24405
-7.11656
-7.07224
-6.95859
-6.91919
-6.81854
-6.78376
-6.69521
-6.66465
-6.58688
-6.55968
-6.48944
-6.46199
-6.38108
-6.30809
-6.28729
-6.24499
-6.23134
-6.19931
-6.18873
-6.16315
-6.15464
-6.13388
-6.12696
-6.11005
-6.10441
-6.09064
-6.08607
-6.07495
-6.07129
-6.0625
-6.05968
-6.05314
-6.0512
-6.04721
-6.04576
-6.04185
-6.04057
-6.03754
-6.03668
-6.03503
-6.03478
-6.03507
-6.03569
-6.0388
-6.04076
-6.04831
-6.05249
-6.06772
-6.07612
-6.10666
-6.12489
-6.19373
-6.24639
-6.47369
-6.8233
-6.98529
-7.5232
-7.79923
-8.75973
-8.94173
-8.97012
-8.97499
-8.97592
-14.7794
-11.3834
-10.9099
-9.52906
-9.33401
-8.65592
-8.55594
-8.18052
-8.12653
-7.93272
-7.8954
-7.69689
-7.66036
-7.47879
-7.44567
-7.28241
-7.25269
-7.10648
-7.07992
-6.94956
-6.92596
-6.81051
-6.78968
-6.68815
-6.66986
-6.58078
-6.5646
-6.48471
-6.46892
-6.37984
-6.30063
-6.28895
-6.24121
-6.23318
-6.1966
-6.19029
-6.16101
-6.15593
-6.13216
-6.12802
-6.10864
-6.10527
-6.08949
-6.08675
-6.07401
-6.07182
-6.06174
-6.06005
-6.05253
-6.05139
-6.04689
-6.04603
-6.04152
-6.04074
-6.03725
-6.03673
-6.03482
-6.03466
-6.03495
-6.03531
-6.03882
-6.03996
-6.04849
-6.05093
-6.06809
-6.07292
-6.10696
-6.117
-6.19128
-6.21839
-6.45426
-6.84134
-6.93526
-7.54513
-7.71683
-8.86653
-8.97817
-8.97943
-8.97727
-8.97658
-15.3344
-11.036
-10.9757
-9.35635
-9.36826
-8.57242
-8.5781
-8.13471
-8.13797
-7.91245
-7.91419
-7.677
-7.67708
-7.46041
-7.46056
-7.26584
-7.266
-7.0916
-7.09175
-6.93626
-6.93639
-6.7987
-6.79882
-6.67775
-6.6779
-6.57176
-6.57207
-6.47742
-6.47878
-6.3782
-6.29046
-6.29205
-6.23584
-6.23616
-6.19268
-6.19277
-6.15791
-6.15796
-6.12964
-6.12968
-6.10659
-6.10662
-6.08782
-6.08784
-6.07265
-6.07266
-6.06064
-6.06065
-6.05167
-6.0517
-6.04643
-6.04645
-6.04104
-6.04103
-6.03684
-6.03683
-6.03453
-6.03452
-6.03483
-6.03481
-6.03892
-6.03886
-6.04892
-6.04878
-6.06895
-6.06855
-6.10823
-6.10654
-6.19072
-6.18205
-6.42879
-6.87111
-6.86459
-7.58458
-7.59531
-9.01485
-9.01903
-8.98888
-8.97948
-8.97722
-16.0613
-10.5191
-11.1039
-9.11839
-9.43481
-8.45685
-8.61822
-8.07104
-8.15855
-7.88309
-7.94254
-7.64763
-7.70246
-7.43337
-7.48325
-7.24147
-7.28628
-7.06974
-7.1098
-6.91674
-6.95234
-6.78138
-6.81282
-6.66251
-6.69019
-6.55848
-6.58335
-6.46629
-6.49271
-6.37604
-6.27673
-6.29747
-6.22821
-6.24089
-6.18701
-6.19665
-6.15341
-6.16113
-6.126
-6.13227
-6.10362
-6.10873
-6.08539
-6.08954
-6.07068
-6.07399
-6.05906
-6.06161
-6.05045
-6.05223
-6.04575
-6.04709
-6.04034
-6.04148
-6.03626
-6.03703
-6.03415
-6.03436
-6.03473
-6.03413
-6.0392
-6.03736
-6.04975
-6.04581
-6.07064
-6.06258
-6.11115
-6.09265
-6.19387
-6.13548
-6.39549
-6.91883
-6.76487
-7.6524
-7.41744
-9.21979
-9.06125
-8.99749
-8.98142
-8.97777
-17.0099
-9.75715
-11.3349
-8.78835
-9.55314
-8.29571
-8.68669
-7.98198
-8.19364
-7.84034
-7.98506
-7.60426
-7.74081
-7.39356
-7.51761
-7.20563
-7.31702
-7.03762
-7.13718
-6.88807
-6.97655
-6.75596
-6.83408
-6.64015
-6.70885
-6.53894
-6.60029
-6.44942
-6.51237
-6.3732
-6.25819
-6.30648
-6.21731
-6.24828
-6.1788
-6.20265
-6.14687
-6.16602
-6.12069
-6.13626
-6.09929
-6.11197
-6.08187
-6.09215
-6.06782
-6.07604
-6.05679
-6.06311
-6.04872
-6.05309
-6.04477
-6.04805
-6.03933
-6.04218
-6.03545
-6.03737
-6.03365
-6.0342
-6.03466
-6.03323
-6.03975
-6.03529
-6.05123
-6.0417
-6.07364
-6.05435
-6.11675
-6.07397
-6.2034
-6.07619
-6.35166
-6.99364
-6.62348
-7.76512
-7.15807
-9.50317
-9.09969
-9.00421
-8.98285
-8.97817
-18.2486
-8.64193
-11.7309
-8.32583
-9.75234
-8.06861
-8.79896
-7.85624
-8.25132
-7.77764
-8.04858
-7.54018
-7.79848
-7.33488
-7.56939
-7.15284
-7.36338
-6.99032
-7.17848
-6.84588
-7.01311
-6.71857
-6.86621
-6.60726
-6.73705
-6.51014
-6.62571
-6.42398
-6.54009
-6.36937
-6.2331
-6.32099
-6.20158
-6.25968
-6.16685
-6.21182
-6.13732
-6.17347
-6.11294
-6.14234
-6.09297
-6.11692
-6.07672
-6.09614
-6.06366
-6.07919
-6.05348
-6.06544
-6.04622
-6.05445
-6.04331
-6.04948
-6.03785
-6.04327
-6.03428
-6.03793
-6.03298
-6.03403
-6.03467
-6.03201
-6.04074
-6.0324
-6.05373
-6.03592
-6.07869
-6.04284
-6.12656
-6.04839
-6.22319
-6.00078
-6.29317
-7.10894
-6.42163
-7.94779
-6.78063
-9.8965
-9.12583
-9.00797
-8.98364
-8.9784
)
;

boundaryField
{
    F1_1
    {
        type            calculated;
        value           nonuniform List<scalar> 
80
(
18.9509
7.97348
11.9793
8.04099
9.87596
7.90473
8.86799
7.71471
8.28886
7.55125
7.90328
7.48932
7.75849
7.28668
7.55884
7.11004
7.36536
6.95299
7.18597
6.81344
7.02277
6.69046
6.87639
6.58297
6.747
6.48917
6.63545
6.40565
6.5518
6.36446
6.21721
6.32748
6.19098
6.26468
6.15868
6.21584
6.13077
6.17676
6.10763
6.14502
6.08864
6.1191
6.07319
6.0979
6.0608
6.08057
6.0512
6.06643
6.04448
6.05494
6.04219
6.05003
6.03677
6.04366
6.03343
6.03805
6.03245
6.03376
6.03458
6.03115
6.04127
6.03059
6.05521
6.03244
6.08177
6.03603
6.13269
6.03349
6.23619
5.9585
6.2596
7.17868
6.30273
8.06037
6.55694
10.1253
9.13447
9.00897
8.98383
8.97845
)
;
    }
    F1_2
    {
        type            calculated;
        value           nonuniform List<scalar> 
80
(
-19.3862
-7.90805
-12.494
-7.04646
-9.80627
-6.15548
-8.07706
-5.34214
-6.77159
-4.71107
-5.71178
-4.45931
-5.26948
-3.84069
-4.65855
-3.31761
-4.07149
-2.86904
-3.54037
-2.48209
-3.07111
-2.14752
-2.66117
-1.85749
-2.30581
-1.60395
-2.0031
-1.37571
-1.77904
-1.26278
-0.838978
-1.15718
-0.751904
-0.97394
-0.646755
-0.826063
-0.552968
-0.703073
-0.472197
-0.599235
-0.403226
-0.511027
-0.344645
-0.435897
-0.29538
-0.371801
-0.25503
-0.31698