/*--------------------------------*- C++ -*----------------------------------*\
| =========                 |                                                 |
| \\      /  F ield         | OpenFOAM: The Open Source CFD Toolbox           |
|  \\    /   O peration     | Version:  5.x                                   |
|   \\  /    A nd           | Web:      www.OpenFOAM.org                      |
|    \\/     M anipulation  |                                                 |
\*---------------------------------------------------------------------------*/
FoamFile
{
    version     2.0;
    format      ascii;
    class       volScalarField;
    location    "19.2";
    object      gradTy;
}
// * * * * * * * * * * * * * * * * * * * * * * * * * * * * * * * * * * * * * //

dimensions      [0 -1 0 1 0 0 0];

internalField   nonuniform List<scalar> 
2048
(
-26.4236
-26.396
-26.3417
-26.262
-26.1592
-26.0358
-25.8945
-25.7383
-25.5697
-25.3915
-25.206
-25.0154
-24.8215
-24.6262
-24.4308
-24.2368
-24.0451
-23.8568
-23.6726
-23.4931
-23.3187
-23.1498
-22.9866
-22.8293
-22.6783
-22.5337
-22.3958
-22.265
-22.1416
-22.0262
-21.9192
-21.8213
-21.7333
-21.6559
-21.5902
-21.5372
-21.4979
-21.4735
-21.4653
-21.4744
-21.5022
-21.55
-21.6189
-21.71
-21.8244
-21.9628
-22.1256
-22.3128
-22.5236
-22.7566
-23.0096
-23.2793
-23.5613
-23.8504
-24.1406
-24.4252
-24.6976
-24.9511
-25.1795
-25.3777
-25.5412
-25.6666
-25.7515
-25.7943
-26.446
-26.4177
-26.3621
-26.2807
-26.1759
-26.0502
-25.9067
-25.7482
-25.5775
-25.3974
-25.2101
-25.018
-24.8227
-24.6262
-24.4298
-24.2348
-24.0424
-23.8535
-23.6689
-23.489
-23.3143
-23.1451
-22.9817
-22.8243
-22.6731
-22.5283
-22.3901
-22.259
-22.1352
-22.0193
-21.9118
-21.8133
-21.7246
-21.6465
-21.58
-21.526
-21.4858
-21.4604
-21.4512
-21.4593
-21.4861
-21.5329
-21.6008
-21.6912
-21.805
-21.9431
-22.106
-22.2936
-22.5056
-22.7405
-22.9962
-23.2693
-23.5555
-23.8495
-24.145
-24.4352
-24.7129
-24.9713
-25.2041
-25.4058
-25.572
-25.6994
-25.7855
-25.829
-26.4887
-26.4592
-26.4011
-26.3164
-26.2076
-26.0776
-25.9296
-25.7669
-25.5922
-25.4084
-25.2179
-25.0227
-24.8249
-24.6261
-24.4277
-24.231
-24.0372
-23.8472
-23.6616
-23.4811
-23.3059
-23.1363
-22.9726
-22.8149
-22.6633
-22.518
-22.3794
-22.2476
-22.1232
-22.0064
-21.8979
-21.7983
-21.7083
-21.6288
-21.5607
-21.505
-21.463
-21.4358
-21.4246
-21.4307
-21.4556
-21.5004
-21.5666
-21.6555
-21.7681
-21.9055
-22.0684
-22.257
-22.471
-22.7094
-22.9701
-23.2498
-23.5442
-23.8476
-24.1534
-24.4541
-24.7421
-25.01
-25.251
-25.4595
-25.6309
-25.7619
-25.8504
-25.895
-26.5499
-26.5185
-26.4569
-26.3672
-26.2525
-26.1162
-25.9619
-25.7929
-25.6126
-25.4236
-25.2284
-25.0292
-24.8277
-24.6256
-24.4244
-24.2254
-24.0296
-23.838
-23.6512
-23.4698
-23.2939
-23.1239
-22.9597
-22.8015
-22.6494
-22.5036
-22.3643
-22.2317
-22.1063
-21.9884
-21.8785
-21.7773
-21.6855
-21.6039
-21.5335
-21.4755
-21.4309
-21.401
-21.3871
-21.3905
-21.4125
-21.4547
-21.5183
-21.6048
-21.7156
-21.8519
-22.0146
-22.2043
-22.4212
-22.6643
-22.9319
-23.221
-23.5271
-23.8441
-24.1648
-24.481
-24.784
-25.0656
-25.3184
-25.5364
-25.715
-25.8512
-25.9428
-25.9889
-26.6283
-26.5944
-26.5279
-26.4317
-26.3092
-26.1646
-26.0019
-25.8251
-25.6375
-25.4421
-25.2411
-25.0368
-24.8308
-24.6247
-24.42
-24.218
-24.0197
-23.8262
-23.6379
-23.4554
-23.2789
-23.1083
-22.9436
-22.7849
-22.6323
-22.4857
-22.3456
-22.212
-22.0854
-21.966
-21.8544
-21.7512
-21.6571
-21.573
-21.4998
-21.4387
-21.3909
-21.3577
-21.3403
-21.3402
-21.3587
-21.3973
-21.4575
-21.541
-21.6493
-21.7839
-21.9461
-22.1369
-22.3568
-22.6056
-22.8819
-23.1828
-23.5038
-23.8385
-24.1787
-24.515
-24.8376
-25.137
-25.4049
-25.6349
-25.8224
-25.9647
-26.06
-26.1079
-26.7229
-26.6857
-26.6131
-26.5084
-26.3762
-26.2213
-26.0484
-25.8621
-25.6659
-25.4629
-25.2553
-25.045
-24.8338
-24.623
-24.4142
-24.2087
-24.0075
-23.8118
-23.6219
-23.4383
-23.261
-23.0899
-22.9248
-22.7656
-22.6123
-22.465
-22.3238
-22.1891
-22.0611
-21.9401
-21.8266
-21.7211
-21.6242
-21.5371
-21.4605
-21.3959
-21.3443
-21.3071
-21.2856
-21.2813
-21.2955
-21.3299
-21.386
-21.4657
-21.5707
-21.7029
-21.864
-22.0555
-22.2787
-22.5337
-22.8199
-23.1347
-23.4737
-23.8299
-24.1942
-24.5555
-24.9023
-25.2234
-25.5095
-25.7536
-25.9513
-26.1003
-26.1996
-26.2493
-26.8331
-26.7917
-26.7114
-26.5964
-26.4523
-26.2849
-26.1001
-25.9027
-25.6968
-25.4852
-25.2702
-25.0534
-24.8364
-24.6204
-24.407
-24.1974
-23.9931
-23.7948
-23.6033
-23.4186
-23.2407
-23.0691
-22.9036
-22.744
-22.59
-22.4419
-22.2997
-22.1637
-22.0342
-21.9114
-21.7957
-21.6876
-21.5877
-21.4971
-21.4167
-21.348
-21.2921
-21.2504
-21.2243
-21.2151
-21.2245
-21.2539
-21.3052
-21.3802
-21.4812
-21.6102
-21.7694
-21.9611
-22.187
-22.4485
-22.7454
-23.076
-23.4359
-23.8175
-24.2105
-24.6019
-24.9777
-25.3245
-25.6317
-25.8916
-26.1003
-26.2562
-26.3594
-26.4108
-26.9583
-26.912
-26.8223
-26.6947
-26.5363
-26.3543
-26.1556
-25.9457
-25.729
-25.5082
-25.2853
-25.0616
-24.8383
-24.6167
-24.3981
-24.1842
-23.9763
-23.7754
-23.5822
-23.3965
-23.2181
-23.0463
-22.8806
-22.7205
-22.5659
-22.4168
-22.2736
-22.1363
-22.0052
-21.8806
-21.7625
-21.6515
-21.5483
-21.4538
-21.3692
-21.2959
-21.2352
-21.1886
-21.1574
-21.1429
-21.1468
-21.1706
-21.2163
-21.286
-21.382
-21.5068
-21.6633
-21.8542
-22.0823
-22.3499
-22.658
-23.0058
-23.3891
-23.8002
-24.227
-24.6538
-25.0637
-25.4404
-25.7713
-26.0484
-26.2682
-26.4307
-26.5373
-26.5901
-27.0986
-27.0461
-26.945
-26.8023
-26.627
-26.428
-26.2135
-25.9899
-25.7616
-25.5312
-25.3002
-25.0693
-24.8395
-24.6117
-24.3876
-24.1689
-23.9572
-23.7535
-23.5586
-23.3722
-23.1936
-23.0219
-22.8561
-22.6957
-22.5404
-22.3904
-22.2459
-22.1073
-21.9747
-21.8481
-21.7277
-21.6137
-21.5068
-21.4081
-21.3188
-21.2405
-21.1747
-21.1227
-21.0859
-21.0658
-21.0637
-21.0813
-21.1208
-21.1842
-21.2744
-21.394
-21.5466
-21.7355
-21.9647
-22.2376
-22.5569
-22.9229
-23.3323
-23.7768
-24.2426
-24.711
-25.1606
-25.5715
-25.9286
-26.2236
-26.4542
-26.6223
-26.7313
-26.7849
-27.2539
-27.194
-27.0791
-26.9185
-26.7233
-26.5048
-26.2727
-26.0341
-25.7937
-25.5535
-25.3143
-25.0763
-24.8397
-24.6055
-24.3755
-24.1515
-23.9356
-23.7291
-23.5326
-23.3458
-23.1674
-22.9961
-22.8305
-22.6699
-22.5139
-22.3628
-22.2171
-22.0772
-21.9431
-21.8146
-21.6917
-21.5745
-21.4637
-21.3605
-21.2662
-21.1826
-21.1112
-21.0535
-21.0109
-20.9847
-20.9762
-20.9871
-21.0197
-21.0762
-21.1595
-21.2729
-21.4202
-21.6058
-21.8346
-22.1116
-22.4414
-22.8261
-23.2637
-23.7458
-24.2566
-24.7732
-25.2689
-25.7185
-26.104
-26.4171
-26.6573
-26.8293
-26.9393
-26.9928
-27.4246
-27.3556
-27.2243
-27.0423
-26.824
-26.5833
-26.3317
-26.0771
-25.8242
-25.5745
-25.3274
-25.0824
-24.839
-24.5981
-24.3616
-24.1318
-23.9114
-23.7021
-23.5042
-23.3173
-23.1397
-22.9693
-22.8042
-22.6434
-22.4867
-22.3344
-22.1874
-22.0462
-21.9107
-21.7805
-21.6552
-21.5348
-21.4198
-21.3116
-21.2119
-21.1226
-21.0454
-20.9818
-20.9331
-20.9005
-20.8853
-20.8891
-20.9141
-20.9629
-21.0385
-21.1445
-21.2852
-21.4658
-21.6923
-21.9717
-22.3107
-22.7141
-23.1818
-23.7057
-24.2679
-24.8405
-25.3894
-25.8826
-26.2986
-26.6291
-26.8768
-27.0502
-27.1591
-27.2114
-27.6111
-27.5312
-27.3802
-27.1731
-26.9279
-26.6621
-26.3891
-26.1177
-25.8524
-25.5936
-25.3393
-25.0876
-24.8375
-24.5896
-24.346
-24.1099
-23.8847
-23.6723
-23.4734
-23.287
-23.1108
-22.9418
-22.7776
-22.6168
-22.4592
-22.3056
-22.1571
-22.0146
-21.878
-21.7463
-21.6187
-21.4949
-21.3755
-21.262
-21.1565
-21.0611
-20.9779
-20.9082
-20.8533
-20.8142
-20.7919
-20.7882
-20.8051
-20.8454
-20.9125
-21.01
-21.1427
-21.3163
-21.5384
-21.8177
-22.164
-22.5853
-23.0845
-23.6544
-24.2752
-24.9128
-25.5234
-26.0657
-26.5134
-26.8597
-27.1117
-27.2832
-27.3885
-27.4383
-27.814
-27.7212
-27.5467
-27.3098
-27.0337
-26.7397
-26.4435
-26.1547
-25.8774
-25.6104
-25.3499
-25.0921
-24.8354
-24.5801
-24.3287
-24.0856
-23.8551
-23.6397
-23.4401
-23.2549
-23.081
-22.9141
-22.7511
-22.5903
-22.4317
-22.2764
-22.1262
-21.9826
-21.8451
-21.7123
-21.5825
-21.4553
-21.3313
-21.2122
-21.1003
-20.9986
-20.9091
-20.8332
-20.7721
-20.7264
-20.697
-20.6853
-20.6936
-20.7249
-20.7826
-20.8706
-20.9937
-21.1585
-21.3735
-21.6498
-22.0005
-22.4382
-22.9696
-23.5898
-24.277
-24.9903
-25.6727
-26.2698
-26.7502
-27.1093
-27.3612
-27.5266
-27.625
-27.6706
-28.0343
-27.9258
-27.7234
-27.4517
-27.14
-26.8145
-26.4934
-26.1869
-25.8984
-25.6247
-25.3593
-25.0962
-24.8329
-24.5699
-24.3099
-24.0589
-23.8225
-23.604
-23.4041
-23.2211
-23.0504
-22.8865
-22.7251
-22.5643
-22.4044
-22.247
-22.0949
-21.9503
-21.8124
-21.6789
-21.5472
-21.4166
-21.2877
-21.1624
-21.0438
-20.9354
-20.8394
-20.7574
-20.69
-20.6378
-20.6011
-20.5812
-20.5804
-20.6021
-20.6498
-20.7272
-20.8394
-20.9933
-21.1985
-21.4681
-21.8197
-22.2711
-22.8348
-23.509
-24.2715
-25.0731
-25.8394
-26.4979
-27.0107
-27.3783
-27.6243
-27.7783
-27.8662
-27.9057
-28.273
-28.1457
-27.9104
-27.5978
-27.2452
-26.8851
-26.5374
-26.2131
-25.9147
-25.6362
-25.3676
-25.1001
-24.8305
-24.5593
-24.2896
-24.0295
-23.7868
-23.5651
-23.3654
-23.1855
-23.0194
-22.8595
-22.7001
-22.5393
-22.3777
-22.2175
-22.0631
-21.9177
-21.7801
-21.6465
-21.5132
-21.3792
-21.2451
-21.113
-20.9871
-20.8717
-20.7692
-20.681
-20.6077
-20.5491
-20.5051
-20.4767
-20.4665
-20.478
-20.515
-20.5811
-20.6811
-20.8222
-21.0145
-21.2733
-21.6209
-22.0824
-22.6774
-23.4091
-24.2562
-25.1613
-26.0265
-26.7536
-27.2973
-27.667
-27.8996
-28.0361
-28.1093
-28.1407
-28.5312
-28.3815
-28.1074
-27.7469
-27.3476
-26.9496
-26.5741
-26.232
-25.9256
-25.645
-25.3753
-25.1043
-24.8286
-24.5488
-24.268
-23.9972
-23.7476
-23.5228
-23.3237
-23.1483
-22.9883
-22.8336
-22.6765
-22.5155
-22.3518
-22.1879
-22.0305
-21.8846
-21.7482
-21.6154
-21.4808
-21.3434
-21.2039
-21.0644
-20.9304
-20.8078
-20.6987
-20.6044
-20.5255
-20.4608
-20.4096
-20.3724
-20.3523
-20.3533
-20.3793
-20.4334
-20.52
-20.6463
-20.8228
-21.066
-21.404
-21.8704
-22.4947
-23.2865
-24.228
-25.2552
-26.238
-27.0413
-27.6124
-27.9753
-28.1857
-28.2977
-28.3518
-28.373
-28.8104
-28.6339
-28.3144
-27.8979
-27.4452
-27.0065
-26.6019
-26.2424
-25.9306
-25.6509
-25.3829
-25.1094
-24.8277
-24.5389
-24.2451
-23.9619
-23.7049
-23.4768
-23.2787
-23.1093
-22.9573
-22.8093
-22.6548
-22.4934
-22.3271
-22.1582
-21.9968
-21.851
-21.7169
-21.586
-21.4505
-21.3096
-21.1645
-21.0166
-20.8737
-20.7437
-20.6281
-20.5279
-20.4438
-20.3735
-20.3152
-20.269
-20.2386
-20.2287
-20.2435
-20.2852
-20.3572
-20.4673
-20.625
-20.8473
-21.1689
-21.6336
-22.2838
-23.1369
-24.1826
-25.3545
-26.4789
-27.3665
-27.9586
-28.3032
-28.4805
-28.5604
-28.5908
-28.5998
-29.1122
-28.9035
-28.5316
-28.0495
-27.5359
-27.0543
-26.6196
-26.243
-25.9289
-25.6543
-25.3912
-25.1159
-24.8282
-24.5305
-24.2212
-23.9229
-23.6583
-23.4269
-23.2301
-23.0686
-22.927
-22.7873
-22.6355
-22.4732
-22.3039
-22.1284
-21.9616
-21.8165
-21.6864
-21.5589
-21.4225
-21.278
-21.1273
-20.97
-20.817
-20.6795
-20.5575
-20.4516
-20.3629
-20.2875
-20.2225
-20.1671
-20.1257
-20.1046
-20.1082
-20.1374
-20.1941
-20.2868
-20.4231
-20.6186
-20.9157
-21.3706
-22.0422
-22.956
-24.1144
-25.4588
-26.7559
-27.7355
-28.3384
-28.6497
-28.7817
-28.8214
-28.8237
-28.8184
-29.4384
-29.1907
-28.7591
-28.2002
-27.617
-27.0914
-26.6261
-26.2322
-25.9203
-25.6555
-25.4014
-25.1242
-24.8305
-24.5245
-24.1963
-23.8795
-23.6078
-23.3729
-23.1772
-23.0262
-22.8976
-22.7685
-22.6188
-22.4551
-22.283
-22.0983
-21.9241
-21.7808
-21.6567
-21.5345
-21.3973
-21.249
-21.093
-20.9246
-20.76
-20.6154
-20.4871
-20.3755
-20.2831
-20.2035
-20.1321
-20.067
-20.0141
-19.9815
-19.9742
-19.9911
-20.0315
-20.1062
-20.2192
-20.3815
-20.6451
-21.0801
-21.7675
-22.739
-24.0157
-25.5671
-27.0778
-28.1562
-28.7543
-29.0135
-29.0864
-29.0779
-29.0478
-29.0266
-29.7913
-29.4957
-28.9977
-28.3483
-27.6851
-27.1171
-26.6206
-26.2085
-25.9042
-25.6549
-25.4148
-25.135
-24.8346
-24.5224
-24.1707
-23.8306
-23.5535
-23.3148
-23.1192
-22.9819
-22.8695
-22.7539
-22.6052
-22.4392
-22.2649
-22.0679
-21.8831
-21.7436
-21.628
-21.5136
-21.3749
-21.2226
-21.0622
-20.8806
-20.7023
-20.5514
-20.417
-20.2996
-20.2047
-20.1218
-20.0447
-19.9693
-19.9041
-19.8596
-19.8421
-19.8473
-19.8704
-19.9271
-20.016
-20.138
-20.358
-20.7606
-21.4579
-22.4812
-23.8764
-25.6775
-27.4568
-28.6376
-29.2079
-29.3923
-29.3914
-29.3267
-29.2608
-29.2223
-30.1732
-29.8179
-29.2488
-28.492
-27.7359
-27.1308
-26.6026
-26.1696
-25.8805
-25.6528
-25.4337
-25.1484
-24.8405
-24.5263
-24.1444
-23.7744
-23.4957
-23.2527
-23.0551
-22.9358
-22.8432
-22.7449
-22.5948
-22.4252
-22.2511
-22.0369
-21.8372
-21.7044
-21.6004
-21.4974
-21.3557
-21.1985
-21.0359
-20.838
-20.6429
-20.4877
-20.3474
-20.2236
-20.128
-20.0428
-19.9607
-19.8742
-19.7958
-19.7389
-19.7122
-19.7071
-19.7113
-19.751
-19.8167
-19.8902
-20.0559
-20.4107
-21.1126
-22.1787
-23.6822
-25.7864
-27.909
-29.1899
-29.6998
-29.7825
-29.6927
-29.565
-29.4603
-29.4036
-30.5874
-30.1556
-29.5146
-28.6295
-27.7639
-27.1333
-26.5722
-26.1127
-25.8494
-25.6497
-25.4607
-25.1643
-24.8469
-24.5393
-24.1176
-23.7081
-23.4355
-23.1871
-22.9829
-22.8881
-22.8189
-22.7434
-22.5876
-22.4125
-22.2433
-22.0053
-21.7841
-21.663
-21.574
-21.4872
-21.3394
-21.1763
-21.0157
-20.7969
-20.5806
-20.4248
-20.2785
-20.1471
-20.0531
-19.9667
-19.8811
-19.7823
-19.6892
-19.6193
-19.5851
-19.5716
-19.5542
-19.5789
-19.625
-19.6405
-19.7409
-20.0282
-20.7321
-21.8291
-23.414
-25.8882
-28.4571
-29.8243
-30.2293
-30.1796
-29.9862
-29.7897
-29.6445
-29.5693
-31.038
-30.505
-29.7996
-28.7585
-27.7611
-27.1269
-26.5304
-26.0335
-25.8116
-25.6454
-25.5001
-25.1822
-24.8519
-24.566
-24.0905
-23.6275
-23.3749
-23.1187
-22.9003
-22.8392
-22.7964
-22.7521
-22.5831
-22.3997
-22.2446
-21.973
-21.7208
-21.6194
-21.5484
-21.4851
-21.3257
-21.1548
-21.0036
-20.7573
-20.5135
-20.3634
-20.2108
-20.0693
-19.9805
-19.894
-19.8066
-19.6936
-19.5843
-19.5005
-19.461
-19.4426
-19.3986
-19.4117
-19.4453
-19.391
-19.4159
-19.61
-20.3185
-21.4331
-23.0461
-25.9739
-29.1321
-30.552
-30.7931
-30.5777
-30.2674
-29.9982
-29.8119
-29.7182
-31.5302
-30.8593
-30.1107
-28.8769
-27.7169
-27.1162
-26.4788
-25.9263
-25.769
-25.639
-25.5575
-25.2008
-24.8517
-24.6132
-24.0631
-23.5264
-23.3172
-23.049
-22.8032
-22.7904
-22.7751
-22.7747
-22.5805
-22.3842
-22.259
-21.9399
-21.6431
-21.5742
-21.5232
-21.4941
-21.3141
-21.1321
-21.0029
-20.7191
-20.4386
-20.305
-20.1447
-19.9888
-19.9108
-19.8245
-19.7382
-19.6084
-19.4812
-19.3818
-19.3398
-19.322
-19.2434
-19.2494
-19.2835
-19.1432
-19.0855
-19.1508
-19.8761
-20.9966
-22.5433
-26.0296
-29.977
-31.3838
-31.3851
-30.9694
-30.5317
-30.1881
-29.9613
-29.8498
-32.0715
-31.2066
-30.459
-28.9824
-27.6159
-27.1097
-26.4204
-25.7822
-25.7252
-25.6278
-25.6412
-25.2179
-24.84
-24.691
-24.0355
-23.3955
-23.2682
-22.98
-22.6859
-22.744
-22.7533
-22.8166
-22.5784
-22.3621
-22.2932
-21.906
-21.5449
-21.5291
-21.4969
-21.5186
-21.3033
-21.1049
-21.0185
-20.6823
-20.3516
-20.2518
-20.0811
-19.9036
-19.845
-19.758
-19.6775
-19.5266
-19.3796
-19.2622
-19.2214
-19.2131
-19.086
-19.0913
-19.147
-18.8976
-18.7564
-18.6423
-19.4111
-20.5339
-21.859
-26.0348
-31.0517
-32.3275
-31.9955
-31.3466
-30.7746
-30.3573
-30.092
-29.9639
-32.6723
-31.5279
-30.8621
-29.0727
-27.4369
-27.1209
-26.3596
-25.5887
-25.6871
-25.6065
-25.7631
-25.2299
-24.807
-24.8139
-24.0076
-23.2211
-23.2367
-22.9145
-22.5401
-22.7042
-22.7273
-22.8857
-22.5743
-22.3268
-22.3563
-21.8711
-21.4179
-21.4877
-21.4668
-21.5649
-21.2914
-21.0682
-21.0573
-20.6467
-20.2464
-20.2078
-20.0209
-19.8108
-19.7848
-19.6939
-19.6261
-19.4481
-19.2796
-19.1405
-19.1051
-19.1203
-18.9229
-18.9353
-19.0457
-18.6523
-18.4388
-18.0711
-18.9321
-20.0712
-20.9311
-25.9593
-32.4383
-33.3851
-32.6102
-31.7001
-30.9921
-30.5046
-30.2037
-30.0606
-33.3475
-31.7937
-31.346
-29.1456
-27.15
-27.1703
-26.3021
-25.3275
-25.6662
-25.5656
-25.9401
-25.2319
-24.738
-25.0027
-23.9792
-22.9842
-23.2361
-22.8565
-22.3536
-22.6786
-22.6909
-22.993
-22.5648
-22.2689
-22.4618
-21.8349
-21.2509
-21.4561
-21.4278
-21.6419
-21.2759
-21.0147
-21.1295
-20.6117
-20.1141
-20.1787
-19.9654
-19.706
-19.7329
-19.6305
-19.5867
-19.3722
-19.1814
-19.0151
-18.9895
-19.0502
-18.7485
-18.7775
-18.993
-18.402
-18.1484
-17.417
-18.4492
-19.6521
-19.6779
-25.7603
-34.2496
-34.5488
-33.2104
-32.0205
-31.1806
-30.6289
-30.2967
-30.1405
-34.1181
-31.9599
-31.9491
-29.1989
-26.714
-27.2884
-26.2556
-24.9724
-25.6812
-25.4885
-26.1962
-25.2166
-24.6112
-25.2865
-23.9499
-22.6577
-23.286
-22.811
-22.109
-22.6791
-22.6331
-23.1543
-22.5453
-22.1745
-22.6283
-21.7969
-21.028
-21.4447
-21.3714
-21.7623
-21.2528
-20.9335
-21.2493
-20.5767
-19.9426
-20.1731
-19.9161
-19.5828
-19.6935
-19.5653
-19.5626
-19.2978
-19.0855
-18.8839
-18.872
-19.0121
-18.5552
-18.6118
-19.0072
-18.1358
-17.9085
-16.6501
-17.9735
-19.3446
-17.9934
-25.3773
-36.6388
-35.7944
-33.7729
-32.2989
-31.3378
-30.7301
-30.3713
-30.2043
-35.0135
-31.9619
-32.7267
-29.2303
-26.0728
-27.5189
-26.2294
-24.4869
-25.7613
-25.3492
-26.5647
-25.1747
-24.3964
-25.7053
-23.9186
-22.2048
-23.4146
-22.7842
-21.782
-22.7247
-22.5367
-23.3915
-22.5094
-22.0239
-22.8818
-21.7562
-20.7281
-21.47
-21.284
-21.9437
-21.2171
-20.8096
-21.4364
-20.5405
-19.7153
-20.2035
-19.8746
-19.4326
-19.6734
-19.4939
-19.5589
-19.2228
-18.9931
-18.7445
-18.7486
-19.0195
-18.3327
-18.4287
-19.1136
-17.8343
-17.7544
-15.7272
-17.5149
-19.2488
-15.7413
-24.727
-39.8118
-37.0739
-34.2711
-32.5274
-31.462
-30.8086
-30.4286
-30.2529
-36.0746
-31.7087
-33.7558
-29.2375
-25.151
-27.9225
-26.2347
-23.8203
-25.9506
-25.1072
-27.0919
-25.0937
-24.0511
-26.3134
-23.8839
-21.5758
-23.6609
-22.7838
-21.3391
-22.8442
-22.3751
-23.7349
-22.4485
-21.7898
-23.2572
-21.7108
-20.3229
-21.5565
-21.1444
-22.2105
-21.1619
-20.6219
-21.7175
-20.5012
-19.41
-20.2874
-19.8426
-19.2432
-19.6822
-19.4092
-19.5822
-19.1441
-18.906
-18.5943
-18.6129
-19.0907
-18.0675
-18.2141
-19.3471
-17.4659
-17.7371
-14.5888
-17.0798
-19.5073
-12.749
-23.6965
-44.0419
-38.3042
-34.6767
-32.7004
-31.5529
-30.8651
-30.4695
-30.2876
-37.3573
-31.0741
-35.1424
-29.2179
-23.8487
-28.5815
-26.2843
-22.9042
-26.3136
-24.703
-27.8402
-24.9577
-23.5185
-27.1826
-23.8433
-20.705
-24.0781
-22.8184
-20.7351
-23.0795
-22.109
-24.2258
-22.352
-21.4358
-23.801
-21.6579
-19.7751
-21.7405
-20.9211
-22.5957
-21.0784
-20.3425
-22.1282
-20.4562
-18.9975
-20.4487
-19.8217
-18.9985
-19.7343
-19.3011
-19.6421
-19.0567
-18.8273
-18.4305
-18.455
-19.2508
-17.7421
-17.9486
-19.7552
-16.9822
-17.9297
-13.1543
-16.6679
-20.3163
-8.8001
-22.1349
-49.6877
-39.3539
-34.9632
-32.8146
-31.6116
-30.9012
-30.4954
-30.3095
-38.9366
-29.8874
-37.0287
-29.1678
-22.0364
-29.6055
-26.3923
-21.6471
-26.9413
-24.0505
-28.8931
-24.7466
-22.723
-28.4067
-23.793
-19.5063
-24.736
-22.8968
-19.9079
-23.4888
-21.6807
-24.9178
-22.2057
-20.9133
-24.5743
-21.5923
-19.0333
-22.0701
-20.566
-23.1409
-20.9535
-19.9334
-22.7144
-20.4008
-18.4391
-20.7188
-19.8122
-18.6768
-19.8494
-19.1543
-19.7512
-18.953
-18.7609
-18.2496
-18.2606
-19.5331
-17.3347
-17.605
-20.402
-16.3112
-18.434
-11.3172
-16.2666
-21.9389
-3.62794
-19.8441
-57.213
-40.0275
-35.111
-32.8704
-31.6397
-30.9184
-30.5077
-30.3199
)
;

boundaryField
{
    left
    {
        type            calculated;
        value           nonuniform List<scalar> 
32
(
-26.4236
-26.446
-26.4887
-26.5499
-26.6283
-26.7229
-26.8331
-26.9583
-27.0986
-27.2539
-27.4246
-27.6111
-27.814
-28.0343
-28.273
-28.5312
-28.8104
-29.1122
-29.4384
-29.7913
-30.1732
-30.5874
-31.038
-31.5302
-32.0715
-32.6723
-33.3475
-34.1181
-35.0135
-36.0746
-37.3573
-38.9366
)
;
    }
    right
    {
        type            calculated;
        value           nonuniform List<scalar> 
32
(
-25.7943
-25.829
-25.895
-25.9889
-26.1079
-26.2493
-26.4108
-26.5901
-26.7849
-26.9928
-27.2114
-27.4383
-27.6706
-27.9057
-28.1407
-28.373
-28.5998
-28.8184
-29.0266
-29.2223
-29.4036
-29.5693
-29.7182
-29.8498
-29.9639
-30.0606
-30.1405
-30.2043
-30.2529
-30.2876
-30.3095
-30.3199
)
;
    }
    interface
    {
        type            calculated;
        value           nonuniform List<scalar> 
64
(
-39.8111
-29.1316
-38.1171
-29.1346
-20.9845
-30.2243
-26.4627
-20.9202
-27.3346
-23.6495
-29.5076
-24.6194
-22.2488
-29.1206
-23.7649
-18.8128
-25.135
-22.9481
-19.4296
-23.7453
-21.4173
-25.3216
-22.1179
-20.6032
-25.0269
-21.5554
-18.6065
-22.2781
-20.3481
-23.4592
-20.8786
-19.6909
-23.0579
-20.3697
-18.1179
-20.8855
-19.8102
-18.4937
-19.9256
-19.0689
-19.8199
-18.8958
-18.7314
-18.1545
-18.1522
-19.7095
-17.1075
-17.4098
-20.7943
-15.9183
-18.7788
-10.2829
-16.0662
-22.991
-0.699267
-18.4884
-61.5107
-40.2412
-35.1483
-32.884
-31.6465
-30.9225
-30.5107
-30.3223
)
;
    }
    bottom
    {
        type            calculated;
        value           nonuniform List<scalar> 
64
(
-26.4178
-26.3904
-26.3363
-26.2571
-26.1549
-26.032
-25.8914
-25.7357
-25.5677
-25.3899
-25.2049
-25.0147
-24.8212
-24.6262
-24.4311
-24.2373
-24.0458
-23.8577
-23.6736
-23.4942
-23.3199
-23.151
-22.9878
-22.8306
-22.6797
-22.5351
-22.3973
-22.2666
-22.1433
-22.028
-21.9211
-21.8234
-21.7355
-21.6584
-21.5929
-21.5401
-21.501
-21.4769
-21.4689
-21.4784
-21.5064
-21.5544
-21.6236
-21.7149
-21.8295
-21.968
-22.1308
-22.3178
-22.5283
-22.7608
-23.0131
-23.2818
-23.5627
-23.8506
-24.1394
-24.4226
-24.6936
-24.9458
-25.1732
-25.3704
-25.5332
-25.6581
-25.7426
-25.7853
)
;
    }
    defaultFaces
    {
        type            empty;
    }
}


// ************************************************************************* //
