/*--------------------------------*- C++ -*----------------------------------*\
| =========                 |                                                 |
| \\      /  F ield         | OpenFOAM: The Open Source CFD Toolbox           |
|  \\    /   O peration     | Version:  5.x                                   |
|   \\  /    A nd           | Web:      www.OpenFOAM.org                      |
|    \\/     M anipulation  |                                                 |
\*---------------------------------------------------------------------------*/
FoamFile
{
    version     2.0;
    format      ascii;
    class       volScalarField;
    location    "19.2";
    object      gradTx;
}
// * * * * * * * * * * * * * * * * * * * * * * * * * * * * * * * * * * * * * //

dimensions      [0 -1 0 1 0 0 0];

internalField   nonuniform List<scalar> 
2048
(
0.00630502
0.0187345
0.030639
0.0417206
0.0517504
0.0605791
0.0681362
0.0744196
0.0794789
0.0833971
0.0862738
0.0882135
0.089318
0.0896842
0.0894046
0.0885682
0.0872619
0.0855693
0.0835681
0.0813268
0.0789013
0.0763321
0.0736441
0.0708476
0.0679402
0.0649099
0.061737
0.0583962
0.0548564
0.0510819
0.0470322
0.0426639
0.0379317
0.0327911
0.0272002
0.0211215
0.0145226
0.00737742
-0.000333635
-0.00862224
-0.0174899
-0.0269244
-0.0368944
-0.0473423
-0.0581768
-0.069263
-0.0804138
-0.0913821
-0.101857
-0.111465
-0.119783
-0.12636
-0.130754
-0.13257
-0.131512
-0.127416
-0.120277
-0.110248
-0.0976158
-0.0827653
-0.0661298
-0.0481504
-0.029247
-0.00980742
0.0187887
0.0558186
0.0912577
0.124207
0.153982
0.18014
0.202482
0.221017
0.235905
0.247405
0.255824
0.261473
0.264658
0.265665
0.264764
0.26222
0.258289
0.253221
0.247248
0.240576
0.233372
0.225756
0.217801
0.209536
0.200951
0.192009
0.18265
0.172799
0.162364
0.151239
0.139303
0.126427
0.112474
0.0973118
0.0808147
0.0628709
0.0433846
0.0222777
-0.000508587
-0.0250106
-0.0512361
-0.079153
-0.108674
-0.139637
-0.171778
-0.204706
-0.237876
-0.270558
-0.301832
-0.330586
-0.355549
-0.375361
-0.388675
-0.394291
-0.391298
-0.379194
-0.357963
-0.328075
-0.290413
-0.246153
-0.196609
-0.14311
-0.0869054
-0.0291383
0.0311404
0.0924842
0.151108
0.205488
0.254477
0.297357
0.333833
0.363961
0.388052
0.406573
0.420052
0.42902
0.433978
0.435391
0.433698
0.429326
0.422697
0.414224
0.404298
0.393263
0.381398
0.368902
0.355889
0.342401
0.328415
0.313864
0.298648
0.282641
0.265693
0.247629
0.228251
0.207341
0.184671
0.16002
0.133179
0.103961
0.0722101
0.0377966
0.000621914
-0.0393787
-0.082227
-0.127884
-0.176224
-0.227004
-0.279815
-0.334044
-0.388819
-0.442964
-0.494969
-0.542992
-0.584901
-0.618387
-0.641138
-0.651077
-0.646612
-0.626864
-0.591803
-0.542254
-0.47977
-0.40639
-0.324374
-0.235962
-0.143224
-0.0480093
0.0436002
0.129427
0.211277
0.286944
0.354801
0.413879
0.463831
0.504828
0.537398
0.562266
0.580218
0.592014
0.598346
0.599843
0.597096
0.590684
0.581189
0.569192
0.555248
0.539847
0.523387
0.506143
0.488267
0.469799
0.450695
0.43085
0.410119
0.388329
0.365274
0.340713
0.314368
0.285932
0.255082
0.221502
0.184896
0.145007
0.101617
0.0545466
0.00365767
-0.0511489
-0.10992
-0.172627
-0.239134
-0.309144
-0.382147
-0.457349
-0.533597
-0.609309
-0.682414
-0.750337
-0.810048
-0.858208
-0.891423
-0.906597
-0.901332
-0.874294
-0.825435
-0.756015
-0.668382
-0.565594
-0.450974
-0.327745
-0.198793
-0.0666109
0.0563837
0.167271
0.272725
0.369776
0.456292
0.531076
0.593808
0.644864
0.685083
0.715524
0.737273
0.751334
0.758582
0.759787
0.755667
0.746936
0.734332
0.718614
0.700515
0.680691
0.659663
0.637783
0.615229
0.592028
0.568096
0.543279
0.517385
0.490195
0.461453
0.430854
0.398042
0.362613
0.324141
0.282208
0.236429
0.186473
0.132064
0.0729796
0.00903859
-0.0598967
-0.133912
-0.213011
-0.297076
-0.385799
-0.478613
-0.574599
-0.672383
-0.770028
-0.864938
-0.953808
-1.03266
-1.09699
-1.14217
-1.16387
-1.15868
-1.1247
-1.06185
-0.971946
-0.858332
-0.725317
-0.577484
-0.419135
-0.253975
-0.0850563
0.0696959
0.206602
0.336346
0.455079
0.560129
0.650118
0.724852
0.785045
0.831966
0.867106
0.891907
0.907628
0.915305
0.915817
0.90997
0.898593
0.88258
0.862878
0.840428
0.816071
0.790471
0.764055
0.737013
0.709335
0.680874
0.651414
0.620711
0.588504
0.554498
0.518334
0.479571
0.437701
0.392182
0.342483
0.288124
0.2287
0.163885
0.0934153
0.0170729
-0.065324
-0.153913
-0.248758
-0.349789
-0.456735
-0.569026
-0.685681
-0.805179
-0.925299
-1.04297
-1.15418
-1.25392
-1.33642
-1.39554
-1.42543
-1.42144
-1.38086
-1.30359
-1.19214
-1.05119
-0.886626
-0.704543
-0.510467
-0.308918
-0.103385
0.0837407
0.248
0.403008
0.543888
0.667391
0.772023
0.857857
0.926113
0.978657
1.01753
1.04458
1.06134
1.06896
1.06838
1.06045
1.04607
1.02629
1.00229
0.97523
0.946189
0.915989
0.885135
0.853808
0.821926
0.789249
0.755477
0.720312
0.683465
0.644617
0.603362
0.559177
0.511435
0.459459
0.402588
0.340237
0.271933
0.197306
0.116063
0.0279583
-0.0672385
-0.169732
-0.279669
-0.397069
-0.521742
-0.653175
-0.790403
-0.931839
-1.07507
-1.21665
-1.35185
-1.47462
-1.57774
-1.65327
-1.69349
-1.69204
-1.64522
-1.55282
-1.41832
-1.24811
-1.05014
-0.832387
-0.601757
-0.363565
-0.121568
0.0987299
0.292062
0.473587
0.637219
0.779088
0.897688
0.993545
1.06861
1.12555
1.16708
1.19556
1.21275
1.21987
1.21784
1.20746
1.1897
1.16577
1.13707
1.1051
1.07118
1.03633
1.00115
0.965762
0.929976
0.893413
0.855663
0.816371
0.775241
0.731959
0.686089
0.637022
0.583993
0.526161
0.462714
0.392952
0.316333
0.232464
0.141041
0.0417976
-0.0655402
-0.181259
-0.305617
-0.438764
-0.580637
-0.730843
-0.888509
-1.05209
-1.2191
-1.38581
-1.54688
-1.69518
-1.82185
-1.91682
-1.96997
-1.97276
-1.92006
-1.81151
-1.65187
-1.44985
-1.21608
-0.960868
-0.692712
-0.417662
-0.139506
0.114889
0.339418
0.548994
0.736092
0.896192
1.02791
1.1325
1.2129
1.27282
1.31587
1.34493
1.36198
1.36823
1.36444
1.35131
1.32979
1.30125
1.26742
1.23014
1.1911
1.15157
1.11218
1.073
1.03364
0.993547
0.952148
0.909041
0.863955
0.816625
0.766612
0.713215
0.655502
0.592431
0.523004
0.446393
0.362
0.269425
0.168385
0.058612
-0.0602091
-0.188461
-0.326544
-0.474776
-0.633271
-0.801814
-0.979708
-1.16556
-1.35697
-1.55006
-1.73902
-1.91567
-2.06931
-2.18734
-2.25663
-2.26575
-2.20758
-2.08149
-1.89394
-1.65681
-1.38424
-1.08945
-0.782739
-0.470767
-0.157037
0.132465
0.39075
0.630195
0.841558
1.01965
1.16342
1.27515
1.35915
1.42049
1.46381
1.49262
1.50905
1.51416
1.50842
1.49226
1.46659
1.43295
1.39345
1.35043
1.30599
1.2617
1.21827
1.17561
1.13308
1.08983
1.04511
0.998459
0.949698
0.898673
0.844982
0.787822
0.726051
0.658373
0.583564
0.500646
0.408978
0.308195
0.198065
0.0783509
-0.0512967
-0.191372
-0.342451
-0.505062
-0.67954
-0.865899
-1.0637
-1.27183
-1.48812
-1.7088
-1.92775
-2.13581
-2.32034
-2.46574
-2.55509
-2.57314
-2.50999
-2.36452
-2.14549
-1.86906
-1.55402
-1.21724
-0.870956
-0.522259
-0.173941
0.151728
0.446806
0.718229
0.954717
1.1504
1.30486
1.42181
1.50739
1.56835
1.61064
1.63842
1.65389
1.65773
1.64994
1.63057
1.60035
1.56105
1.51528
1.46597
1.4158
1.3667
1.31943
1.27369
1.22843
1.18244
1.13471
1.08475
1.03253
0.978119
0.921208
0.860873
0.795699
0.724071
0.644475
0.555763
0.457275
0.348726
0.229992
0.100901
-0.0389174
-0.190086
-0.353397
-0.529635
-0.719392
-0.92295
-1.1402
-1.37043
-1.61192
-1.86123
-2.11226
-2.35502
-2.57486
-2.75268
-2.86688
-2.89712
-2.82962
-2.66238
-2.40725
-2.08629
-1.72443
-1.34295
-0.956207
-0.57136
-0.189945
0.172983
0.508409
0.814227
1.07673
1.28938
1.45278
1.57268
1.65747
1.71607
1.75596
1.78202
1.79631
1.79895
1.7892
1.76649
1.73132
1.68574
1.63299
1.57675
1.52045
1.46648
1.41566
1.36731
1.31987
1.27159
1.22115
1.16802
1.11247
1.05494
0.995259
0.932367
0.864485
0.78959
0.705805
0.611778
0.506862
0.39093
0.264026
0.126093
-0.0232406
-0.184748
-0.359493
-0.548562
-0.752832
-0.972876
-1.20896
-1.46091
-1.72765
-2.00642
-2.29149
-2.57241
-2.83247
-3.04859
-3.19341
-3.23999
-3.16899
-2.97693
-2.67984
-2.30786
-1.89402
-1.46495
-1.03709
-0.617152
-0.204733
0.196568
0.576473
0.919424
1.20881
1.43752
1.6077
1.7278
1.8091
1.8631
1.8992
1.92297
1.93612
1.93782
1.92636
1.90032
1.85979
1.8072
1.74662
1.6827
1.6198
1.56092
1.50691
1.45657
1.40756
1.3575
1.30464
1.24841
1.18954
1.12906
1.06707
1.00228
0.932433
0.854994
0.767623
0.668711
0.557688
0.434682
0.299983
0.153709
-0.00448381
-0.175551
-0.360891
-0.561959
-0.779931
-1.01566
-1.26981
-1.54286
-1.8346
-2.14331
-2.46417
-2.78673
-3.0924
-3.35362
-3.53605
-3.60421
-3.53097
-3.3102
-2.96366
-2.53269
-2.06089
-1.58124
-1.11198
-0.658618
-0.217962
0.222864
0.652012
1.03517
1.35228
1.59572
1.76999
1.88711
1.96181
2.00877
2.03966
2.06076
2.07304
2.07434
2.06166
2.03239
1.98605
1.9256
1.85622
1.78373
1.71367
1.64985
1.59314
1.54154
1.4917
1.44045
1.38543
1.32603
1.26369
1.20036
1.13652
1.07056
0.999559
0.920349
0.830002
0.72658
0.609682
0.479829
0.337643
0.18349
0.0170939
-0.162719
-0.357781
-0.56999
-0.800825
-1.05136
-1.32266
-1.61594
-1.93208
-2.27078
-2.62881
-2.99645
-3.35353
-3.66758
-3.89602
-3.9925
-3.91884
-3.66446
-3.25895
-2.75923
-2.2227
-1.6895
-1.1791
-0.694677
-0.229274
0.252296
0.736139
1.16293
1.50853
1.76489
1.93998
2.05042
2.11501
2.15223
2.17651
2.19481
2.20682
2.20851
2.19533
2.1631
2.11044
2.04112
1.96183
1.87972
1.80181
1.73306
1.67427
1.62233
1.57254
1.52074
1.46382
1.40101
1.33485
1.26868
1.20349
1.13716
1.06587
0.985727
0.893036
0.785405
0.662754
0.526193
0.37675
0.215134
0.0411983
-0.146504
-0.350371
-0.572854
-0.815709
-1.08013
-1.36751
-1.6799
-2.01946
-2.38768
-2.78377
-3.19974
-3.61437
-3.98995
-4.27438
-4.40781
-4.33647
-4.04231
-3.56569
-2.98538
-2.37656
-1.78714
-1.23656
-0.724242
-0.238318
0.285347
0.830079
1.3043
1.67905
1.94588
2.11781
2.21744
2.26799
2.29247
2.30878
2.32447
2.33719
2.34032
2.32765
2.29292
2.23333
2.15396
2.0635
1.97051
1.88393
1.81027
1.75024
1.69909
1.65032
1.59874
1.54017
1.4735
1.4029
1.33378
1.26781
1.20202
1.13139
1.05121
0.956849
0.845212
0.716795
0.573576
0.417028
0.248309
0.0675046
-0.127174
-0.338883
-0.570774
-0.824844
-1.10221
-1.40448
-1.73465
-2.09624
-2.49287
-2.92725
-3.39445
-3.87304
-4.31977
-4.67189
-4.85337
-4.78853
-4.44679
-3.88353
-3.20838
-2.5191
-1.87132
-1.28246
-0.746273
-0.244771
0.322566
0.935159
1.461
1.86544
2.13949
2.30349
2.38776
2.41991
2.42834
2.43541
2.44911
2.46393
2.46978
2.45896
2.42244
2.35513
2.26425
2.16126
2.05595
1.95967
1.88115
1.82096
1.77198
1.72529
1.67483
1.61494
1.54367
1.46766
1.39535
1.32927
1.26509
1.1961
1.11691
1.02161
0.906034
0.771677
0.621771
0.458177
0.282647
0.0956615
-0.105007
-0.323533
-0.563988
-0.828541
-1.11794
-1.4338
-1.78021
-2.16209
-2.5853
-3.05735
-3.57818
-4.12728
-4.65563
-5.08892
-5.33272
-5.28069
-4.88148
-4.21167
-3.42469
-2.64644
-1.93907
-1.31497
-0.75984
-0.248354
0.364592
1.0528
1.63485
2.06947
2.34638
2.49683
2.56095
2.56987
2.55853
2.55519
2.56808
2.5869
2.59687
2.5896
2.55238
2.47625
2.37211
2.2552
2.13586
2.02859
1.94531
1.88636
1.84122
1.79774
1.74946
1.68868
1.61171
1.52886
1.453
1.38767
1.32637
1.25999
1.18292
1.08755
0.967912
0.827235
0.670566
0.499888
0.31775
0.125293
-0.0802782
-0.304517
-0.552733
-0.827162
-1.12775
-1.4558
-1.81675
-2.21689
-2.66403
-3.17212
-3.74829
-4.37451
-4.9956
-5.52518
-5.84959
-5.81999
-5.35067
-4.54863
-3.62981
-2.7542
-1.9874
-1.33241
-0.764184
-0.248859
0.41219
1.18449
1.82775
2.2931
2.56709
2.69731
2.73654
2.71695
2.68159
2.66679
2.68078
2.7061
2.72151
2.71995
2.68367
2.59714
2.47756
2.34548
2.21009
2.09015
2.00226
1.94642
1.90713
1.86788
1.82307
1.76212
1.67784
1.58611
1.50622
1.44278
1.38587
1.32303
1.24935
1.15499
1.03089
0.883257
0.719763
0.541849
0.353185
0.156002
-0.0532543
-0.281997
-0.537231
-0.821113
-1.13217
-1.47088
-1.84462
-2.26079
-2.7283
-3.26955
-3.9019
-4.61185
-5.33725
-5.97947
-6.40788
-6.41521
-5.85951
-4.89196
-3.81814
-2.83756
-2.01339
-1.3334
-0.758772
-0.246157
0.466317
1.33175
2.04164
2.53858
2.80192
2.90408
2.91417
2.86019
2.79586
2.76875
2.78667
2.82172
2.84351
2.85033
2.81753
2.71821
2.58046
2.43235
2.27853
2.14372
2.05143
2.0011
1.97016
1.93588
1.89614
1.83621
1.7423
1.6389
1.5544
1.49441
1.44377
1.38511
1.31629
1.22441
1.09501
0.939455
0.769195
0.583753
0.38848
0.187364
-0.0241895
-0.256081
-0.517669
-0.810835
-1.13182
-1.47951
-1.86425
-2.29429
-2.77756
-3.34767
-4.03597
-4.83626
-5.67771
-6.44924
-7.01138
-7.0775
-6.41419
-5.23786
-3.98282
-2.89142
-2.0144
-1.31693
-0.743342
-0.240216
0.528238
1.4961
2.27836
2.80866
3.05085
3.11572
3.09372
2.99874
2.89951
2.85944
2.88534
2.93428
2.96244
2.98101
2.95558
2.8398
2.68043
2.51628
2.34109
2.18851
2.0921
2.05047
2.03093
2.00173
1.96906
1.91219
1.80537
1.68653
1.59676
1.54237
1.50034
1.44602
1.3838
1.29646
1.16029
0.995421
0.818763
0.625314
0.423116
0.218932
0.00667969
-0.226808
-0.494186
-0.796801
-1.12744
-1.48216
-1.87617
-2.31827
-2.81154
-3.40449
-4.14723
-5.04464
-6.01385
-6.93012
-7.66348
-7.82112
-7.02218
-5.58053
-4.11556
-2.9105
-1.98822
-1.28245
-0.717932
-0.231103
0.599703
1.67892
2.53958
3.10676
3.3134
3.33012
3.27551
3.13181
2.99045
2.93705
2.9765
3.04479
3.0775
3.11204
3.10009
2.96209
2.77668
2.59807
2.39779
2.22358
2.12342
2.09462
2.09039
2.06517
2.04213
1.99175
1.86734
1.72806
1.63238
1.58653
1.55614
1.50535
1.45184
1.37211
1.22668
1.05057
0.868489
0.666269
0.456514
0.250237
0.039135
-0.194128
-0.466859
-0.779504
-1.11992
-1.47927
-1.88092
-2.33412
-2.83026
-3.43812
-4.23225
-5.23397
-6.34261
-7.41527
-8.36668
-8.66448
-7.69245
-5.91143
-4.20656
-2.88965
-1.93326
-1.22994
-0.682892
-0.218983
0.683239
1.88137
2.82648
3.4374
3.58849
3.54417
3.46062
3.25876
3.06629
2.99952
3.06003
3.15497
3.18729
3.24322
3.25421
3.08502
2.86786
2.67902
2.44871
2.24774
2.14435
2.13373
2.1499
2.12556
2.11546
2.07717
1.92848
1.76225
1.66015
1.62681
1.61209
1.56244
1.52022
1.45277
1.29405
1.10407
0.91859
0.706388
0.488012
0.280782
0.0729727
-0.157888
-0.43568
-0.759451
-1.11034
-1.47115
-1.87895
-2.34386
-2.83402
-3.44672
-4.28729
-5.4015
-6.66154
-7.89453
-9.12176
-9.63153
-8.4357
-6.21824
-4.24452
-2.82412
-1.84869
-1.15996
-0.638873
-0.204112
0.782587
2.10423
3.13947
3.80675
3.87414
3.75338
3.65131
3.37908
3.12427
3.04454
3.13593
3.26758
3.28954
3.37386
3.42242
3.20811
2.95178
2.76123
2.49401
2.25957
2.15365
2.16805
2.21149
2.18166
2.18883
2.17161
1.98895
1.78753
1.67877
1.66318
1.66964
1.61619
1.58852
1.54045
1.36209
1.15472
0.969595
0.745472
0.516845
0.310057
0.107995
-0.117807
-0.400548
-0.737138
-1.10002
-1.45795
-1.87046
-2.35025
-2.82346
-3.4286
-4.30829
-5.54484
-6.96965
-8.35349
-9.92677
-10.7535
-9.26456
-6.48344
-4.21684
-2.71001
-1.73468
-1.07367
-0.586797
-0.186824
0.903338
2.34762
3.47767
4.22338
4.16719
3.95147
3.85165
3.49229
3.16121
3.06951
3.20425
3.38685
3.38073
3.50256
3.61106
3.33026
3.02506
2.84793
2.53387
2.2573
2.14982
2.1978
2.27815
2.23141
2.26155
2.27939
2.04874
1.8019
1.68672
1.69564
1.73103
1.66487
1.656
1.63808
1.43022
1.2008
1.0225
0.783328
0.542111
0.337552
0.143993
-0.0734609
-0.36126
-0.713018
-1.09068
-1.43956
-1.85523
-2.35705
-2.79941
-3.38225
-4.29064
-5.662
-7.26862
-8.77235
-10.7755
-12.0712
-10.1938
-6.68265
-4.11004
-2.54469
-1.59242
-0.972733
-0.527811
-0.167508
1.05385
2.61074
3.83825
4.69931
4.46285
4.12968
4.06832
3.59782
3.17339
3.07148
3.26496
3.51916
3.45556
3.62691
3.82909
3.44941
3.08275
2.94408
2.56834
2.23877
2.13114
2.22313
2.35419
2.27154
2.33227
2.40645
2.10745
1.80291
1.68235
1.72414
1.79957
1.7059
1.72141
1.74979
1.49746
1.23993
1.07898
0.819735
0.562731
0.362779
0.180725
-0.0242561
-0.317508
-0.687446
-1.08452
-1.41551
-1.83233
-2.36931
-2.76283
-3.30645
-4.229
-5.75129
-7.56446
-9.1246
-11.6555
-13.6381
-11.2404
-6.7824
-3.91052
-2.32733
-1.42423
-0.859316
-0.463223
-0.146591
1.24647
2.89148
4.21545
5.25146
4.75412
4.27607
4.31168
3.69466
3.15652
3.04726
3.31764
3.67378
3.50634
3.74309
4.089
3.56218
3.11775
3.05698
2.59722
2.20143
2.09563
2.24392
2.44583
2.29725
2.39868
2.5609
2.16405
1.78759
1.66382
1.74844
1.8801
1.73551
1.78283
1.88144
1.56222
1.26881
1.1417
0.854362
0.577411
0.385319
0.217873
0.0305959
-0.268891
-0.660589
-1.08447
-1.38492
-1.79981
-2.39373
-2.71459
-3.20046
-4.11704
-5.81096
-7.86973
-9.37561
-12.5456
-15.5237
-12.4233
-6.73755
-3.6058
-2.05935
-1.23349
-0.735934
-0.394433
-0.124514
1.49922
3.18589
4.59943
5.90342
5.03109
4.37453
4.59717
3.78088
3.10571
2.99341
3.3611
3.86398
3.52222
3.84535
4.40809
3.66333
3.12018
3.19719
2.61965
2.14227
2.04115
2.2595
2.56182
2.30164
2.45723
2.75374
2.21645
1.75249
1.62928
1.76791
1.97948
1.74836
1.83743
2.04111
1.62206
1.283
1.21465
0.886651
0.584595
0.404878
0.254994
0.0921134
-0.21495
-0.6323
-1.09439
-1.3464
-1.75424
-2.43915
-2.65512
-3.06428
-3.94711
-5.83851
-8.20635
-9.4811
-13.4122
-17.8183
-13.7635
-6.48818
-3.18622
-1.74483
-1.02455
-0.605331
-0.322863
-0.101714
1.8379
3.48762
4.97471
6.68777
5.27999
4.40367
4.94697
3.85289
3.01551
2.90642
3.39266
4.10831
3.48826
3.92541
4.80987
3.74513
3.07663
3.37963
2.63368
2.05789
1.96545
2.26822
2.71438
2.27512
2.50277
2.99971
2.26105
1.69369
1.57692
1.78119
2.10731
1.73702
1.88118
2.23982
1.67337
1.27656
1.30362
0.915632
0.58243
0.421372
0.291444
0.16159
-0.155221
-0.601934
-1.1194
-1.29803
-1.69017
-2.51727
-2.58398
-2.89905
-3.71006
-5.82963
-8.60906
-9.38558
-14.2057
-20.6381
-15.2832
-5.95595
-2.64745
-1.39075
-0.802486
-0.47033
-0.24989
-0.0785988
2.29875
3.78714
5.3183
7.64879
5.48205
4.33555
5.39218
3.90439
2.88002
2.783
3.40734
4.43227
3.3843
3.97171
5.32582
3.79652
2.96927
3.625
2.63558
1.94451
1.86638
2.26691
2.92018
2.2047
2.52806
3.31834
2.292
1.60696
1.50517
1.7857
2.27671
1.69147
1.90854
2.49239
1.71096
1.24175
1.41678
0.93967
0.568737
0.435037
0.326285
0.240652
-0.08933
-0.568105
-1.1662
-1.23733
-1.5995
-2.64338
-2.49917
-2.70752
-3.3949
-5.77653
-9.12956
-9.02085
-14.8556
-24.1315
-17.0051
-5.04009
-1.99352
-1.00696
-0.572822
-0.333681
-0.176784
-0.0555406
2.93166
4.07092
5.59743
8.8458
5.6122
4.1342
5.97521
3.92499
2.69312
2.62038
3.39663
4.87022
3.18379
3.96856
5.99744
3.8022
2.77488
3.96131
2.61891
1.79819
1.74209
2.25009
3.20168
2.07317
2.52331
3.73521
2.30035
1.48789
1.41297
1.77708
2.50535
1.59841
1.91206
2.8183
1.72761
1.16865
1.56534
0.956131
0.540995
0.446556
0.35816
0.331344
-0.017134
-0.52837
-1.24352
-1.16127
-1.47064
-2.83745
-2.39628
-2.49476
-2.98878
-5.66569
-9.8413
-8.30462
-15.2643
-28.4861
-18.9507
-3.61291
-1.24083
-0.605812
-0.341146
-0.197924
-0.104669
-0.0328606
3.80395
4.32038
5.767
10.3569
5.63738
3.75401
6.75271
3.89841
2.44886
2.41689
3.34697
5.46768
2.85235
3.89519
6.87843
3.74155
2.4638
4.42584
2.57344
1.61503
1.59138
2.20902
3.58858
1.85821
2.47562
4.2833
2.27295
1.33224
1.30003
1.74834
2.81656
1.44054
1.88196
3.24284
1.71345
1.04473
1.76431
0.960946
0.496361
0.457222
0.385145
0.436229
0.0610901
-0.478833
-1.3625
-1.06637
-1.28764
-3.12525
-2.26741
-2.26895
-2.47701
-5.47496
-10.8448
-7.13938
-15.3011
-33.9368
-21.1393
-1.51516
-0.422853
-0.201267
-0.112737
-0.0652799
-0.034493
-0.0108258
)
;

boundaryField
{
    left
    {
        type            calculated;
        value           uniform 0;
    }
    right
    {
        type            calculated;
        value           uniform 0;
    }
    interface
    {
        type            calculated;
        value           nonuniform List<scalar> 
64
(
3.80395
4.32038
5.767
10.3569
5.63738
3.75401
6.75271
3.89841
2.44886
2.41689
3.34697
5.46768
2.85235
3.89519
6.87843
3.74155
2.4638
4.42584
2.57344
1.61503
1.59138
2.20902
3.58858
1.85821
2.47562
4.2833
2.27295
1.33224
1.30003
1.74834
2.81656
1.44054
1.88196
3.24284
1.71345
1.04473
1.76431
0.960946
0.496361
0.457222
0.385145
0.436229
0.0610901
-0.478833
-1.3625
-1.06637
-1.28764
-3.12525
-2.26741
-2.26895
-2.47701
-5.47496
-10.8448
-7.13938
-15.3011
-33.9368
-21.1393
-1.51516
-0.422853
-0.201267
-0.112737
-0.0652799
-0.034493
-0.0108258
)
;
    }
    bottom
    {
        type            calculated;
        value           nonuniform List<scalar> 
64
(
0.00630502
0.0187345
0.030639
0.0417206
0.0517504
0.0605791
0.0681362
0.0744196
0.0794789
0.0833971
0.0862738
0.0882135
0.089318
0.0896842
0.0894046
0.0885682
0.0872619
0.0855693
0.0835681
0.0813268
0.0789013
0.0763321
0.0736441
0.0708476
0.0679402
0.0649099
0.061737
0.0583962
0.0548564
0.0510819
0.0470322
0.0426639
0.0379317
0.0327911
0.0272002
0.0211215
0.0145226
0.00737742
-0.000333635
-0.00862224
-0.0174899
-0.0269244
-0.0368944
-0.0473423
-0.0581768
-0.069263
-0.0804138
-0.0913821
-0.101857
-0.111465
-0.119783
-0.12636
-0.130754
-0.13257
-0.131512
-0.127416
-0.120277
-0.110248
-0.0976158
-0.0827653
-0.0661298
-0.0481504
-0.029247
-0.00980742
)
;
    }
    defaultFaces
    {
        type            empty;
    }
}


// ************************************************************************* //
