/*--------------------------------*- C++ -*----------------------------------*\
| =========                 |                                                 |
| \\      /  F ield         | OpenFOAM: The Open Source CFD Toolbox           |
|  \\    /   O peration     | Version:  5.x                                   |
|   \\  /    A nd           | Web:      www.OpenFOAM.org                      |
|    \\/     M anipulation  |                                                 |
\*---------------------------------------------------------------------------*/
FoamFile
{
    version     2.0;
    format      ascii;
    class       volScalarField;
    location    "3.8";
    object      gradTx;
}
// * * * * * * * * * * * * * * * * * * * * * * * * * * * * * * * * * * * * * //

dimensions      [0 -1 0 1 0 0 0];

internalField   nonuniform List<scalar> 
2048
(
0.00630458
0.0187334
0.0306372
0.0417181
0.0517471
0.060575
0.0681314
0.0744141
0.0794727
0.0833902
0.0862662
0.0882052
0.0893091
0.0896748
0.0893946
0.0885577
0.087251
0.0855579
0.0835563
0.0813147
0.0788889
0.0763194
0.0736313
0.0708346
0.0679271
0.0648968
0.061724
0.0583832
0.0548436
0.0510692
0.0470199
0.042652
0.0379202
0.0327802
0.0271899
0.0211118
0.0145137
0.00736934
-0.000340802
-0.00862841
-0.017495
-0.0269284
-0.0368971
-0.0473438
-0.058177
-0.0692618
-0.0804112
-0.0913782
-0.101852
-0.111458
-0.119775
-0.126352
-0.130745
-0.132561
-0.131502
-0.127407
-0.120268
-0.110239
-0.0976078
-0.0827583
-0.066124
-0.048146
-0.0292441
-0.00980642
0.0187874
0.0558151
0.0912523
0.1242
0.153972
0.180128
0.202468
0.221
0.235886
0.247385
0.255801
0.261449
0.264632
0.265637
0.264735
0.262189
0.258257
0.253187
0.247213
0.24054
0.233335
0.225719
0.217764
0.209498
0.200912
0.19197
0.182612
0.172761
0.162326
0.151202
0.139267
0.126392
0.11244
0.0972794
0.0807841
0.0628423
0.0433582
0.0222538
-0.000529774
-0.0250289
-0.0512512
-0.0791647
-0.108682
-0.139641
-0.171778
-0.204703
-0.237868
-0.270547
-0.301817
-0.330567
-0.355527
-0.375336
-0.388648
-0.394262
-0.391268
-0.379165
-0.357935
-0.328049
-0.290389
-0.246132
-0.196592
-0.143097
-0.0868968
-0.0291352
0.0311384
0.0924786
0.1511
0.205476
0.254461
0.297338
0.33381
0.363934
0.388022
0.406539
0.420015
0.428981
0.433936
0.435346
0.43365
0.429275
0.422644
0.41417
0.404242
0.393205
0.381339
0.368841
0.355827
0.342338
0.328352
0.313801
0.298585
0.282578
0.265631
0.247568
0.228192
0.207283
0.184616
0.159968
0.133129
0.103915
0.0721671
0.0377576
0.000587304
-0.0394086
-0.0822517
-0.127903
-0.176238
-0.227011
-0.279816
-0.334039
-0.388807
-0.442944
-0.494944
-0.54296
-0.584864
-0.618345
-0.641094
-0.65103
-0.646564
-0.626816
-0.591756
-0.542211
-0.479731
-0.406356
-0.324346
-0.23594
-0.14321
-0.0480039
0.0435975
0.12942
0.211265
0.286927
0.35478
0.413852
0.4638
0.504792
0.537357
0.56222
0.580168
0.591959
0.598287
0.599781
0.59703
0.590615
0.581117
0.569117
0.55517
0.539768
0.523306
0.50606
0.488183
0.469714
0.450609
0.430764
0.410033
0.388243
0.365189
0.34063
0.314287
0.285853
0.255006
0.221429
0.184828
0.144943
0.101558
0.0544931
0.0036102
-0.0511898
-0.109954
-0.172654
-0.239152
-0.309154
-0.382148
-0.457341
-0.53358
-0.609282
-0.682378
-0.750293
-0.809997
-0.858151
-0.891361
-0.906531
-0.901266
-0.874227
-0.825371
-0.755955
-0.668328
-0.565546
-0.450935
-0.327715
-0.198773
-0.0666032
0.0563804
0.167262
0.27271
0.369755
0.456265
0.531043
0.593769
0.644819
0.685032
0.715466
0.737211
0.751266
0.758509
0.759709
0.755584
0.746849
0.734242
0.71852
0.700418
0.680591
0.659561
0.637679
0.615124
0.591922
0.567989
0.543171
0.517278
0.490088
0.461346
0.43075
0.39794
0.362514
0.324046
0.282117
0.236343
0.186392
0.13199
0.0729122
0.00897881
-0.0599483
-0.133954
-0.213045
-0.297099
-0.385811
-0.478614
-0.574589
-0.672361
-0.769994
-0.864893
-0.953752
-1.03259
-1.09692
-1.14209
-1.16378
-1.1586
-1.12462
-1.06177
-0.971869
-0.858262
-0.725257
-0.577434
-0.419097
-0.253949
-0.0850463
0.0696919
0.206591
0.336328
0.455055
0.560098
0.65008
0.724806
0.784991
0.831905
0.867037
0.891832
0.907546
0.915218
0.915723
0.909871
0.898489
0.882472
0.862767
0.840313
0.815953
0.790349
0.763931
0.736888
0.709208
0.680747
0.651286
0.620582
0.588376
0.554372
0.518209
0.479448
0.437582
0.392068
0.342374
0.288021
0.228604
0.163796
0.0933346
0.0170013
-0.0653858
-0.153965
-0.248798
-0.349817
-0.45675
-0.569027
-0.685669
-0.805153
-0.925259
-1.04292
-1.15411
-1.25384
-1.33633
-1.39544
-1.42533
-1.42133
-1.38076
-1.30349
-1.19205
-1.05111
-0.886553
-0.704482
-0.51042
-0.308886
-0.103373
0.0837363
0.247987
0.402988
0.543861
0.667355
0.771979
0.857804
0.926052
0.978587
1.01745
1.0445
1.06125
1.06886
1.06828
1.06034
1.04595
1.02617
1.00216
0.975097
0.946052
0.915849
0.884993
0.853663
0.82178
0.789102
0.75533
0.720165
0.683318
0.644471
0.603218
0.559035
0.511297
0.459326
0.402461
0.340118
0.271821
0.197202
0.11597
0.0278752
-0.0673103
-0.169792
-0.279715
-0.397102
-0.52176
-0.653178
-0.790389
-0.931808
-1.07503
-1.21658
-1.35177
-1.47453
-1.57764
-1.65316
-1.69337
-1.69192
-1.6451
-1.5527
-1.41821
-1.24802
-1.05006
-0.832317
-0.601703
-0.363527
-0.121553
0.098725
0.292048
0.473566
0.637189
0.779049
0.897639
0.993487
1.06854
1.12547
1.16699
1.19546
1.21264
1.21976
1.21772
1.20734
1.18957
1.16563
1.13693
1.10495
1.07102
1.03618
1.00099
0.9656
0.929813
0.893249
0.855498
0.816206
0.775076
0.731794
0.685926
0.636862
0.583837
0.526011
0.462571
0.392816
0.316207
0.232347
0.140935
0.0417035
-0.0656215
-0.181327
-0.30567
-0.438802
-0.580658
-0.730846
-0.888493
-1.05205
-1.21905
-1.38573
-1.54679
-1.69508
-1.82173
-1.91669
-1.96983
-1.97262
-1.91992
-1.81138
-1.65174
-1.44974
-1.21598
-0.960787
-0.69265
-0.417619
-0.139489
0.114884
0.339404
0.548972
0.73606
0.89615
1.02786
1.13243
1.21282
1.27274
1.31577
1.34482
1.36186
1.36811
1.36431
1.35117
1.32964
1.3011
1.26726
1.22998
1.19094
1.15139
1.112
1.07282
1.03346
0.993367
0.951968
0.90886
0.863774
0.816443
0.766431
0.713037
0.655328
0.592263
0.522844
0.446242
0.361859
0.269295
0.168267
0.0585071
-0.0602998
-0.188537
-0.326604
-0.474818
-0.633295
-0.801818
-0.979692
-1.16552
-1.35691
-1.54998
-1.73892
-1.91554
-2.06917
-2.18719
-2.25647
-2.26559
-2.20742
-2.08134
-1.8938
-1.65668
-1.38413
-1.08936
-0.78267
-0.470719
-0.157019
0.132459
0.390735
0.630171
0.841525
1.01961
1.16337
1.27508
1.35907
1.42039
1.4637
1.4925
1.50893
1.51403
1.50827
1.49211
1.46643
1.43278
1.39328
1.35025
1.30581
1.26151
1.21808
1.17542
1.13289
1.08963
1.04491
0.998263
0.949501
0.898475
0.844785
0.787627
0.72586
0.658189
0.583388
0.50048
0.408823
0.308051
0.197935
0.0782354
-0.0513966
-0.191455
-0.342517
-0.505109
-0.679567
-0.865905
-1.06368
-1.27179
-1.48806
-1.70871
-1.92764
-2.13567
-2.32018
-2.46557
-2.55492
-2.57296
-2.50981
-2.36435
-2.14533
-1.86891
-1.5539
-1.21714
-0.870879
-0.522207
-0.173921
0.151723
0.44679
0.718205
0.954683
1.15036
1.3048
1.42174
1.50731
1.56825
1.61053
1.6383
1.65375
1.65759
1.64979
1.6304
1.60018
1.56088
1.5151
1.46578
1.4156
1.36649
1.31923
1.27348
1.22823
1.18223
1.1345
1.08454
1.03232
0.977906
0.920994
0.860661
0.795491
0.723869
0.644282
0.555581
0.457105
0.348569
0.22985
0.100775
-0.0390263
-0.190177
-0.353469
-0.529687
-0.719422
-0.922957
-1.14018
-1.37038
-1.61185
-1.86113
-2.11214
-2.35488
-2.57469
-2.75249
-2.86668
-2.89692
-2.82941
-2.66218
-2.40708
-2.08614
-1.7243
-1.34284
-0.956123
-0.571303
-0.189923
0.172977
0.508393
0.814203
1.07669
1.28934
1.45272
1.57261
1.65739
1.71596
1.75584
1.78189
1.79617
1.7988
1.78903
1.76632
1.73115
1.68556
1.63279
1.57655
1.52024
1.46626
1.41544
1.3671
1.31965
1.27137
1.22093
1.16781
1.11225
1.05471
0.995028
0.932136
0.864259
0.789371
0.705596
0.61158
0.506678
0.39076
0.263872
0.125957
-0.0233584
-0.184847
-0.359571
-0.548619
-0.752866
-0.972886
-1.20894
-1.46086
-1.72757
-2.00632
-2.29136
-2.57224
-2.83228
-3.04839
-3.19319
-3.23976
-3.16877
-2.97671
-2.67964
-2.30769
-1.89387
-1.46483
-1.037
-0.617091
-0.20471
0.196562
0.576458
0.919401
1.20878
1.43747
1.60764
1.72772
1.80901
1.86299
1.89908
1.92283
1.93597
1.93766
1.9262
1.90014
1.85961
1.807
1.74642
1.68249
1.61958
1.56069
1.50668
1.45634
1.40733
1.35727
1.30441
1.24818
1.18931
1.12882
1.06682
1.00203
0.932189
0.854757
0.767397
0.668497
0.557489
0.434499
0.299818
0.153563
-0.00461053
-0.175657
-0.360976
-0.562022
-0.77997
-1.01567
-1.26979
-1.54281
-1.83452
-2.1432
-2.46402
-2.78655
-3.0922
-3.35339
-3.53581
-3.60396
-3.53072
-3.30996
-2.96345
-2.5325
-2.06074
-1.58111
-1.11188
-0.658552
-0.217937
0.222858
0.651997
1.03515
1.35225
1.59568
1.76993
1.88703
1.96171
2.00866
2.03953
2.06062
2.07289
2.07418
2.06149
2.03221
1.98586
1.9254
1.85601
1.78351
1.71344
1.64961
1.5929
1.5413
1.49147
1.44022
1.3852
1.32579
1.26345
1.20011
1.13626
1.07029
0.999295
0.920093
0.829758
0.72635
0.609468
0.479633
0.337465
0.183333
0.0169584
-0.162832
-0.357872
-0.570059
-0.800868
-1.05137
-1.32264
-1.61589
-1.932
-2.27066
-2.62866
-2.99626
-3.35331
-3.66733
-3.89576
-3.99223
-3.91856
-3.66421
-3.25872
-2.75903
-2.22253
-1.68937
-1.179
-0.694609
-0.229247
0.25229
0.736125
1.16291
1.5085
1.76485
1.93992
2.05035
2.11492
2.15211
2.17638
2.19466
2.20666
2.20834
2.19515
2.16291
2.11025
2.04092
1.96162
1.87949
1.80157
1.73281
1.67402
1.62208
1.5723
1.52051
1.46359
1.40077
1.3346
1.26842
1.20321
1.13687
1.06559
0.985451
0.892774
0.785159
0.662524
0.525982
0.37656
0.214967
0.0410541
-0.146624
-0.350469
-0.572928
-0.815758
-1.08015
-1.36749
-1.67985
-2.01937
-2.38755
-2.7836
-3.19954
-3.61413
-3.98968
-4.27409
-4.40751
-4.33617
-4.04204
-3.56544
-2.98517
-2.37638
-1.787
-1.23645
-0.724171
-0.23829
0.285341
0.830067
1.30428
1.67902
1.94584
2.11775
2.21736
2.26789
2.29235
2.30865
2.32432
2.33703
2.34014
2.32747
2.29273
2.23314
2.15375
2.06328
1.97028
1.88369
1.81001
1.74997
1.69883
1.65007
1.5985
1.53994
1.47326
1.40265
1.3335
1.26751
1.20171
1.13108
1.05092
0.956567
0.844947
0.71655
0.57335
0.416825
0.248131
0.0673519
-0.127302
-0.338987
-0.570854
-0.824898
-1.10223
-1.40447
-1.7346
-2.09615
-2.49274
-2.92707
-3.39423
-3.87279
-4.31949
-4.67158
-4.85305
-4.78821
-4.44649
-3.88327
-3.20816
-2.51892
-1.87117
-1.28235
-0.7462
-0.244742
0.322561
0.935148
1.46098
1.86542
2.13945
2.30344
2.38769
2.41981
2.42822
2.43527
2.44896
2.46376
2.4696
2.45878
2.42225
2.35493
2.26404
2.16104
2.05571
1.95942
1.88088
1.82068
1.77171
1.72504
1.6746
1.61471
1.54344
1.4674
1.39506
1.32895
1.26476
1.19577
1.11659
1.02131
0.905751
0.771414
0.62153
0.457961
0.282459
0.0955005
-0.105142
-0.323643
-0.564075
-0.828602
-1.11797
-1.43379
-1.78016
-2.162
-2.58517
-3.05717
-3.57795
-4.12701
-4.65533
-5.08859
-5.33237
-5.28035
-4.88116
-4.21139
-3.42445
-2.64625
-1.93892
-1.31486
-0.759765
-0.248325
0.364587
1.05279
1.63484
2.06945
2.34635
2.49678
2.56087
2.56978
2.55842
2.55505
2.56793
2.58673
2.59669
2.58942
2.5522
2.47606
2.37191
2.25499
2.13562
2.02833
1.94503
1.88608
1.84094
1.79749
1.74923
1.68847
1.61148
1.5286
1.4527
1.38733
1.32601
1.25964
1.18257
1.08722
0.967609
0.826953
0.670308
0.499658
0.317551
0.125124
-0.0804189
-0.304633
-0.552827
-0.827231
-1.12779
-1.45579
-1.81671
-2.2168
-2.66389
-3.17193
-3.74805
-4.37423
-4.99528
-5.52482
-5.84921
-5.81961
-5.35032
-4.54833
-3.62956
-2.754
-1.98725
-1.3323
-0.764108
-0.248829
0.412185
1.18448
1.82774
2.29309
2.56706
2.69727
2.73647
2.71685
2.68147
2.66665
2.68062
2.70592
2.72134
2.71977
2.68349
2.59696
2.47736
2.34527
2.20986
2.08988
2.00197
1.94611
1.90684
1.86763
1.82286
1.76193
1.67762
1.58585
1.50591
1.44242
1.38549
1.32265
1.24898
1.15464
1.03057
0.882956
0.719487
0.541604
0.352975
0.155825
-0.0534004
-0.282118
-0.537331
-0.82119
-1.13221
-1.47088
-1.84458
-2.2607
-2.72816
-3.26936
-3.90166
-4.61156
-5.3369
-5.97908
-6.40747
-6.4148
-5.85913
-4.89165
-3.81789
-2.83736
-2.01324
-1.33329
-0.758696
-0.246127
0.466312
1.33175
2.04164
2.53858
2.8019
2.90404
2.9141
2.8601
2.79575
2.76861
2.7865
2.82154
2.84334
2.85016
2.81736
2.71804
2.58028
2.43215
2.27829
2.14345
2.05113
2.00078
1.96985
1.93563
1.89595
1.83605
1.7421
1.63865
1.55408
1.49402
1.44334
1.3847
1.3159
1.22403
1.09467
0.939133
0.768899
0.583493
0.38826
0.18718
-0.0243399
-0.256207
-0.517776
-0.810922
-1.13187
-1.47952
-1.86421
-2.29419
-2.77742
-3.34747
-4.03571
-4.83595
-5.67734
-6.44883
-7.01094
-7.07706
-6.41378
-5.23752
-3.98256
-2.89122
-2.01425
-1.31682
-0.743267
-0.240186
0.528232
1.4961
2.27837
2.80866
3.05084
3.11569
3.09366
2.99865
2.8994
2.8593
2.88517
2.9341
2.96227
2.98084
2.95543
2.83964
2.68026
2.51609
2.34086
2.18824
2.09179
2.05012
2.03061
2.00148
1.9689
1.91207
1.8052
1.68628
1.59643
1.54195
1.49987
1.44557
1.38338
1.29606
1.15992
0.995075
0.818444
0.625037
0.422886
0.218744
0.00652654
-0.226937
-0.494301
-0.796899
-1.12751
-1.48218
-1.87613
-2.31817
-2.81139
-3.40429
-4.14697
-5.04431
-6.01347
-6.92969
-7.66301
-7.82064
-7.02175
-5.58018
-4.11529
-2.9103
-1.98808
-1.28234
-0.71786
-0.231073
0.599696
1.67892
2.5396
3.10677
3.31341
3.3301
3.27546
3.13172
2.99033
2.9369
2.97633
3.04461
3.07733
3.11189
3.09995
2.96194
2.77652
2.5979
2.39757
2.2233
2.12309
2.09424
2.09003
2.06492
2.04201
1.99168
1.86721
1.72782
1.63203
1.58606
1.55562
1.50486
1.45139
1.37169
1.22629
1.0502
0.868143
0.665973
0.456274
0.250043
0.0389812
-0.194259
-0.466981
-0.779616
-1.12001
-1.4793
-1.88088
-2.33402
-2.8301
-3.43791
-4.23198
-5.23363
-6.34221
-7.41481
-8.36617
-8.66397
-7.69199
-5.91107
-4.20629
-2.88945
-1.93312
-1.22984
-0.682822
-0.218954
0.683231
1.88138
2.82651
3.43743
3.58851
3.54416
3.46057
3.25868
3.06617
2.99937
3.05986
3.15479
3.18712
3.24309
3.2541
3.08489
2.86772
2.67887
2.4485
2.24746
2.14401
2.13332
2.1495
2.12532
2.1154
2.07719
1.9284
1.76202
1.65979
1.62628
1.6115
1.56191
1.51974
1.45232
1.29363
1.10367
0.918212
0.706071
0.487763
0.280585
0.0728211
-0.158018
-0.435809
-0.75958
-1.11044
-1.47119
-1.87891
-2.34375
-2.83386
-3.44651
-4.28702
-5.40116
-6.66113
-7.89404
-9.12121
-9.63096
-8.4352
-6.21786
-4.24425
-2.82393
-1.84856
-1.15987
-0.638806
-0.204085
0.782576
2.10424
3.13951
3.8068
3.87417
3.75338
3.65127
3.379
3.12416
3.0444
3.13574
3.26738
3.28938
3.37375
3.42235
3.20802
2.95166
2.76109
2.49382
2.25929
2.15328
2.16758
2.21104
2.18142
2.18884
2.17174
1.98894
1.78731
1.67838
1.66258
1.66896
1.61561
1.58802
1.53998
1.36165
1.15429
0.969177
0.745129
0.51659
0.30986
0.107849
-0.117932
-0.400683
-0.737287
-1.10015
-1.45801
-1.87042
-2.35013
-2.8233
-3.42839
-4.30802
-5.54449
-6.96922
-8.35298
-9.92619
-10.7529
-9.26403
-6.48306
-4.21658
-2.70983
-1.73456
-1.07358
-0.586734
-0.186797
0.903324
2.34763
3.47774
4.22344
4.16724
3.95148
3.85162
3.49222
3.1611
3.06936
3.20405
3.38665
3.38058
3.50248
3.61103
3.33019
3.02497
2.84784
2.53369
2.25701
2.14943
2.19726
2.27761
2.23116
2.26166
2.27968
2.04882
1.80169
1.68632
1.69495
1.73023
1.66423
1.65547
1.63758
1.42976
1.20033
1.02203
0.782954
0.541849
0.337356
0.143859
-0.073576
-0.3614
-0.713191
-1.09084
-1.43963
-1.85519
-2.35693
-2.79924
-3.38204
-4.29038
-5.66165
-7.26818
-8.77182
-10.7749
-12.0705
-10.1932
-6.68226
-4.10979
-2.54453
-1.59231
-0.972654
-0.527751
-0.167481
1.05383
2.61076
3.83833
4.6994
4.46291
4.12971
4.0683
3.59775
3.17328
3.07133
3.26475
3.51893
3.45541
3.62687
3.82912
3.44939
3.0827
2.94403
2.56819
2.23848
2.13072
2.22249
2.35353
2.27128
2.33251
2.40696
2.10766
1.8027
1.68191
1.72333
1.79861
1.7052
1.72086
1.74927
1.49699
1.23943
1.07845
0.819322
0.562465
0.362586
0.180609
-0.0243537
-0.317649
-0.687649
-1.08473
-1.41561
-1.83229
-2.36917
-2.76265
-3.30624
-4.22874
-5.75094
-7.56401
-9.12405
-11.6549
-13.6373
-11.2397
-6.78201
-3.91029
-2.32719
-1.42413
-0.859246
-0.463167
-0.146565
1.24644
2.89149
4.21556
5.25158
4.7542
4.27611
4.31168
3.6946
3.15641
3.04711
3.31741
3.67353
3.50619
3.74309
4.08912
3.56222
3.11774
3.05699
2.59711
2.20114
2.0952
2.24315
2.44499
2.29696
2.39909
2.56172
2.16443
1.78739
1.66336
1.74747
1.87891
1.73473
1.78227
1.8809
1.56174
1.26827
1.14108
0.853899
0.577142
0.38513
0.217785
0.030526
-0.26903
-0.660829
-1.08474
-1.38504
-1.79976
-2.39355
-2.71439
-3.20026
-4.11678
-5.81061
-7.86928
-9.37505
-12.5449
-15.5229
-12.4226
-6.73718
-3.60558
-2.05922
-1.2334
-0.735873
-0.394382
-0.12449
1.49919
3.18591
4.59957
5.90359
5.03119
4.37457
4.59718
3.78083
3.10561
2.99326
3.36084
3.86368
3.52207
3.84541
4.40832
3.66345
3.12022
3.19728
2.6196
2.14198
2.04069
2.25855
2.56074
2.30129
2.45787
2.75499
2.21708
1.75229
1.6288
1.76673
1.97798
1.74747
1.83686
2.04055
1.62159
1.28241
1.2139
0.886121
0.584327
0.404695
0.254944
0.0920851
-0.215079
-0.632585
-1.09475
-1.34657
-1.75417
-2.43894
-2.65491
-3.06409
-3.94687
-5.83818
-8.20589
-9.48054
-13.4114
-17.8174
-13.7628
-6.48782
-3.18604
-1.74472
-1.02448
-0.605281
-0.322819
-0.101692
1.83786
3.48763
4.9749
6.688
5.28011
4.40372
4.947
3.85286
3.01541
2.90628
3.39236
4.10795
3.4881
3.92555
4.81025
3.74535
3.07673
3.37985
2.6337
2.05758
1.96498
2.26704
2.71295
2.27467
2.50369
3.00153
2.26201
1.6935
1.57642
1.77973
2.10539
1.736
1.88061
2.23926
1.67291
1.27592
1.30271
0.915013
0.582166
0.421195
0.291448
0.161621
-0.15533
-0.602274
-1.11986
-1.29825
-1.69009
-2.517
-2.58373
-2.89887
-3.70983
-5.82932
-8.6086
-9.38504
-14.205
-20.637
-15.2825
-5.95563
-2.64729
-1.39066
-0.802432
-0.47029
-0.249852
-0.0785798
2.2987
3.78714
5.31853
7.64912
5.48221
4.33561
5.39223
3.90438
2.87992
2.78286
3.40699
4.43182
3.38413
3.97194
5.32641
3.79687
2.96945
3.62536
2.6357
1.94419
1.8659
2.26543
2.91828
2.2041
2.52933
3.32095
2.29342
1.60675
1.50467
1.78388
2.27421
1.69028
1.90798
2.49181
1.71055
1.24106
1.41566
0.938933
0.568479
0.434863
0.326361
0.240767
-0.0894056
-0.568513
-1.16681
-1.23762
-1.5994
-2.64305
-2.49888
-2.70734
-3.39469
-5.77624
-9.1291
-9.02035
-14.8548
-24.1303
-17.0042
-5.03982
-1.9934
-1.0069
-0.572783
-0.333652
-0.176755
-0.0555256
2.93159
4.07089
5.59772
8.84626
5.61241
4.13426
5.97528
3.92501
2.69302
2.62025
3.39621
4.86966
3.18359
3.96891
5.9983
3.80273
2.77516
3.96187
2.61917
1.79785
1.74161
2.24824
3.19915
2.07236
2.52502
3.73886
2.30239
1.48766
1.41248
1.77481
2.50206
1.59701
1.91151
2.8177
1.72726
1.16791
1.56394
0.955236
0.54075
0.446381
0.358331
0.331573
-0.0171568
-0.528859
-1.24432
-1.16166
-1.47052
-2.83701
-2.39593
-2.49459
-2.98859
-5.66544
-9.84084
-8.30418
-15.2635
-28.4847
-18.9498
-3.61273
-1.24075
-0.605775
-0.341123
-0.197906
-0.10465
-0.032851
3.80386
4.32031
5.76735
10.3575
5.63768
3.75408
6.75283
3.89846
2.44876
2.41677
3.34647
5.46697
2.85211
3.89568
6.87965
3.7423
2.46419
4.42666
2.57389
1.61465
1.59093
2.20667
3.58519
1.85709
2.47786
4.28833
2.27581
1.33197
1.2996
1.74549
2.81223
1.43886
1.88144
3.24222
1.71321
1.04394
1.76253
0.959846
0.496136
0.457038
0.385438
0.436609
0.061145
-0.479421
-1.36356
-1.06688
-1.28748
-3.12468
-2.26698
-2.2688
-2.47685
-5.47476
-10.8444
-7.13902
-15.3003
-33.9351
-21.1383
-1.51508
-0.422829
-0.201254
-0.112729
-0.0652738
-0.0344867
-0.0108227
)
;

boundaryField
{
    left
    {
        type            calculated;
        value           uniform 0;
    }
    right
    {
        type            calculated;
        value           uniform 0;
    }
    interface
    {
        type            calculated;
        value           nonuniform List<scalar> 
64
(
3.80386
4.32031
5.76735
10.3575
5.63768
3.75408
6.75283
3.89846
2.44876
2.41677
3.34647
5.46697
2.85211
3.89568
6.87965
3.7423
2.46419
4.42666
2.57389
1.61465
1.59093
2.20667
3.58519
1.85709
2.47786
4.28833
2.27581
1.33197
1.2996
1.74549
2.81223
1.43886
1.88144
3.24222
1.71321
1.04394
1.76253
0.959846
0.496136
0.457038
0.385438
0.436609
0.061145
-0.479421
-1.36356
-1.06688
-1.28748
-3.12468
-2.26698
-2.2688
-2.47685
-5.47476
-10.8444
-7.13902
-15.3003
-33.9351
-21.1383
-1.51508
-0.422829
-0.201254
-0.112729
-0.0652738
-0.0344867
-0.0108227
)
;
    }
    bottom
    {
        type            calculated;
        value           nonuniform List<scalar> 
64
(
0.00630458
0.0187334
0.0306372
0.0417181
0.0517471
0.060575
0.0681314
0.0744141
0.0794727
0.0833902
0.0862662
0.0882052
0.0893091
0.0896748
0.0893946
0.0885577
0.087251
0.0855579
0.0835563
0.0813147
0.0788889
0.0763194
0.0736313
0.0708346
0.0679271
0.0648968
0.061724
0.0583832
0.0548436
0.0510692
0.0470199
0.042652
0.0379202
0.0327802
0.0271899
0.0211118
0.0145137
0.00736934
-0.000340802
-0.00862841
-0.017495
-0.0269284
-0.0368971
-0.0473438
-0.058177
-0.0692618
-0.0804112
-0.0913782
-0.101852
-0.111458
-0.119775
-0.126352
-0.130745
-0.132561
-0.131502
-0.127407
-0.120268
-0.110239
-0.0976078
-0.0827583
-0.066124
-0.048146
-0.0292441
-0.00980642
)
;
    }
    defaultFaces
    {
        type            empty;
    }
}


// ************************************************************************* //
