/*--------------------------------*- C++ -*----------------------------------*\
| =========                 |                                                 |
| \\      /  F ield         | OpenFOAM: The Open Source CFD Toolbox           |
|  \\    /   O peration     | Version:  5.x                                   |
|   \\  /    A nd           | Web:      www.OpenFOAM.org                      |
|    \\/     M anipulation  |                                                 |
\*---------------------------------------------------------------------------*/
FoamFile
{
    version     2.0;
    format      ascii;
    class       volScalarField;
    location    "3.8";
    object      gradTy;
}
// * * * * * * * * * * * * * * * * * * * * * * * * * * * * * * * * * * * * * //

dimensions      [0 -1 0 1 0 0 0];

internalField   nonuniform List<scalar> 
2048
(
-26.4239
-26.3963
-26.3419
-26.2622
-26.1595
-26.036
-25.8948
-25.7385
-25.57
-25.3918
-25.2063
-25.0157
-24.8219
-24.6265
-24.4312
-24.2372
-24.0456
-23.8573
-23.6731
-23.4936
-23.3192
-23.1503
-22.9872
-22.83
-22.6789
-22.5344
-22.3965
-22.2657
-22.1424
-22.027
-21.92
-21.8221
-21.7341
-21.6568
-21.5911
-21.5381
-21.4988
-21.4745
-21.4662
-21.4754
-21.5032
-21.551
-21.6199
-21.7111
-21.8255
-21.9639
-22.1267
-22.3138
-22.5246
-22.7576
-23.0106
-23.2802
-23.5622
-23.8513
-24.1415
-24.4261
-24.6985
-24.9519
-25.1804
-25.3785
-25.542
-25.6674
-25.7523
-25.7951
-26.4462
-26.4179
-26.3623
-26.281
-26.1761
-26.0505
-25.9069
-25.7484
-25.5778
-25.3977
-25.2104
-25.0183
-24.8231
-24.6265
-24.4301
-24.2352
-24.0428
-23.854
-23.6693
-23.4895
-23.3148
-23.1457
-22.9823
-22.8249
-22.6737
-22.5289
-22.3908
-22.2597
-22.136
-22.0201
-21.9126
-21.8142
-21.7255
-21.6474
-21.5809
-21.527
-21.4867
-21.4614
-21.4522
-21.4603
-21.4871
-21.5339
-21.6019
-21.6922
-21.8061
-21.9441
-22.107
-22.2947
-22.5066
-22.7415
-22.9971
-23.2702
-23.5565
-23.8505
-24.1459
-24.4361
-24.7138
-24.9721
-25.2049
-25.4066
-25.5728
-25.7002
-25.7863
-25.8297
-26.4889
-26.4594
-26.4013
-26.3166
-26.2078
-26.0778
-25.9299
-25.7671
-25.5925
-25.4087
-25.2182
-25.0231
-24.8252
-24.6264
-24.428
-24.2314
-24.0376
-23.8476
-23.6621
-23.4816
-23.3064
-23.1369
-22.9732
-22.8155
-22.6639
-22.5187
-22.38
-22.2483
-22.1239
-22.0072
-21.8987
-21.7991
-21.7092
-21.6296
-21.5616
-21.5059
-21.4639
-21.4367
-21.4256
-21.4317
-21.4566
-21.5015
-21.5677
-21.6565
-21.7691
-21.9065
-22.0694
-22.258
-22.472
-22.7104
-22.971
-23.2507
-23.5451
-23.8485
-24.1543
-24.455
-24.743
-25.0108
-25.2518
-25.4603
-25.6316
-25.7627
-25.8512
-25.8957
-26.5501
-26.5187
-26.4571
-26.3675
-26.2528
-26.1165
-25.9621
-25.7932
-25.6128
-25.4239
-25.2287
-25.0295
-24.828
-24.626
-24.4248
-24.2258
-24.03
-23.8384
-23.6517
-23.4703
-23.2945
-23.1244
-22.9603
-22.8021
-22.6501
-22.5043
-22.365
-22.2324
-22.107
-21.9891
-21.8793
-21.7781
-21.6863
-21.6048
-21.5344
-21.4764
-21.4318
-21.402
-21.3881
-21.3915
-21.4135
-21.4557
-21.5193
-21.6058
-21.7166
-21.8529
-22.0156
-22.2053
-22.4222
-22.6653
-22.9329
-23.222
-23.528
-23.845
-24.1657
-24.4818
-24.7848
-25.0664
-25.3192
-25.5372
-25.7158
-25.8519
-25.9436
-25.9896
-26.6285
-26.5946
-26.5281
-26.4319
-26.3094
-26.1648
-26.0022
-25.8253
-25.6378
-25.4423
-25.2414
-25.0371
-24.8311
-24.625
-24.4204
-24.2183
-24.0201
-23.8266
-23.6384
-23.4559
-23.2794
-23.1088
-22.9442
-22.7855
-22.6329
-22.4864
-22.3462
-22.2127
-22.0861
-21.9668
-21.8552
-21.752
-21.6579
-21.5738
-21.5007
-21.4396
-21.3919
-21.3586
-21.3413
-21.3412
-21.3597
-21.3983
-21.4585
-21.542
-21.6503
-21.7849
-21.9471
-22.1379
-22.3578
-22.6066
-22.8829
-23.1838
-23.5047
-23.8394
-24.1795
-24.5158
-24.8384
-25.1378
-25.4057
-25.6356
-25.8232
-25.9654
-26.0608
-26.1086
-26.7231
-26.6859
-26.6133
-26.5086
-26.3764
-26.2215
-26.0487
-25.8623
-25.6662
-25.4631
-25.2555
-25.0453
-24.8341
-24.6233
-24.4146
-24.209
-24.0079
-23.8122
-23.6224
-23.4388
-23.2615
-23.0904
-22.9253
-22.7662
-22.6129
-22.4656
-22.3245
-22.1898
-22.0618
-21.9409
-21.8273
-21.7218
-21.6251
-21.5379
-21.4614
-21.3968
-21.3452
-21.308
-21.2866
-21.2822
-21.2965
-21.3308
-21.387
-21.4667
-21.5717
-21.7039
-21.865
-22.0565
-22.2796
-22.5347
-22.8208
-23.1356
-23.4746
-23.8308
-24.195
-24.5563
-24.9031
-25.2242
-25.5102
-25.7543
-25.952
-26.101
-26.2003
-26.25
-26.8333
-26.7919
-26.7116
-26.5966
-26.4525
-26.2851
-26.1003
-25.9029
-25.697
-25.4855
-25.2705
-25.0537
-24.8367
-24.6207
-24.4073
-24.1978
-23.9935
-23.7952
-23.6037
-23.4191
-23.2411
-23.0696
-22.9042
-22.7445
-22.5906
-22.4425
-22.3003
-22.1644
-22.0349
-21.9121
-21.7965
-21.6883
-21.5885
-21.4979
-21.4176
-21.3488
-21.2929
-21.2513
-21.2252
-21.2161
-21.2254
-21.2548
-21.3061
-21.3812
-21.4821
-21.6111
-21.7704
-21.962
-22.188
-22.4494
-22.7463
-23.0769
-23.4367
-23.8184
-24.2113
-24.6027
-24.9784
-25.3253
-25.6324
-25.8923
-26.1009
-26.2568
-26.3601
-26.4114
-26.9585
-26.9122
-26.8225
-26.6949
-26.5364
-26.3545
-26.1558
-25.9459
-25.7292
-25.5085
-25.2856
-25.0619
-24.8386
-24.617
-24.3984
-24.1846
-23.9767
-23.7758
-23.5826
-23.3969
-23.2186
-23.0468
-22.8811
-22.7211
-22.5665
-22.4174
-22.2742
-22.1369
-22.0059
-21.8813
-21.7632
-21.6523
-21.5491
-21.4546
-21.37
-21.2967
-21.2361
-21.1895
-21.1582
-21.1438
-21.1477
-21.1716
-21.2173
-21.2869
-21.3829
-21.5078
-21.6642
-21.8551
-22.0832
-22.3508
-22.6589
-23.0066
-23.39
-23.801
-24.2277
-24.6546
-25.0644
-25.4411
-25.772
-26.049
-26.2689
-26.4313
-26.538
-26.5907
-27.0988
-27.0463
-26.9452
-26.8025
-26.6272
-26.4282
-26.2137
-25.9901
-25.7618
-25.5315
-25.3004
-25.0696
-24.8397
-24.612
-24.3879
-24.1692
-23.9575
-23.7539
-23.559
-23.3726
-23.194
-23.0223
-22.8566
-22.6962
-22.5409
-22.3909
-22.2465
-22.1079
-21.9753
-21.8488
-21.7283
-21.6144
-21.5075
-21.4088
-21.3196
-21.2413
-21.1755
-21.1236
-21.0868
-21.0666
-21.0646
-21.0822
-21.1217
-21.1852
-21.2753
-21.395
-21.5475
-21.7364
-21.9656
-22.2385
-22.5578
-22.9237
-23.3331
-23.7776
-24.2434
-24.7117
-25.1613
-25.5721
-25.9292
-26.2242
-26.4548
-26.6228
-26.7319
-26.7854
-27.2541
-27.1941
-27.0793
-26.9186
-26.7235
-26.505
-26.2729
-26.0343
-25.7939
-25.5537
-25.3145
-25.0765
-24.8399
-24.6058
-24.3757
-24.1518
-23.9359
-23.7294
-23.533
-23.3461
-23.1678
-22.9965
-22.831
-22.6703
-22.5144
-22.3633
-22.2176
-22.0777
-21.9436
-21.8152
-21.6924
-21.5752
-21.4644
-21.3612
-21.2669
-21.1833
-21.112
-21.0543
-21.0118
-20.9855
-20.977
-20.988
-21.0205
-21.077
-21.1604
-21.2738
-21.4211
-21.6067
-21.8354
-22.1125
-22.4422
-22.8269
-23.2645
-23.7466
-24.2574
-24.7739
-25.2695
-25.7191
-26.1046
-26.4177
-26.6579
-26.8298
-26.9399
-26.9933
-27.4247
-27.3558
-27.2244
-27.0425
-26.8242
-26.5835
-26.3318
-26.0773
-25.8244
-25.5746
-25.3276
-25.0826
-24.8392
-24.5984
-24.3618
-24.1321
-23.9117
-23.7024
-23.5046
-23.3177
-23.1401
-22.9697
-22.8046
-22.6439
-22.4871
-22.3349
-22.1879
-22.0467
-21.9112
-21.7811
-21.6558
-21.5354
-21.4205
-21.3123
-21.2126
-21.1233
-21.0461
-20.9826
-20.9339
-20.9013
-20.8861
-20.8899
-20.9149
-20.9637
-21.0394
-21.1454
-21.2861
-21.4666
-21.6931
-21.9725
-22.3115
-22.7149
-23.1825
-23.7064
-24.2686
-24.8411
-25.39
-25.8832
-26.2991
-26.6296
-26.8773
-27.0507
-27.1596
-27.2119
-27.6112
-27.5314
-27.3804
-27.1732
-26.9281
-26.6622
-26.3892
-26.1179
-25.8526
-25.5937
-25.3395
-25.0878
-24.8377
-24.5898
-24.3462
-24.1102
-23.8849
-23.6726
-23.4737
-23.2874
-23.1112
-22.9422
-22.778
-22.6172
-22.4596
-22.306
-22.1575
-22.0151
-21.8785
-21.7468
-21.6192
-21.4954
-21.3761
-21.2627
-21.1572
-21.0618
-20.9786
-20.9089
-20.8541
-20.815
-20.7927
-20.789
-20.8059
-20.8463
-20.9133
-21.0109
-21.1435
-21.3172
-21.5392
-21.8185
-22.1648
-22.5861
-23.0852
-23.6551
-24.2759
-24.9134
-25.524
-26.0662
-26.5139
-26.8602
-27.1122
-27.2837
-27.3889
-27.4387
-27.8142
-27.7213
-27.5468
-27.31
-27.0338
-26.7398
-26.4436
-26.1549
-25.8776
-25.6106
-25.3501
-25.0923
-24.8356
-24.5803
-24.3289
-24.0858
-23.8553
-23.6399
-23.4403
-23.2552
-23.0813
-22.9144
-22.7514
-22.5906
-22.432
-22.2767
-22.1266
-21.983
-21.8456
-21.7127
-21.583
-21.4559
-21.3319
-21.2127
-21.101
-20.9993
-20.9097
-20.8339
-20.7728
-20.7271
-20.6977
-20.686
-20.6944
-20.7257
-20.7834
-20.8714
-20.9945
-21.1593
-21.3743
-21.6505
-22.0013
-22.4389
-22.9703
-23.5904
-24.2776
-24.9908
-25.6732
-26.2703
-26.7506
-27.1098
-27.3616
-27.527
-27.6254
-27.671
-28.0344
-27.9259
-27.7235
-27.4518
-27.1401
-26.8147
-26.4935
-26.187
-25.8985
-25.6248
-25.3594
-25.0963
-24.8331
-24.57
-24.3101
-24.059
-23.8227
-23.6042
-23.4043
-23.2213
-23.0506
-22.8868
-22.7254
-22.5646
-22.4047
-22.2473
-22.0953
-21.9506
-21.8128
-21.6793
-21.5476
-21.4171
-21.2882
-21.1629
-21.0444
-20.936
-20.84
-20.758
-20.6907
-20.6385
-20.6018
-20.5819
-20.5812
-20.6029
-20.6505
-20.728
-20.8402
-20.9941
-21.1993
-21.4689
-21.8204
-22.2718
-22.8354
-23.5096
-24.2721
-25.0736
-25.8399
-26.4984
-27.0111
-27.3787
-27.6247
-27.7787
-27.8665
-27.906
-28.2731
-28.1458
-27.9105
-27.5979
-27.2453
-26.8852
-26.5375
-26.2132
-25.9148
-25.6363
-25.3677
-25.1002
-24.8307
-24.5594
-24.2898
-24.0296
-23.7869
-23.5653
-23.3656
-23.1857
-23.0196
-22.8598
-22.7004
-22.5395
-22.3779
-22.2177
-22.0633
-21.9179
-21.7804
-21.6468
-21.5135
-21.3796
-21.2456
-21.1135
-20.9876
-20.8723
-20.7698
-20.6816
-20.6083
-20.5498
-20.5058
-20.4774
-20.4672
-20.4787
-20.5158
-20.5819
-20.6818
-20.8229
-21.0152
-21.274
-21.6216
-22.083
-22.678
-23.4097
-24.2567
-25.1618
-26.027
-26.754
-27.2977
-27.6673
-27.9
-28.0364
-28.1096
-28.141
-28.5313
-28.3816
-28.1075
-27.747
-27.3476
-26.9497
-26.5741
-26.2321
-25.9257
-25.645
-25.3754
-25.1044
-24.8287
-24.5489
-24.2681
-23.9973
-23.7477
-23.5229
-23.3238
-23.1484
-22.9884
-22.8338
-22.6767
-22.5157
-22.352
-22.1881
-22.0307
-21.8848
-21.7484
-21.6156
-21.4811
-21.3437
-21.2043
-21.0648
-20.9309
-20.8083
-20.6992
-20.605
-20.5261
-20.4614
-20.4102
-20.3731
-20.353
-20.354
-20.38
-20.4341
-20.5207
-20.647
-20.8235
-21.0667
-21.4047
-21.871
-22.4952
-23.287
-24.2284
-25.2556
-26.2384
-27.0417
-27.6127
-27.9756
-28.1859
-28.298
-28.352
-28.3733
-28.8105
-28.634
-28.3145
-27.898
-27.4453
-27.0066
-26.6019
-26.2424
-25.9306
-25.651
-25.3829
-25.1095
-24.8278
-24.539
-24.2452
-23.9619
-23.7049
-23.4768
-23.2788
-23.1094
-22.9574
-22.8094
-22.655
-22.4935
-22.3272
-22.1584
-21.9969
-21.8511
-21.717
-21.5862
-21.4507
-21.3098
-21.1648
-21.017
-20.8742
-20.7441
-20.6286
-20.5285
-20.4443
-20.374
-20.3158
-20.2696
-20.2392
-20.2293
-20.2441
-20.2858
-20.3579
-20.468
-20.6257
-20.848
-21.1695
-21.6342
-22.2844
-23.1374
-24.183
-25.3548
-26.4793
-27.3667
-27.9588
-28.3034
-28.4807
-28.5606
-28.591
-28.6
-29.1123
-28.9035
-28.5317
-28.0495
-27.536
-27.0543
-26.6196
-26.243
-25.9289
-25.6543
-25.3912
-25.1159
-24.8282
-24.5305
-24.2212
-23.9229
-23.6583
-23.4269
-23.23
-23.0686
-22.927
-22.7874
-22.6355
-22.4733
-22.304
-22.1285
-21.9616
-21.8165
-21.6864
-21.5589
-21.4226
-21.2782
-21.1276
-20.9703
-20.8174
-20.6799
-20.5579
-20.4521
-20.3634
-20.2881
-20.223
-20.1676
-20.1263
-20.1052
-20.1088
-20.138
-20.1947
-20.2874
-20.4237
-20.6192
-20.9163
-21.3712
-22.0427
-22.9565
-24.1148
-25.4591
-26.7562
-27.7357
-28.3386
-28.6499
-28.7818
-28.8216
-28.8239
-28.8186
-29.4385
-29.1907
-28.7592
-28.2002
-27.617
-27.0914
-26.6261
-26.2322
-25.9202
-25.6555
-25.4014
-25.1242
-24.8305
-24.5245
-24.1963
-23.8794
-23.6078
-23.3728
-23.1771
-23.0261
-22.8975
-22.7685
-22.6188
-22.4551
-22.283
-22.0983
-21.924
-21.7807
-21.6566
-21.5344
-21.3973
-21.2491
-21.0932
-20.9248
-20.7603
-20.6157
-20.4875
-20.3759
-20.2836
-20.204
-20.1326
-20.0675
-20.0146
-19.982
-19.9747
-19.9917
-20.0321
-20.1068
-20.2198
-20.382
-20.6457
-21.0806
-21.7679
-22.7395
-24.0161
-25.5674
-27.078
-28.1564
-28.7544
-29.0137
-29.0865
-29.078
-29.0479
-29.0268
-29.7913
-29.4957
-28.9978
-28.3483
-27.6851
-27.1171
-26.6206
-26.2085
-25.9041
-25.6548
-25.4148
-25.135
-24.8346
-24.5224
-24.1706
-23.8305
-23.5534
-23.3146
-23.119
-22.9818
-22.8694
-22.7538
-22.6052
-22.4392
-22.2649
-22.0677
-21.8829
-21.7433
-21.6278
-21.5135
-21.3748
-21.2226
-21.0623
-20.8807
-20.7025
-20.5517
-20.4173
-20.3
-20.2051
-20.1222
-20.0451
-19.9697
-19.9046
-19.86
-19.8426
-19.8478
-19.871
-19.9277
-20.0166
-20.1385
-20.3585
-20.7611
-21.4583
-22.4816
-23.8767
-25.6777
-27.4569
-28.6377
-29.2079
-29.3923
-29.3914
-29.3268
-29.2608
-29.2224
-30.1733
-29.8179
-29.2488
-28.492
-27.7359
-27.1308
-26.6025
-26.1695
-25.8804
-25.6528
-25.4336
-25.1483
-24.8404
-24.5262
-24.1443
-23.7742
-23.4955
-23.2525
-23.0548
-22.9356
-22.843
-22.7447
-22.5947
-22.4252
-22.251
-22.0367
-21.8368
-21.704
-21.6
-21.497
-21.3555
-21.1985
-21.0359
-20.8381
-20.643
-20.4879
-20.3476
-20.224
-20.1283
-20.0431
-19.9611
-19.8746
-19.7962
-19.7393
-19.7127
-19.7075
-19.7118
-19.7515
-19.8172
-19.8907
-20.0564
-20.4112
-21.113
-22.1791
-23.6824
-25.7866
-27.9091
-29.19
-29.6998
-29.7825
-29.6927
-29.565
-29.4603
-29.4037
-30.5875
-30.1556
-29.5147
-28.6295
-27.7638
-27.1332
-26.5721
-26.1125
-25.8493
-25.6496
-25.4606
-25.1642
-24.8468
-24.5392
-24.1174
-23.7079
-23.4352
-23.1868
-22.9826
-22.8877
-22.8185
-22.7431
-22.5874
-22.4124
-22.2432
-22.005
-21.7835
-21.6624
-21.5734
-21.4866
-21.339
-21.1761
-21.0156
-20.7969
-20.5807
-20.4249
-20.2787
-20.1474
-20.0534
-19.9671
-19.8814
-19.7826
-19.6895
-19.6197
-19.5855
-19.5721
-19.5546
-19.5794
-19.6254
-19.641
-19.7413
-20.0286
-20.7324
-21.8294
-23.4143
-25.8884
-28.4571
-29.8242
-30.2292
-30.1796
-29.9862
-29.7897
-29.6445
-29.5693
-31.038
-30.505
-29.7996
-28.7585
-27.761
-27.1268
-26.5302
-26.0334
-25.8114
-25.6453
-25.4999
-25.1821
-24.8518
-24.5658
-24.0902
-23.6272
-23.3745
-23.1183
-22.8998
-22.8387
-22.7959
-22.7517
-22.5829
-22.3996
-22.2443
-21.9725
-21.72
-21.6185
-21.5476
-21.4843
-21.3253
-21.1546
-21.0034
-20.7572
-20.5134
-20.3634
-20.2109
-20.0695
-19.9807
-19.8942
-19.8068
-19.6939
-19.5846
-19.5008
-19.4613
-19.443
-19.3991
-19.4121
-19.4457
-19.3914
-19.4163
-19.6104
-20.3189
-21.4333
-23.0463
-25.974
-29.132
-30.5519
-30.7929
-30.5776
-30.2674
-29.9981
-29.8118
-29.7181
-31.5302
-30.8593
-30.1107
-28.8768
-27.7167
-27.1161
-26.4786
-25.926
-25.7687
-25.6388
-25.5573
-25.2007
-24.8516
-24.613
-24.0628
-23.526
-23.3167
-23.0484
-22.8025
-22.7897
-22.7744
-22.7741
-22.5803
-22.3841
-22.2588
-21.9393
-21.642
-21.573
-21.5221
-21.4931
-21.3135
-21.1317
-21.0026
-20.7189
-20.4384
-20.3048
-20.1448
-19.9889
-19.911
-19.8247
-19.7384
-19.6086
-19.4813
-19.3819
-19.3401
-19.3224
-19.2438
-19.2498
-19.2839
-19.1436
-19.0858
-19.1511
-19.8764
-20.9969
-22.5435
-26.0296
-29.9769
-31.3836
-31.3849
-30.9693
-30.5316
-30.1879
-29.9612
-29.8497
-32.0715
-31.2066
-30.459
-28.9823
-27.6157
-27.1095
-26.4202
-25.782
-25.7249
-25.6275
-25.6409
-25.2177
-24.8399
-24.6908
-24.0351
-23.3949
-23.2676
-22.9792
-22.685
-22.7431
-22.7524
-22.8159
-22.578
-22.362
-22.2929
-21.9051
-21.5434
-21.5276
-21.4954
-21.5172
-21.3024
-21.1044
-21.018
-20.682
-20.3513
-20.2516
-20.081
-19.9038
-19.8451
-19.7582
-19.6776
-19.5267
-19.3796
-19.2623
-19.2216
-19.2135
-19.0864
-19.0916
-19.1473
-18.8978
-18.7567
-18.6425
-19.4114
-20.5341
-21.8592
-26.0347
-31.0514
-32.3272
-31.9952
-31.3464
-30.7744
-30.3572
-30.0918
-29.9637
-32.6723
-31.5279
-30.862
-29.0726
-27.4366
-27.1206
-26.3593
-25.5884
-25.6868
-25.6061
-25.7627
-25.2297
-24.8068
-24.8137
-24.0071
-23.2204
-23.2359
-22.9135
-22.5389
-22.703
-22.7262
-22.8846
-22.5739
-22.3268
-22.3561
-21.87
-21.4159
-21.4856
-21.4647
-21.563
-21.2903
-21.0676
-21.0567
-20.6461
-20.2459
-20.2073
-20.0207
-19.8109
-19.7849
-19.694
-19.6262
-19.448
-19.2795
-19.1405
-19.1052
-19.1206
-18.9232
-18.9355
-19.0459
-18.6525
-18.439
-18.0713
-18.9323
-20.0713
-20.9312
-25.9592
-32.4379
-33.3847
-32.6098
-31.6998
-30.9918
-30.5044
-30.2035
-30.0604
-33.3475
-31.7937
-31.3459
-29.1454
-27.1497
-27.1699
-26.3017
-25.3271
-25.6657
-25.5651
-25.9396
-25.2316
-24.7377
-25.0024
-23.9787
-22.9832
-23.235
-22.8552
-22.352
-22.6769
-22.6894
-22.9916
-22.5644
-22.2689
-22.4616
-21.8335
-21.2481
-21.4533
-21.425
-21.6393
-21.2744
-21.0139
-21.1287
-20.611
-20.1134
-20.178
-19.965
-19.706
-19.7329
-19.6306
-19.5866
-19.372
-19.1811
-19.0148
-18.9895
-19.0504
-18.7487
-18.7777
-18.993
-18.4021
-18.1484
-17.4172
-18.4494
-19.6522
-19.678
-25.7601
-34.2491
-34.5482
-33.2099
-32.0202
-31.1803
-30.6287
-30.2964
-30.1403
-34.118
-31.9599
-31.9491
-29.1986
-26.7136
-27.288
-26.2551
-24.9719
-25.6806
-25.4879
-26.1955
-25.2163
-24.611
-25.2861
-23.9491
-22.6564
-23.2846
-22.8093
-22.1069
-22.6769
-22.6311
-23.1522
-22.5447
-22.1746
-22.6283
-21.7952
-21.0243
-21.4409
-21.3677
-21.7586
-21.2509
-20.9325
-21.2482
-20.5757
-19.9416
-20.172
-19.9155
-19.5828
-19.6934
-19.5653
-19.5625
-19.2974
-19.085
-18.8834
-18.8719
-19.0123
-18.5554
-18.612
-19.0071
-18.1357
-17.9085
-16.6501
-17.9735
-19.3446
-17.9935
-25.377
-36.6381
-35.7938
-33.7724
-32.2985
-31.3374
-30.7298
-30.371
-30.204
-35.0134
-31.9619
-32.7267
-29.2299
-26.0722
-27.5184
-26.2287
-24.4861
-25.7605
-25.3484
-26.5639
-25.1743
-24.3961
-25.7049
-23.9177
-22.2031
-23.4128
-22.782
-21.7792
-22.7218
-22.5339
-23.3886
-22.5086
-22.0241
-22.882
-21.754
-20.7231
-21.4648
-21.279
-21.9386
-21.2145
-20.8083
-21.435
-20.5392
-19.714
-20.202
-19.8736
-19.4325
-19.6732
-19.4938
-19.5587
-19.2222
-18.9923
-18.7437
-18.7483
-19.0197
-18.3329
-18.4287
-19.1133
-17.8341
-17.7541
-15.7271
-17.5148
-19.2487
-15.7415
-24.7267
-39.8109
-37.0732
-34.2705
-32.527
-31.4615
-30.8082
-30.4282
-30.2526
-36.0745
-31.7087
-33.7559
-29.2371
-25.1502
-27.9217
-26.2338
-23.8193
-25.9496
-25.1062
-27.0908
-25.0932
-24.0508
-26.313
-23.8827
-21.5735
-23.6585
-22.7808
-21.3354
-22.8402
-22.3714
-23.731
-22.4476
-21.7904
-23.2578
-21.7082
-20.3162
-21.5496
-21.1378
-22.2035
-21.1585
-20.6204
-21.7156
-20.4996
-19.4082
-20.2853
-19.8413
-19.2431
-19.6819
-19.4091
-19.582
-19.1433
-18.9049
-18.5931
-18.6124
-19.0909
-18.0677
-18.2141
-19.3466
-17.4655
-17.7367
-14.5886
-17.0797
-19.507
-12.7491
-23.6961
-44.0407
-38.3033
-34.676
-32.6998
-31.5525
-30.8647
-30.4691
-30.2872
-37.3572
-31.0742
-35.1427
-29.2175
-23.8477
-28.5805
-26.2832
-22.903
-26.3122
-24.7017
-27.8387
-24.9571
-23.5182
-27.1822
-23.8419
-20.702
-24.0751
-22.8145
-20.7301
-23.0743
-22.1042
-24.2205
-22.3509
-21.4366
-23.8021
-21.6547
-19.766
-21.7313
-20.9124
-22.5862
-21.0739
-20.3406
-22.1258
-20.4541
-18.9952
-20.4459
-19.8198
-18.9984
-19.7339
-19.3009
-19.6418
-19.0556
-18.8258
-18.4288
-18.4543
-19.2511
-17.7424
-17.9486
-19.7545
-16.9816
-17.9291
-13.154
-16.6676
-20.3159
-8.80041
-22.1345
-49.6862
-39.353
-34.9625
-32.8141
-31.6111
-30.9007
-30.495
-30.3092
-38.9354
-29.8858
-37.0274
-29.1666
-22.0355
-29.6047
-26.3913
-21.6457
-26.9397
-24.0491
-28.8914
-24.7458
-22.7225
-28.4061
-23.7912
-19.5025
-24.7325
-22.8924
-19.9022
-23.4829
-21.6754
-24.9114
-22.2042
-20.9138
-24.575
-21.5882
-19.0226
-22.0598
-20.5563
-23.1298
-20.9482
-19.9307
-22.7107
-20.3973
-18.4352
-20.7141
-19.8085
-18.6752
-19.8471
-19.1522
-19.749
-18.9498
-18.7575
-18.2459
-18.2579
-19.5313
-17.3328
-17.6029
-20.3991
-16.3086
-18.4313
-11.3148
-16.2644
-21.9365
-3.62664
-19.8422
-57.21
-40.0254
-35.1091
-32.8687
-31.6381
-30.9168
-30.5062
-30.3184
)
;

boundaryField
{
    left
    {
        type            calculated;
        value           nonuniform List<scalar> 
32
(
-26.4239
-26.4462
-26.4889
-26.5501
-26.6285
-26.7231
-26.8333
-26.9585
-27.0988
-27.2541
-27.4247
-27.6112
-27.8142
-28.0344
-28.2731
-28.5313
-28.8105
-29.1123
-29.4385
-29.7913
-30.1733
-30.5875
-31.038
-31.5302
-32.0715
-32.6723
-33.3475
-34.118
-35.0134
-36.0745
-37.3572
-38.9354
)
;
    }
    right
    {
        type            calculated;
        value           nonuniform List<scalar> 
32
(
-25.7951
-25.8297
-25.8957
-25.9896
-26.1086
-26.25
-26.4114
-26.5907
-26.7854
-26.9933
-27.2119
-27.4387
-27.671
-27.906
-28.141
-28.3733
-28.6
-28.8186
-29.0268
-29.2224
-29.4037
-29.5693
-29.7181
-29.8497
-29.9637
-30.0604
-30.1403
-30.204
-30.2526
-30.2872
-30.3092
-30.3184
)
;
    }
    interface
    {
        type            calculated;
        value           nonuniform List<scalar> 
64
(
-39.8087
-29.1283
-38.114
-29.1327
-20.9837
-30.2237
-26.4619
-20.9188
-27.3331
-23.6481
-29.5058
-24.6185
-22.2481
-29.1198
-23.7627
-18.8087
-25.1313
-22.9435
-19.4239
-23.7394
-21.4121
-25.3149
-22.1162
-20.603
-25.027
-21.5508
-18.5954
-22.2679
-20.3386
-23.4479
-20.8732
-19.6876
-23.053
-20.365
-18.1126
-20.8792
-19.805
-18.4904
-19.9214
-19.065
-19.8158
-18.8908
-18.7261
-18.1488
-18.1474
-19.7055
-17.1033
-17.4055
-20.7892
-15.9137
-18.7741
-10.2786
-16.0621
-22.9868
-0.696263
-18.485
-61.5064
-40.2379
-35.1453
-32.8811
-31.6436
-30.9197
-30.5079
-30.3196
)
;
    }
    bottom
    {
        type            calculated;
        value           nonuniform List<scalar> 
64
(
-26.4181
-26.3906
-26.3366
-26.2574
-26.1551
-26.0323
-25.8916
-25.7359
-25.5679
-25.3902
-25.2052
-25.015
-24.8215
-24.6265
-24.4315
-24.2377
-24.0463
-23.8581
-23.6741
-23.4947
-23.3204
-23.1515
-22.9884
-22.8313
-22.6803
-22.5358
-22.398
-22.2673
-22.1441
-22.0288
-21.9219
-21.8242
-21.7364
-21.6593
-21.5938
-21.541
-21.502
-21.4779
-21.4699
-21.4794
-21.5075
-21.5555
-21.6246
-21.716
-21.8305
-21.969
-22.1318
-22.3188
-22.5293
-22.7618
-23.0141
-23.2828
-23.5637
-23.8515
-24.1403
-24.4235
-24.6945
-24.9467
-25.174
-25.3712
-25.534
-25.6589
-25.7434
-25.7861
)
;
    }
    defaultFaces
    {
        type            empty;
    }
}


// ************************************************************************* //
