/*--------------------------------*- C++ -*----------------------------------*\
| =========                 |                                                 |
| \\      /  F ield         | OpenFOAM: The Open Source CFD Toolbox           |
|  \\    /   O peration     | Version:  5.x                                   |
|   \\  /    A nd           | Web:      www.OpenFOAM.org                      |
|    \\/     M anipulation  |                                                 |
\*---------------------------------------------------------------------------*/
FoamFile
{
    version     2.0;
    format      ascii;
    class       volScalarField;
    location    "3.8";
    object      T;
}
// * * * * * * * * * * * * * * * * * * * * * * * * * * * * * * * * * * * * * //

dimensions      [0 0 0 1 0 0 0];

internalField   nonuniform List<scalar> 
2048
(
9.81021
9.8104
9.81079
9.81136
9.81209
9.81298
9.81399
9.81511
9.81631
9.81759
9.81892
9.82029
9.82168
9.82308
9.82448
9.82587
9.82725
9.8286
9.82992
9.83121
9.83246
9.83367
9.83484
9.83597
9.83706
9.8381
9.83909
9.84003
9.84091
9.84174
9.84251
9.84321
9.84384
9.84439
9.84486
9.84524
9.84552
9.8457
9.84575
9.84569
9.84548
9.84514
9.84464
9.84399
9.84316
9.84217
9.841
9.83966
9.83814
9.83647
9.83466
9.83273
9.83071
9.82864
9.82657
9.82453
9.82259
9.82078
9.81914
9.81773
9.81656
9.81566
9.81505
9.81475
9.43875
9.43934
9.4405
9.44219
9.44438
9.447
9.45001
9.45333
9.45691
9.4607
9.46465
9.4687
9.47282
9.47697
9.48112
9.48524
9.48931
9.49331
9.49722
9.50104
9.50474
9.50833
9.51179
9.51513
9.51834
9.52141
9.52434
9.52712
9.52974
9.53219
9.53446
9.53654
9.53841
9.54006
9.54145
9.54258
9.54342
9.54394
9.54411
9.54392
9.54333
9.54232
9.54086
9.53892
9.53649
9.53355
9.5301
9.52612
9.52164
9.51669
9.51131
9.50558
9.49958
9.49343
9.48726
9.48121
9.47541
9.47002
9.46516
9.46095
9.45747
9.4548
9.453
9.45209
9.0831
9.08408
9.08599
9.0888
9.09241
9.09675
9.10171
9.10718
9.11308
9.11931
9.12578
9.13243
9.13919
9.14599
9.15279
9.15955
9.16621
9.17275
9.17915
9.18539
9.19144
9.1973
9.20297
9.20842
9.21366
9.21868
9.22347
9.22801
9.2323
9.23631
9.24004
9.24345
9.24651
9.24922
9.25151
9.25338
9.25476
9.25563
9.25594
9.25565
9.25471
9.25308
9.25071
9.24757
9.24362
9.23883
9.23318
9.22668
9.21934
9.21121
9.20237
9.19293
9.18305
9.1729
9.1627
9.15269
9.14311
9.1342
9.12617
9.11921
9.11347
9.10907
9.1061
9.1046
8.74233
8.7437
8.74638
8.7503
8.75535
8.76139
8.76828
8.77588
8.78405
8.79267
8.80162
8.8108
8.82012
8.8295
8.83886
8.84816
8.85732
8.86632
8.87511
8.88366
8.89197
8.90002
8.90779
8.91527
8.92247
8.92936
8.93593
8.94217
8.94806
8.95358
8.95871
8.9634
8.96764
8.97137
8.97456
8.97715
8.97909
8.98032
8.98079
8.98043
8.97919
8.977
8.9738
8.96952
8.96413
8.95758
8.94984
8.94091
8.9308
8.91958
8.90736
8.89427
8.88054
8.86642
8.85221
8.83825
8.82489
8.81246
8.80127
8.79157
8.78359
8.77748
8.77335
8.77127
8.41561
8.41737
8.42083
8.42589
8.43239
8.44015
8.44898
8.4587
8.46913
8.48011
8.49149
8.50315
8.51497
8.52685
8.53871
8.55046
8.56205
8.57341
8.5845
8.5953
8.60577
8.61591
8.6257
8.63513
8.6442
8.65288
8.66117
8.66905
8.67649
8.68346
8.68995
8.6959
8.70128
8.70603
8.71009
8.71341
8.71592
8.71754
8.71819
8.71782
8.71632
8.71363
8.70966
8.70435
8.69761
8.68939
8.67965
8.66838
8.65559
8.64135
8.62578
8.60908
8.59151
8.57339
8.55514
8.53719
8.51999
8.504
8.48962
8.47718
8.46696
8.45914
8.45386
8.4512
8.10215
8.10433
8.1086
8.11484
8.12283
8.13234
8.14314
8.15499
8.16767
8.18099
8.19477
8.20886
8.22313
8.23746
8.25174
8.26589
8.27982
8.29347
8.30678
8.31973
8.33228
8.34443
8.35615
8.36745
8.37832
8.38873
8.39867
8.40812
8.41706
8.42544
8.43325
8.44043
8.44692
8.45268
8.45762
8.46168
8.46477
8.4668
8.46768
8.46733
8.46564
8.46252
8.45787
8.45159
8.44359
8.43381
8.42217
8.40864
8.39325
8.37605
8.35719
8.33687
8.31543
8.29326
8.27088
8.24885
8.22773
8.20811
8.19048
8.17527
8.16278
8.15325
8.14683
8.1436
7.80125
7.80386
7.809
7.81646
7.82599
7.83731
7.85012
7.86412
7.87906
7.8947
7.91085
7.92734
7.94402
7.96074
7.9774
7.99388
8.01009
8.02595
8.0414
8.05642
8.07097
8.08504
8.09862
8.11172
8.1243
8.13637
8.14791
8.15888
8.16926
8.17902
8.18811
8.19649
8.20409
8.21084
8.21667
8.22147
8.22516
8.22763
8.22879
8.22851
8.22668
8.2232
8.21794
8.21079
8.20164
8.19038
8.17694
8.16126
8.14334
8.12324
8.1011
8.07716
8.0518
8.0255
7.99888
7.97263
7.94747
7.92411
7.90315
7.88511
7.87034
7.8591
7.85153
7.84774
7.51224
7.51533
7.52137
7.53013
7.54128
7.55447
7.56933
7.58552
7.60272
7.62069
7.63919
7.65805
7.67709
7.69616
7.71514
7.73389
7.75231
7.77032
7.78784
7.80485
7.82131
7.83723
7.85259
7.8674
7.88165
7.89532
7.90838
7.92082
7.93261
7.94369
7.95404
7.9636
7.97229
7.98003
7.98674
7.99231
7.99662
7.99957
8.00103
8.00087
7.99898
7.99521
7.98942
7.98149
7.97128
7.95865
7.94351
7.92578
7.90542
7.88247
7.85708
7.8295
7.80015
7.76961
7.73859
7.70796
7.6786
7.65136
7.62698
7.60605
7.58898
7.57603
7.56734
7.56298
7.23451
7.2381
7.24512
7.25525
7.26812
7.28326
7.30024
7.31865
7.33814
7.35842
7.37926
7.40045
7.42182
7.4432
7.46445
7.48542
7.506
7.52608
7.5456
7.56452
7.58282
7.6005
7.61757
7.63403
7.64987
7.66507
7.67961
7.69347
7.70661
7.71899
7.73056
7.74127
7.75104
7.75978
7.76738
7.77372
7.77868
7.78214
7.78394
7.78397
7.78206
7.77807
7.77185
7.76324
7.75206
7.73818
7.72145
7.70176
7.67904
7.65332
7.6247
7.59346
7.56004
7.52511
7.48953
7.45431
7.42054
7.38927
7.36136
7.3375
7.31811
7.30345
7.29365
7.28874
6.96747
6.97161
6.97968
6.9913
7.00598
7.02317
7.04234
7.06301
7.08481
7.1074
7.13055
7.15404
7.1777
7.20135
7.22483
7.24798
7.27066
7.29276
7.3142
7.33495
7.35501
7.37438
7.39307
7.41111
7.42847
7.44516
7.46113
7.47635
7.4908
7.50443
7.5172
7.52904
7.53988
7.54961
7.55811
7.56525
7.57089
7.57488
7.57707
7.57732
7.57547
7.57134
7.56477
7.55556
7.54353
7.5285
7.51029
7.48875
7.46379
7.43536
7.40355
7.36862
7.33104
7.29157
7.2512
7.21116
7.17277
7.13728
7.10573
7.07887
7.05717
7.04084
7.02995
7.02452
6.71058
6.71532
6.72454
6.73777
6.75438
6.77372
6.79515
6.81815
6.84226
6.86715
6.89259
6.91835
6.94427
6.97015
6.99582
7.0211
7.04583
7.06988
7.09317
7.11568
7.13741
7.15839
7.17864
7.19818
7.21702
7.23513
7.25247
7.26902
7.28473
7.29958
7.31351
7.32647
7.33837
7.3491
7.35851
7.36646
7.37279
7.37735
7.37997
7.3805
7.37875
7.37456
7.36771
7.358
7.34523
7.32916
7.3096
7.28634
7.25923
7.22818
7.19322
7.15459
7.11276
7.06857
7.02318
6.97804
6.93476
6.89485
6.85954
6.82966
6.80565
6.78769
6.77578
6.76984
6.46332
6.46873
6.47921
6.49417
6.51286
6.53447
6.55826
6.58361
6.61005
6.63723
6.66492
6.69292
6.72105
6.74913
6.77696
6.80433
6.83106
6.857
6.88208
6.90627
6.92959
6.95209
6.97382
6.99481
7.01506
7.03454
7.05321
7.07103
7.08797
7.10399
7.11907
7.13312
7.14607
7.15779
7.16812
7.1769
7.18396
7.18911
7.1922
7.19305
7.19147
7.18727
7.18024
7.17013
7.15671
7.13973
7.11893
7.09407
7.06494
7.03138
6.99334
6.95099
6.90483
6.85573
6.80504
6.75449
6.70602
6.66147
6.62228
6.58935
6.5631
6.54358
6.53069
6.52429
6.22521
6.23135
6.24322
6.26008
6.281
6.305
6.33124
6.35899
6.38777
6.41721
6.44711
6.4773
6.50761
6.53785
6.56781
6.59723
6.62592
6.6537
6.68049
6.70628
6.73111
6.75505
6.77819
6.80056
6.82217
6.84298
6.86293
6.88198
6.9001
6.91726
6.93344
6.94857
6.96257
6.97528
6.98655
6.99617
7.00397
7.00975
7.01334
7.01455
7.01319
7.00906
7.00191
6.9915
6.97754
6.95976
6.93786
6.91154
6.88053
6.84457
6.80353
6.75749
6.7069
6.6527
6.5964
6.54007
6.48607
6.43664
6.39346
6.3575
6.32906
6.30809
6.29432
6.28751
5.99577
6.00273
6.01614
6.03508
6.0584
6.08495
6.11371
6.14392
6.17502
6.20669
6.23875
6.27108
6.30353
6.3359
6.36795
6.39941
6.43001
6.45957
6.48801
6.51531
6.54155
6.56686
6.59133
6.61502
6.63794
6.66003
6.68123
6.70146
6.72071
6.73897
6.75622
6.77241
6.78745
6.80117
6.81338
6.82386
6.83242
6.83885
6.84297
6.84458
6.8435
6.83949
6.83231
6.82168
6.80729
6.78882
6.76595
6.73833
6.70558
6.66737
6.62343
6.57374
6.51864
6.45913
6.3969
6.33437
6.27445
6.21987
6.17261
6.13365
6.10316
6.08086
6.06631
6.05915
5.77456
5.78245
5.79757
5.81879
5.84471
5.87394
5.90533
5.93801
5.97142
6.00527
6.03943
6.07385
6.10839
6.14286
6.17699
6.21045
6.24293
6.27423
6.30423
6.33296
6.36053
6.38711
6.41285
6.4378
6.46198
6.48532
6.50772
6.52909
6.54942
6.56873
6.58702
6.60426
6.62032
6.63505
6.64822
6.65959
6.66893
6.67603
6.6807
6.68275
6.68198
6.67816
6.67103
6.66026
6.64553
6.6265
6.6028
6.57401
6.53969
6.4994
6.45271
6.39941
6.33976
6.27473
6.2062
6.137
6.07069
6.01069
5.95927
5.9174
5.88501
5.86156
5.84637
5.83893
5.56117
5.57008
5.58711
5.61084
5.63957
5.67165
5.70575
5.74094
5.77663
5.81258
5.84877
5.88521
5.9218
5.95834
5.99454
6.02999
6.06432
6.0973
6.1288
6.15887
6.18767
6.21543
6.24235
6.26852
6.29392
6.31847
6.34204
6.36451
6.38587
6.40618
6.42548
6.44374
6.46083
6.47658
6.49072
6.50298
6.51311
6.5209
6.52614
6.52865
6.52824
6.52467
6.51765
6.50684
6.49187
6.47239
6.44798
6.41818
6.38248
6.34029
6.29101
6.23422
6.16998
6.09923
6.024
5.94757
5.87436
5.80862
5.75301
5.70837
5.6743
5.64989
5.63422
5.62657
5.35517
5.36525
5.3844
5.41091
5.44269
5.47777
5.51467
5.55238
5.59029
5.62826
5.6664
5.70479
5.74339
5.78197
5.82023
5.85767
5.89382
5.92842
5.96135
5.99266
6.02258
6.05144
6.07948
6.1068
6.13338
6.15913
6.18384
6.20736
6.2297
6.25096
6.27123
6.29048
6.3086
6.32538
6.34051
6.35368
6.36462
6.37311
6.37893
6.38193
6.38192
6.37865
6.3718
6.36102
6.34591
6.32608
6.3011
6.27045
6.23354
6.18967
6.138
6.07785
6.00903
5.93238
5.85002
5.76574
5.68501
5.6132
5.5534
5.50619
5.4707
5.4456
5.42962
5.42186
5.1562
5.16759
5.1891
5.21868
5.25377
5.292
5.33179
5.37203
5.4121
5.45198
5.49194
5.53223
5.57278
5.61338
5.6537
5.69313
5.73107
5.76725
5.80154
5.83399
5.86493
5.89477
5.92387
5.9523
5.98004
6.00697
6.0328
6.05733
6.08057
6.10272
6.12393
6.14416
6.16329
6.18112
6.19727
6.21135
6.22311
6.2323
6.23872
6.24222
6.24263
6.23971
6.23311
6.22244
6.20726
6.18719
6.16177
6.13042
6.09249
6.04717
5.99337
5.93005
5.85668
5.77394
5.68403
5.59116
5.50216
5.42396
5.36003
5.31053
5.27397
5.24843
5.23233
5.22455
4.96386
4.97674
5.00088
5.03386
5.07254
5.11408
5.15683
5.1996
5.24173
5.28339
5.32506
5.36716
5.40962
5.4522
5.49461
5.53606
5.57577
5.61348
5.64906
5.68254
5.71437
5.7451
5.77518
5.80469
5.83355
5.86165
5.88861
5.91408
5.93817
5.96114
5.98324
6.00444
6.02457
6.04347
6.06066
6.07567
6.08825
6.09816
6.10517
6.10919
6.11004
6.10752
6.10123
6.09073
6.07557
6.05534
6.0296
5.9977
5.95895
5.91245
5.85679
5.79052
5.71267
5.62374
5.52583
5.42351
5.32537
5.24041
5.1725
5.1211
5.08383
5.05819
5.04217
5.03448
4.77781
4.79238
4.81943
4.85618
4.89876
4.94374
4.98951
5.03481
5.07889
5.12218
5.16541
5.20925
5.25358
5.29811
5.34265
5.38615
5.42759
5.46679
5.50359
5.53798
5.57057
5.60208
5.6331
5.66364
5.69359
5.72289
5.75096
5.77733
5.80217
5.82589
5.84886
5.871
5.89213
5.91212
5.93038
5.94633
5.95973
5.97035
5.97796
5.98249
5.98381
5.98173
5.97581
5.96555
5.95047
5.93018
5.90423
5.87192
5.83254
5.78512
5.72793
5.65901
5.5768
5.48159
5.37528
5.2625
5.15412
5.06207
4.99045
4.93761
4.9001
4.87467
4.85895
4.85144
4.59769
4.6142
4.64444
4.6854
4.73222
4.78074
4.82958
4.87741
4.92329
4.96802
5.01264
5.05818
5.10433
5.15075
5.19748
5.24311
5.28622
5.32687
5.36485
5.40002
5.43323
5.46539
5.4973
5.52884
5.55984
5.59037
5.6196
5.64678
5.67229
5.69667
5.72048
5.74354
5.76565
5.78677
5.80616
5.82302
5.83725
5.8486
5.85678
5.86181
5.86362
5.86202
5.85653
5.84657
5.83162
5.81134
5.78531
5.75271
5.71286
5.66485
5.60648
5.53526
5.44884
5.34734
5.23229
5.10787
4.9879
4.88844
4.81352
4.75984
4.72257
4.69771
4.6825
4.67528
4.42317
4.44191
4.47563
4.52127
4.57272
4.62481
4.67679
4.72717
4.77465
4.82062
4.86643
4.91363
4.96157
5.0098
5.05882
5.10667
5.15138
5.19344
5.23257
5.26836
5.30204
5.33471
5.36749
5.40002
5.43202
5.46383
5.49426
5.52218
5.54825
5.57319
5.59782
5.6218
5.64484
5.66715
5.68771
5.70548
5.72053
5.73261
5.74134
5.74686
5.74915
5.74808
5.74308
5.73349
5.71872
5.69849
5.67249
5.63971
5.59955
5.55127
5.49212
5.41902
5.32857
5.22083
5.09685
4.95938
4.82611
4.71901
4.64139
4.58756
4.55109
4.52715
4.51266
4.50582
4.25391
4.27526
4.3127
4.36359
4.42012
4.47573
4.53087
4.58387
4.63271
4.67969
4.72644
4.77531
4.82502
4.8749
4.92637
4.9766
5.02277
5.06621
5.10649
5.14273
5.17672
5.20973
5.24339
5.2769
5.3098
5.34301
5.37472
5.40327
5.42978
5.45514
5.4806
5.5055
5.52941
5.55299
5.5748
5.59341
5.60929
5.62211
5.63135
5.63735
5.64012
5.63963
5.63518
5.62601
5.61144
5.59131
5.56547
5.53259
5.49223
5.44403
5.38452
5.31006
5.21574
5.1019
4.96905
4.81686
4.66808
4.55326
4.47377
4.42063
4.38552
4.36286
4.34928
4.3429
4.08958
4.11403
4.15534
4.21214
4.2743
4.33321
4.39159
4.44731
4.49719
4.54494
4.59232
4.64294
4.69443
4.74573
4.79986
4.85268
4.90011
4.94492
4.98639
5.02285
5.057
5.09014
5.12473
5.15923
5.1929
5.22763
5.26077
5.28979
5.31662
5.34224
5.36858
5.39439
5.41907
5.44402
5.46719
5.48657
5.50326
5.51686
5.52655
5.533
5.53623
5.53637
5.53254
5.52385
5.5095
5.48947
5.46394
5.43102
5.3905
5.34279
5.28336
5.20817
5.1101
4.99038
4.84907
4.68018
4.51304
4.39068
4.31044
4.25892
4.22576
4.20471
4.19221
4.18637
3.92985
3.95808
4.00322
4.06676
4.1352
4.19699
4.25868
4.31735
4.36781
4.41613
4.46373
4.51626
4.56956
4.6219
4.67902
4.73475
4.78308
4.82928
4.87208
4.90846
4.94261
4.97563
5.01128
5.0468
5.081
5.11748
5.15224
5.1815
5.20854
5.2342
5.26151
5.28827
5.31352
5.34
5.36469
5.38468
5.4022
5.41662
5.42667
5.43356
5.43721
5.43805
5.43491
5.42676
5.41262
5.39267
5.36764
5.33469
5.29398
5.24722
5.18829
5.11314
5.01137
4.88601
4.73725
4.5493
4.36004
4.23076
4.15122
4.10233
4.07171
4.05257
4.04131
4.03608
3.77438
3.80731
3.85597
3.92726
4.00282
4.06673
4.13188
4.19386
4.24431
4.29303
4.34029
4.39505
4.45025
4.50303
4.56359
4.62269
4.67139
4.71903
4.76339
4.79928
4.83334
4.86587
4.90279
4.93941
4.97377
5.01231
5.04899
5.07817
5.10532
5.13073
5.15918
5.18694
5.21246
5.24071
5.26713
5.28749
5.30586
5.3212
5.33146
5.33877
5.34279
5.34442
5.34203
5.33449
5.32054
5.30059
5.27631
5.24333
5.20227
5.157
5.09895
5.02485
4.91923
4.78848
4.63411
4.42426
4.20794
4.07302
3.996
3.95082
3.92328
3.90632
3.89643
3.89185
3.6228
3.66175
3.71316
3.79349
3.87727
3.94206
4.0109
4.0768
4.12635
4.17543
4.22158
4.2791
4.33637
4.38867
4.45335
4.51646
4.56467
4.61388
4.6602
4.69504
4.72898
4.76052
4.79908
4.83693
4.87086
4.9119
4.95091
4.97954
5.00677
5.03152
5.06138
5.09023
5.11559
5.14593
5.17437
5.19473
5.214
5.23039
5.24068
5.24843
5.25272
5.25523
5.25367
5.24682
5.23302
5.21293
5.18974
5.15668
5.11494
5.07186
5.01493
4.94321
4.83335
4.6973
4.54038
4.30527
4.05529
3.91706
3.84476
3.80439
3.7804
3.76584
3.75741
3.75352
3.4747
3.52155
3.57426
3.66528
3.75874
3.82251
3.89545
3.96617
4.0136
4.06322
4.10714
4.16825
4.22788
4.27831
4.34805
4.41607
4.46253
4.51358
4.56245
4.59544
4.62938
4.65921
4.69996
4.73923
4.77188
4.81604
4.85797
4.88533
4.91273
4.93623
4.96794
4.99804
5.02255
5.05544
5.08632
5.10611
5.12639
5.14405
5.15408
5.16231
5.16673
5.17028
5.16961
5.16356
5.14984
5.12934
5.10776
5.07453
5.03154
4.99156
4.93579
4.86822
4.75335
4.61179
4.45708
4.19268
3.90029
3.76259
3.69754
3.66303
3.64302
3.63101
3.6241
3.62093
3.32961
3.38704
3.4386
3.54251
3.6476
3.70751
3.78521
3.8621
3.90561
3.95633
3.99643
4.06235
4.12481
4.17135
4.24748
4.32167
4.36452
4.41782
4.47014
4.50012
4.53444
4.56153
4.60529
4.64631
4.67637
4.72455
4.77017
4.79523
4.82309
4.8445
4.87871
4.91029
4.93296
4.96906
5.00293
5.02134
5.04281
5.06205
5.0714
5.08024
5.08456
5.08935
5.08961
5.08449
5.07079
5.0495
5.03022
4.99668
4.95157
4.91594
4.86098
4.80001
4.67881
4.53099
4.38553
4.08709
3.74062
3.60951
3.55451
3.52678
3.51105
3.5017
3.49635
3.4939
3.18698
3.25882
3.30533
3.42502
3.54436
3.59634
3.67985
3.76485
3.80186
3.85484
3.88883
3.96131
4.02732
4.06707
4.15145
4.23352
4.2701
4.32631
4.38339
4.40868
4.44415
4.46699
4.51494
4.55818
4.58382
4.63722
4.6876
4.70889
4.73781
4.75591
4.79356
4.82698
4.84638
4.88661
4.92425
4.94006
4.96303
4.9843
4.99237
5.00207
5.00596
5.01227
5.01348
5.00947
4.99572
4.97301
4.95704
4.92303
4.87445
4.84494
4.78984
4.73885
4.60934
4.45357
4.32745
3.98936
3.57338
3.45797
3.41588
3.39568
3.38442
3.37778
3.37399
3.37226
3.04615
3.13776
3.17337
3.31269
3.44981
3.48808
3.57901
3.67481
3.70166
3.75896
3.78355
3.8651
3.93572
3.96458
4.05975
4.15203
4.17859
4.23875
4.3024
4.3206
4.35858
4.37503
4.42884
4.475
4.4936
4.55391
4.61044
4.62586
4.65693
4.67
4.71239
4.74819
4.76229
4.80792
4.85035
4.8619
4.88685
4.91077
4.9167
4.92767
4.93065
4.93887
4.94101
4.93833
4.92448
4.89945
4.88818
4.85349
4.79952
4.77862
4.72157
4.68523
4.54452
4.3777
4.28502
3.90072
3.39487
3.30853
3.28197
3.26976
3.26304
3.2591
3.25686
3.25583
2.9063
3.02517
3.04131
3.2054
3.36498
3.38158
3.4823
3.5926
3.60412
3.66913
3.67965
3.77371
3.85049
3.86283
3.97223
4.07782
4.08918
4.15483
4.22751
4.23526
4.27797
4.28498
4.34693
4.39702
4.40496
4.47445
4.53897
4.54557
4.5806
4.58618
4.63514
4.67406
4.68011
4.73286
4.78143
4.7864
4.81405
4.84148
4.84405
4.85698
4.85833
4.86902
4.87197
4.87094
4.85699
4.82832
4.82365
4.78809
4.726
4.71725
4.6551
4.63985
4.48402
4.30096
4.26092
3.82282
3.20045
3.16225
3.1531
3.14904
3.14682
3.14551
3.14478
3.14444
)
;

boundaryField
{
    left
    {
        type            zeroGradient;
    }
    right
    {
        type            zeroGradient;
    }
    interface
    {
        type            fixedValue;
        value           nonuniform List<scalar> 
64
(
2.83478
2.97282
2.97282
3.15306
3.3273
3.3273
3.43477
3.55503
3.55503
3.62665
3.62665
3.72948
3.81053
3.81053
3.92954
4.04403
4.04403
4.11361
4.19261
4.19261
4.2395
4.2395
4.30719
4.36
4.36
4.43573
4.50555
4.50555
4.54405
4.54405
4.59763
4.63868
4.63868
4.69625
4.74886
4.74886
4.77844
4.80823
4.80823
4.8227
4.8227
4.83506
4.8383
4.8383
4.82435
4.79289
4.79289
4.75679
4.68862
4.68862
4.62134
4.62134
4.45513
4.25964
4.25964
3.78959
3.08996
3.08996
3.08996
3.08996
3.08996
3.08996
3.08996
3.08996
)
;
    }
    bottom
    {
        type            fixedValue;
        value           uniform 10;
    }
    defaultFaces
    {
        type            empty;
    }
}


// ************************************************************************* //
