/*--------------------------------*- C++ -*----------------------------------*\
| =========                 |                                                 |
| \\      /  F ield         | OpenFOAM: The Open Source CFD Toolbox           |
|  \\    /   O peration     | Version:  5.x                                   |
|   \\  /    A nd           | Web:      www.OpenFOAM.org                      |
|    \\/     M anipulation  |                                                 |
\*---------------------------------------------------------------------------*/
FoamFile
{
    version     2.0;
    format      ascii;
    class       volScalarField;
    location    "14.2";
    object      gradTy;
}
// * * * * * * * * * * * * * * * * * * * * * * * * * * * * * * * * * * * * * //

dimensions      [0 -1 0 1 0 0 0];

internalField   nonuniform List<scalar> 
2048
(
-26.4237
-26.3961
-26.3417
-26.262
-26.1592
-26.0358
-25.8946
-25.7383
-25.5698
-25.3915
-25.206
-25.0154
-24.8216
-24.6262
-24.4309
-24.2368
-24.0452
-23.8569
-23.6727
-23.4932
-23.3188
-23.1499
-22.9867
-22.8295
-22.6784
-22.5338
-22.396
-22.2651
-22.1418
-22.0263
-21.9193
-21.8214
-21.7334
-21.656
-21.5903
-21.5373
-21.498
-21.4736
-21.4653
-21.4745
-21.5023
-21.55
-21.6189
-21.7101
-21.8245
-21.9629
-22.1257
-22.3128
-22.5236
-22.7567
-23.0097
-23.2793
-23.5613
-23.8504
-24.1406
-24.4253
-24.6976
-24.9511
-25.1796
-25.3777
-25.5412
-25.6666
-25.7515
-25.7943
-26.446
-26.4177
-26.3621
-26.2808
-26.1759
-26.0503
-25.9067
-25.7482
-25.5776
-25.3974
-25.2102
-25.018
-24.8228
-24.6262
-24.4298
-24.2349
-24.0425
-23.8536
-23.669
-23.4891
-23.3144
-23.1453
-22.9819
-22.8245
-22.6732
-22.5284
-22.3902
-22.2591
-22.1354
-22.0195
-21.9119
-21.8135
-21.7247
-21.6466
-21.5801
-21.5261
-21.4859
-21.4605
-21.4513
-21.4594
-21.4862
-21.5329
-21.6009
-21.6913
-21.8051
-21.9431
-22.106
-22.2937
-22.5056
-22.7405
-22.9962
-23.2693
-23.5556
-23.8496
-24.1451
-24.4352
-24.7129
-24.9713
-25.2041
-25.4058
-25.572
-25.6994
-25.7855
-25.829
-26.4887
-26.4592
-26.4011
-26.3164
-26.2076
-26.0776
-25.9297
-25.7669
-25.5922
-25.4084
-25.2179
-25.0228
-24.825
-24.6261
-24.4277
-24.2311
-24.0373
-23.8473
-23.6617
-23.4812
-23.306
-23.1365
-22.9727
-22.815
-22.6634
-22.5181
-22.3795
-22.2477
-22.1233
-22.0065
-21.8981
-21.7984
-21.7084
-21.6289
-21.5608
-21.5051
-21.4631
-21.4358
-21.4247
-21.4308
-21.4557
-21.5005
-21.5667
-21.6555
-21.7681
-21.9055
-22.0684
-22.257
-22.4711
-22.7094
-22.9701
-23.2498
-23.5442
-23.8476
-24.1534
-24.4541
-24.7421
-25.01
-25.251
-25.4595
-25.6309
-25.7619
-25.8504
-25.895
-26.5499
-26.5185
-26.4569
-26.3673
-26.2526
-26.1163
-25.9619
-25.793
-25.6126
-25.4236
-25.2285
-25.0293
-24.8278
-24.6257
-24.4245
-24.2255
-24.0297
-23.8381
-23.6513
-23.4699
-23.2941
-23.124
-22.9599
-22.8017
-22.6496
-22.5037
-22.3644
-22.2318
-22.1064
-21.9885
-21.8786
-21.7774
-21.6856
-21.604
-21.5336
-21.4756
-21.431
-21.4011
-21.3872
-21.3906
-21.4126
-21.4547
-21.5183
-21.6049
-21.7157
-21.8519
-22.0146
-22.2044
-22.4212
-22.6643
-22.932
-23.2211
-23.5271
-23.8441
-24.1648
-24.481
-24.784
-25.0656
-25.3184
-25.5364
-25.7151
-25.8512
-25.9428
-25.9889
-26.6283
-26.5944
-26.5279
-26.4317
-26.3092
-26.1646
-26.002
-25.8251
-25.6376
-25.4421
-25.2412
-25.0368
-24.8308
-24.6248
-24.4201
-24.218
-24.0198
-23.8262
-23.638
-23.4555
-23.279
-23.1084
-22.9437
-22.7851
-22.6324
-22.4859
-22.3457
-22.2121
-22.0855
-21.9661
-21.8546
-21.7513
-21.6572
-21.5731
-21.4999
-21.4388
-21.391
-21.3578
-21.3404
-21.3403
-21.3587
-21.3973
-21.4576
-21.5411
-21.6494
-21.7839
-21.9461
-22.1369
-22.3569
-22.6057
-22.8819
-23.1829
-23.5039
-23.8385
-24.1787
-24.515
-24.8376
-25.137
-25.4049
-25.6349
-25.8224
-25.9647
-26.0601
-26.1079
-26.723
-26.6857
-26.6131
-26.5085
-26.3762
-26.2213
-26.0485
-25.8621
-25.666
-25.4629
-25.2553
-25.0451
-24.8338
-24.6231
-24.4143
-24.2087
-24.0076
-23.8118
-23.622
-23.4384
-23.2611
-23.09
-22.9249
-22.7657
-22.6124
-22.4651
-22.324
-22.1892
-22.0612
-21.9402
-21.8267
-21.7212
-21.6244
-21.5372
-21.4606
-21.396
-21.3444
-21.3072
-21.2857
-21.2814
-21.2956
-21.3299
-21.3861
-21.4657
-21.5708
-21.7029
-21.864
-22.0556
-22.2787
-22.5337
-22.8199
-23.1348
-23.4737
-23.8299
-24.1942
-24.5555
-24.9023
-25.2234
-25.5095
-25.7536
-25.9513
-26.1003
-26.1997
-26.2493
-26.8331
-26.7918
-26.7115
-26.5965
-26.4523
-26.2849
-26.1001
-25.9028
-25.6968
-25.4853
-25.2703
-25.0535
-24.8364
-24.6205
-24.407
-24.1975
-23.9932
-23.7949
-23.6034
-23.4187
-23.2408
-23.0692
-22.9037
-22.7441
-22.5901
-22.442
-22.2998
-22.1638
-22.0343
-21.9115
-21.7958
-21.6877
-21.5878
-21.4972
-21.4168
-21.3481
-21.2922
-21.2505
-21.2243
-21.2152
-21.2245
-21.2539
-21.3052
-21.3803
-21.4812
-21.6102
-21.7694
-21.9611
-22.1871
-22.4485
-22.7454
-23.076
-23.4359
-23.8175
-24.2105
-24.6019
-24.9777
-25.3245
-25.6317
-25.8916
-26.1003
-26.2562
-26.3594
-26.4108
-26.9584
-26.912
-26.8223
-26.6947
-26.5363
-26.3543
-26.1556
-25.9458
-25.729
-25.5083
-25.2854
-25.0617
-24.8384
-24.6167
-24.3982
-24.1843
-23.9764
-23.7755
-23.5822
-23.3966
-23.2182
-23.0464
-22.8807
-22.7206
-22.566
-22.4169
-22.2736
-22.1364
-22.0053
-21.8806
-21.7626
-21.6516
-21.5484
-21.4539
-21.3693
-21.296
-21.2353
-21.1887
-21.1574
-21.143
-21.1468
-21.1707
-21.2164
-21.286
-21.382
-21.5069
-21.6633
-21.8542
-22.0823
-22.3499
-22.658
-23.0058
-23.3892
-23.8002
-24.227
-24.6538
-25.0637
-25.4404
-25.7713
-26.0484
-26.2682
-26.4307
-26.5374
-26.5901
-27.0986
-27.0461
-26.945
-26.8024
-26.627
-26.428
-26.2135
-25.99
-25.7616
-25.5313
-25.3002
-25.0694
-24.8395
-24.6118
-24.3877
-24.169
-23.9572
-23.7536
-23.5586
-23.3722
-23.1937
-23.0219
-22.8562
-22.6958
-22.5405
-22.3904
-22.246
-22.1074
-21.9748
-21.8482
-21.7277
-21.6137
-21.5068
-21.4081
-21.3189
-21.2406
-21.1748
-21.1228
-21.086
-21.0658
-21.0637
-21.0814
-21.1208
-21.1843
-21.2744
-21.3941
-21.5466
-21.7355
-21.9647
-22.2377
-22.5569
-22.9229
-23.3323
-23.7768
-24.2426
-24.711
-25.1606
-25.5715
-25.9286
-26.2236
-26.4542
-26.6223
-26.7313
-26.7849
-27.2539
-27.194
-27.0791
-26.9185
-26.7233
-26.5048
-26.2727
-26.0341
-25.7937
-25.5535
-25.3143
-25.0763
-24.8397
-24.6056
-24.3755
-24.1515
-23.9356
-23.7291
-23.5327
-23.3458
-23.1674
-22.9961
-22.8305
-22.6699
-22.5139
-22.3628
-22.2171
-22.0772
-21.9431
-21.8146
-21.6917
-21.5746
-21.4638
-21.3605
-21.2662
-21.1826
-21.1113
-21.0536
-21.011
-20.9847
-20.9762
-20.9872
-21.0197
-21.0762
-21.1595
-21.2729
-21.4202
-21.6058
-21.8346
-22.1116
-22.4414
-22.8261
-23.2637
-23.7459
-24.2566
-24.7732
-25.2689
-25.7185
-26.104
-26.4171
-26.6573
-26.8293
-26.9393
-26.9928
-27.4246
-27.3556
-27.2243
-27.0423
-26.824
-26.5833
-26.3317
-26.0771
-25.8242
-25.5745
-25.3274
-25.0824
-24.839
-24.5981
-24.3616
-24.1319
-23.9114
-23.7021
-23.5042
-23.3173
-23.1397
-22.9693
-22.8042
-22.6434
-22.4867
-22.3344
-22.1874
-22.0462
-21.9107
-21.7805
-21.6552
-21.5348
-21.4198
-21.3116
-21.2119
-21.1226
-21.0454
-20.9819
-20.9332
-20.9006
-20.8853
-20.8891
-20.9141
-20.9629
-21.0385
-21.1445
-21.2853
-21.4658
-21.6923
-21.9717
-22.3107
-22.7141
-23.1818
-23.7057
-24.2679
-24.8405
-25.3894
-25.8826
-26.2986
-26.6291
-26.8768
-27.0502
-27.1591
-27.2115
-27.6111
-27.5312
-27.3802
-27.1731
-26.9279
-26.6621
-26.3891
-26.1177
-25.8524
-25.5936
-25.3393
-25.0876
-24.8375
-24.5896
-24.346
-24.1099
-23.8846
-23.6723
-23.4734
-23.287
-23.1108
-22.9418
-22.7776
-22.6167
-22.4592
-22.3055
-22.157
-22.0145
-21.8779
-21.7462
-21.6186
-21.4948
-21.3755
-21.262
-21.1565
-21.0611
-20.9779
-20.9082
-20.8533
-20.8142
-20.792
-20.7882
-20.8051
-20.8455
-20.9125
-21.01
-21.1427
-21.3164
-21.5384
-21.8177
-22.164
-22.5853
-23.0845
-23.6544
-24.2752
-24.9128
-25.5234
-26.0657
-26.5134
-26.8597
-27.1117
-27.2832
-27.3885
-27.4383
-27.814
-27.7212
-27.5467
-27.3098
-27.0337
-26.7397
-26.4434
-26.1547
-25.8774
-25.6104
-25.3499
-25.0921
-24.8354
-24.58
-24.3287
-24.0856
-23.855
-23.6396
-23.44
-23.2549
-23.0809
-22.9141
-22.751
-22.5902
-22.4316
-22.2763
-22.1261
-21.9825
-21.845
-21.7122
-21.5824
-21.4553
-21.3313
-21.2121
-21.1003
-20.9986
-20.9091
-20.8332
-20.7721
-20.7264
-20.697
-20.6853
-20.6936
-20.7249
-20.7826
-20.8706
-20.9937
-21.1585
-21.3735
-21.6498
-22.0005
-22.4382
-22.9696
-23.5897
-24.277
-24.9903
-25.6727
-26.2698
-26.7502
-27.1093
-27.3612
-27.5266
-27.625
-27.6706
-28.0343
-27.9258
-27.7234
-27.4517
-27.14
-26.8145
-26.4934
-26.1869
-25.8984
-25.6247
-25.3592
-25.0962
-24.8329
-24.5698
-24.3098
-24.0588
-23.8224
-23.6039
-23.404
-23.221
-23.0503
-22.8864
-22.725
-22.5642
-22.4043
-22.2468
-22.0947
-21.9501
-21.8122
-21.6787
-21.5471
-21.4165
-21.2876
-21.1623
-21.0438
-20.9354
-20.8394
-20.7574
-20.6901
-20.6378
-20.6011
-20.5812
-20.5805
-20.6021
-20.6498
-20.7272
-20.8394
-20.9933
-21.1985
-21.4681
-21.8196
-22.2711
-22.8348
-23.509
-24.2715
-25.0731
-25.8394
-26.4979
-27.0107
-27.3783
-27.6243
-27.7783
-27.8662
-27.9057
-28.273
-28.1457
-27.9104
-27.5977
-27.2451
-26.885
-26.5374
-26.213
-25.9147
-25.6362
-25.3675
-25.1001
-24.8305
-24.5592
-24.2895
-24.0293
-23.7866
-23.565
-23.3652
-23.1853
-23.0192
-22.8594
-22.7
-22.5391
-22.3775
-22.2173
-22.0628
-21.9174
-21.7798
-21.6462
-21.513
-21.379
-21.245
-21.1129
-20.987
-20.8717
-20.7692
-20.681
-20.6077
-20.5491
-20.5051
-20.4767
-20.4665
-20.478
-20.515
-20.5811
-20.6811
-20.8221
-21.0145
-21.2733
-21.6209
-22.0823
-22.6774
-23.4091
-24.2562
-25.1613
-26.0265
-26.7536
-27.2973
-27.667
-27.8996
-28.0361
-28.1093
-28.1407
-28.5312
-28.3815
-28.1074
-27.7469
-27.3475
-26.9496
-26.574
-26.2319
-25.9256
-25.6449
-25.3752
-25.1043
-24.8285
-24.5487
-24.2679
-23.9971
-23.7475
-23.5226
-23.3235
-23.148
-22.988
-22.8334
-22.6763
-22.5153
-22.3516
-22.1876
-22.0302
-21.8843
-21.7478
-21.615
-21.4805
-21.3431
-21.2037
-21.0642
-20.9303
-20.8077
-20.6987
-20.6044
-20.5255
-20.4608
-20.4096
-20.3724
-20.3523
-20.3533
-20.3793
-20.4334
-20.5199
-20.6463
-20.8228
-21.066
-21.404
-21.8703
-22.4946
-23.2864
-24.2279
-25.2551
-26.238
-27.0413
-27.6124
-27.9753
-28.1857
-28.2977
-28.3518
-28.373
-28.8104
-28.6339
-28.3144
-27.8979
-27.4452
-27.0065
-26.6018
-26.2423
-25.9305
-25.6508
-25.3828
-25.1093
-24.8276
-24.5388
-24.245
-23.9617
-23.7047
-23.4765
-23.2784
-23.109
-22.9571
-22.809
-22.6546
-22.4931
-22.3268
-22.1579
-21.9964
-21.8505
-21.7165
-21.5856
-21.4501
-21.3092
-21.1642
-21.0164
-20.8736
-20.7436
-20.628
-20.5279
-20.4437
-20.3734
-20.3152
-20.269
-20.2385
-20.2287
-20.2434
-20.2852
-20.3572
-20.4673
-20.625
-20.8473
-21.1688
-21.6336
-22.2838
-23.1369
-24.1825
-25.3544
-26.4789
-27.3664
-27.9586
-28.3032
-28.4805
-28.5604
-28.5908
-28.5997
-29.1122
-28.9034
-28.5315
-28.0494
-27.5359
-27.0542
-26.6195
-26.2429
-25.9288
-25.6542
-25.3911
-25.1157
-24.8281
-24.5303
-24.221
-23.9226
-23.658
-23.4265
-23.2297
-23.0683
-22.9266
-22.787
-22.6352
-22.4729
-22.3036
-22.128
-21.9612
-21.816
-21.6858
-21.5583
-21.4221
-21.2777
-21.127
-20.9697
-20.8168
-20.6794
-20.5574
-20.4515
-20.3628
-20.2875
-20.2225
-20.167
-20.1257
-20.1046
-20.1081
-20.1374
-20.194
-20.2867
-20.423
-20.6185
-20.9156
-21.3706
-22.0421
-22.956
-24.1143
-25.4587
-26.7559
-27.7355
-28.3384
-28.6497
-28.7817
-28.8214
-28.8237
-28.8184
-29.4384
-29.1906
-28.7591
-28.2001
-27.6169
-27.0914
-26.626
-26.2321
-25.9201
-25.6554
-25.4012
-25.1241
-24.8303
-24.5243
-24.1961
-23.8792
-23.6075
-23.3725
-23.1768
-23.0258
-22.8972
-22.7682
-22.6185
-22.4547
-22.2826
-22.0979
-21.9235
-21.7802
-21.6561
-21.5339
-21.3967
-21.2486
-21.0926
-20.9243
-20.7598
-20.6152
-20.487
-20.3754
-20.2831
-20.2035
-20.1321
-20.0669
-20.0141
-19.9814
-19.9741
-19.9911
-20.0315
-20.1061
-20.2191
-20.3814
-20.645
-21.08
-21.7674
-22.739
-24.0157
-25.5671
-27.0778
-28.1562
-28.7543
-29.0135
-29.0864
-29.0778
-29.0478
-29.0266
-29.7912
-29.4956
-28.9977
-28.3482
-27.685
-27.117
-26.6205
-26.2084
-25.904
-25.6547
-25.4147
-25.1349
-24.8345
-24.5222
-24.1704
-23.8303
-23.5531
-23.3143
-23.1188
-22.9815
-22.8691
-22.7535
-22.6048
-22.4388
-22.2645
-22.0673
-21.8825
-21.7429
-21.6273
-21.5129
-21.3743
-21.2221
-21.0618
-20.8802
-20.702
-20.5512
-20.4168
-20.2995
-20.2046
-20.1217
-20.0446
-19.9692
-19.904
-19.8595
-19.842
-19.8472
-19.8703
-19.927
-20.016
-20.1379
-20.3579
-20.7605
-21.4578
-22.4812
-23.8763
-25.6774
-27.4567
-28.6376
-29.2078
-29.3922
-29.3914
-29.3267
-29.2607
-29.2223
-30.1732
-29.8178
-29.2487
-28.492
-27.7358
-27.1307
-26.6025
-26.1695
-25.8804
-25.6527
-25.4335
-25.1482
-24.8403
-24.5261
-24.1441
-23.774
-23.4953
-23.2522
-23.0545
-22.9353
-22.8427
-22.7444
-22.5944
-22.4248
-22.2506
-22.0363
-21.8364
-21.7036
-21.5996
-21.4966
-21.355
-21.198
-21.0355
-20.8376
-20.6426
-20.4875
-20.3472
-20.2235
-20.1279
-20.0427
-19.9607
-19.8742
-19.7957
-19.7388
-19.7122
-19.707
-19.7112
-19.7509
-19.8166
-19.8901
-20.0558
-20.4106
-21.1125
-22.1786
-23.6821
-25.7864
-27.909
-29.1899
-29.6998
-29.7825
-29.6927
-29.5649
-29.4602
-29.4036
-30.5874
-30.1555
-29.5146
-28.6294
-27.7637
-27.1332
-26.5721
-26.1125
-25.8492
-25.6496
-25.4606
-25.1641
-24.8467
-24.539
-24.1173
-23.7077
-23.435
-23.1865
-22.9823
-22.8875
-22.8183
-22.7429
-22.5871
-22.4121
-22.2428
-22.0046
-21.7832
-21.662
-21.573
-21.4862
-21.3386
-21.1757
-21.0151
-20.7965
-20.5802
-20.4245
-20.2783
-20.147
-20.053
-19.9667
-19.881
-19.7822
-19.6891
-19.6192
-19.585
-19.5715
-19.5541
-19.5788
-19.6249
-19.6404
-19.7408
-20.0281
-20.732
-21.829
-23.414
-25.8882
-28.457
-29.8242
-30.2292
-30.1796
-29.9862
-29.7897
-29.6445
-29.5692
-31.0379
-30.505
-29.7995
-28.7584
-27.761
-27.1267
-26.5302
-26.0333
-25.8114
-25.6452
-25.4999
-25.182
-24.8517
-24.5657
-24.0901
-23.6271
-23.3743
-23.1181
-22.8996
-22.8385
-22.7957
-22.7515
-22.5827
-22.3993
-22.244
-21.9722
-21.7197
-21.6182
-21.5473
-21.484
-21.3249
-21.1542
-21.003
-20.7568
-20.5131
-20.3631
-20.2105
-20.0691
-19.9804
-19.8939
-19.8065
-19.6935
-19.5842
-19.5004
-19.4609
-19.4425
-19.3986
-19.4116
-19.4452
-19.3909
-19.4158
-19.6099
-20.3184
-21.433
-23.046
-25.9738
-29.132
-30.552
-30.793
-30.5776
-30.2674
-29.9981
-29.8118
-29.7181
-31.5301
-30.8592
-30.1106
-28.8768
-27.7167
-27.1161
-26.4786
-25.926
-25.7687
-25.6387
-25.5572
-25.2006
-24.8515
-24.613
-24.0627
-23.5259
-23.3166
-23.0483
-22.8024
-22.7896
-22.7743
-22.774
-22.5801
-22.3839
-22.2585
-21.939
-21.6417
-21.5728
-21.5219
-21.4929
-21.3132
-21.1314
-21.0023
-20.7186
-20.4381
-20.3046
-20.1444
-19.9886
-19.9107
-19.8244
-19.7381
-19.6082
-19.481
-19.3816
-19.3397
-19.322
-19.2433
-19.2493
-19.2834
-19.1431
-19.0854
-19.1506
-19.876
-20.9965
-22.5432
-26.0295
-29.977
-31.3838
-31.385
-30.9694
-30.5317
-30.188
-29.9612
-29.8497
-32.0715
-31.2065
-30.459
-28.9823
-27.6157
-27.1095
-26.4202
-25.782
-25.725
-25.6275
-25.6409
-25.2177
-24.8398
-24.6908
-24.035
-23.3948
-23.2675
-22.9791
-22.6849
-22.743
-22.7523
-22.8158
-22.5779
-22.3618
-22.2927
-21.9049
-21.5432
-21.5275
-21.4953
-21.5171
-21.3023
-21.1041
-21.0178
-20.6817
-20.3511
-20.2513
-20.0808
-19.9035
-19.8449
-19.7579
-19.6773
-19.5264
-19.3793
-19.262
-19.2213
-19.2131
-19.0859
-19.0912
-19.1469
-18.8974
-18.7562
-18.6421
-19.411
-20.5338
-21.8589
-26.0347
-31.0516
-32.3274
-31.9954
-31.3466
-30.7746
-30.3573
-30.0919
-29.9638
-32.6723
-31.5279
-30.862
-29.0726
-27.4366
-27.1206
-26.3593
-25.5884
-25.6868
-25.6062
-25.7628
-25.2297
-24.8068
-24.8137
-24.0071
-23.2203
-23.2358
-22.9135
-22.5389
-22.703
-22.7262
-22.8846
-22.5738
-22.3266
-22.356
-21.8698
-21.4158
-21.4856
-21.4647
-21.563
-21.2903
-21.0674
-21.0566
-20.6459
-20.2457
-20.2072
-20.0205
-19.8107
-19.7846
-19.6937
-19.626
-19.4478
-19.2792
-19.1402
-19.1049
-19.1203
-18.9228
-18.9351
-19.0455
-18.6521
-18.4386
-18.0709
-18.9319
-20.071
-20.9309
-25.9592
-32.4382
-33.385
-32.6101
-31.7
-30.992
-30.5045
-30.2036
-30.0606
-33.3475
-31.7937
-31.3459
-29.1454
-27.1497
-27.17
-26.3017
-25.3271
-25.6658
-25.5651
-25.9397
-25.2316
-24.7378
-25.0025
-23.9786
-22.9831
-23.235
-22.8552
-22.352
-22.677
-22.6894
-22.9916
-22.5644
-22.2689
-22.4616
-21.8334
-21.248
-21.4533
-21.4251
-21.6394
-21.2745
-21.0138
-21.1286
-20.6108
-20.1132
-20.1778
-19.9649
-19.7058
-19.7327
-19.6304
-19.5865
-19.3718
-19.1809
-19.0147
-18.9892
-19.0501
-18.7484
-18.7774
-18.9927
-18.4017
-18.1481
-17.4168
-18.449
-19.652
-19.6777
-25.7602
-34.2495
-34.5487
-33.2103
-32.0204
-31.1806
-30.6288
-30.2966
-30.1404
-34.1181
-31.9598
-31.9491
-29.1987
-26.7137
-27.288
-26.2551
-24.9719
-25.6806
-25.488
-26.1956
-25.2164
-24.611
-25.2863
-23.9492
-22.6564
-23.2847
-22.8093
-22.1069
-22.677
-22.6311
-23.1524
-22.5448
-22.1747
-22.6284
-21.7952
-21.0242
-21.441
-21.3679
-21.7588
-21.251
-20.9326
-21.2483
-20.5756
-19.9415
-20.1719
-19.9153
-19.5826
-19.6933
-19.5652
-19.5624
-19.2973
-19.0849
-18.8833
-18.8717
-19.0121
-18.5551
-18.6117
-19.0068
-18.1354
-17.9081
-16.6497
-17.9732
-19.3444
-17.9932
-25.3771
-36.6388
-35.7943
-33.7728
-32.2988
-31.3377
-30.73
-30.3712
-30.2042
-35.0134
-31.9619
-32.7266
-29.23
-26.0723
-27.5184
-26.2288
-24.4862
-25.7606
-25.3485
-26.564
-25.1744
-24.3962
-25.7051
-23.9177
-22.203
-23.4128
-22.782
-21.7791
-22.7219
-22.534
-23.3888
-22.5087
-22.0243
-22.8823
-21.7541
-20.7229
-21.4648
-21.2791
-21.9388
-21.2147
-20.8084
-21.4351
-20.5392
-19.7138
-20.2019
-19.8735
-19.4323
-19.6731
-19.4937
-19.5587
-19.2221
-18.9922
-18.7436
-18.7482
-19.0194
-18.3327
-18.4284
-19.1131
-17.8338
-17.7539
-15.7267
-17.5145
-19.2485
-15.7411
-24.7268
-39.8117
-37.0738
-34.271
-32.5273
-31.4618
-30.8085
-30.4284
-30.2528
-36.0746
-31.7087
-33.7558
-29.2372
-25.1503
-27.9218
-26.2339
-23.8193
-25.9496
-25.1063
-27.0909
-25.0933
-24.0509
-26.3132
-23.8828
-21.5734
-23.6586
-22.7808
-21.3352
-22.8402
-22.3714
-23.7311
-22.4477
-21.7905
-23.2582
-21.7083
-20.3158
-21.5495
-21.1377
-22.2036
-21.1586
-20.6205
-21.7159
-20.4996
-19.408
-20.2851
-19.8411
-19.2429
-19.6819
-19.409
-19.582
-19.1432
-18.9047
-18.593
-18.6122
-19.0907
-18.0675
-18.2139
-19.3463
-17.4652
-17.7364
-14.5881
-17.0794
-19.5069
-12.7486
-23.6962
-44.0417
-38.304
-34.6765
-32.7002
-31.5528
-30.865
-30.4693
-30.2874
-37.3573
-31.074
-35.1425
-29.2174
-23.8478
-28.5806
-26.2833
-22.9029
-26.3122
-24.7017
-27.8389
-24.9571
-23.5182
-27.1825
-23.842
-20.7017
-24.075
-22.8144
-20.7297
-23.0741
-22.1039
-24.2204
-22.3509
-21.4369
-23.8027
-21.6548
-19.7653
-21.7308
-20.9118
-22.586
-21.0738
-20.3407
-22.1261
-20.4541
-18.9947
-20.4456
-19.8195
-18.9981
-19.7339
-19.3008
-19.6418
-19.0554
-18.8255
-18.4286
-18.454
-19.2508
-17.7422
-17.9483
-19.7542
-16.9811
-17.9287
-13.1533
-16.6672
-20.3158
-8.79958
-22.1345
-49.6875
-39.3537
-34.963
-32.8144
-31.6113
-30.9009
-30.4952
-30.3093
-38.9366
-29.8874
-37.0288
-29.1674
-22.0357
-29.6049
-26.3915
-21.6461
-26.9403
-24.0496
-28.8922
-24.7463
-22.7228
-28.4068
-23.7922
-19.5038
-24.734
-22.8939
-19.904
-23.4849
-21.6775
-24.914
-22.2053
-20.9139
-24.5757
-21.5902
-19.0261
-22.0636
-20.5596
-23.1338
-20.9502
-19.9321
-22.7125
-20.3993
-18.4375
-20.7167
-19.8106
-18.6764
-19.8488
-19.1538
-19.7508
-18.9519
-18.7597
-18.2484
-18.2599
-19.5329
-17.3346
-17.6049
-20.4014
-16.3107
-18.4334
-11.3166
-16.2662
-21.9386
-3.62758
-19.8439
-57.2129
-40.0274
-35.1109
-32.8703
-31.6396
-30.9182
-30.5076
-30.3198
)
;

boundaryField
{
    left
    {
        type            calculated;
        value           nonuniform List<scalar> 
32
(
-26.4237
-26.446
-26.4887
-26.5499
-26.6283
-26.723
-26.8331
-26.9584
-27.0986
-27.2539
-27.4246
-27.6111
-27.814
-28.0343
-28.273
-28.5312
-28.8104
-29.1122
-29.4384
-29.7912
-30.1732
-30.5874
-31.0379
-31.5301
-32.0715
-32.6723
-33.3475
-34.1181
-35.0134
-36.0746
-37.3573
-38.9366
)
;
    }
    right
    {
        type            calculated;
        value           nonuniform List<scalar> 
32
(
-25.7943
-25.829
-25.895
-25.9889
-26.1079
-26.2493
-26.4108
-26.5901
-26.7849
-26.9928
-27.2115
-27.4383
-27.6706
-27.9057
-28.1407
-28.373
-28.5997
-28.8184
-29.0266
-29.2223
-29.4036
-29.5692
-29.7181
-29.8497
-29.9638
-30.0606
-30.1404
-30.2042
-30.2528
-30.2874
-30.3093
-30.3198
)
;
    }
    interface
    {
        type            calculated;
        value           nonuniform List<scalar> 
64
(
-39.8112
-29.1316
-38.1173
-29.1344
-20.9841
-30.2241
-26.4624
-20.9198
-27.3341
-23.6493
-29.5072
-24.6195
-22.2487
-29.1208
-23.7646
-18.8115
-25.1345
-22.9468
-19.428
-23.7438
-21.4168
-25.3202
-22.1185
-20.6031
-25.0277
-21.5547
-18.6034
-22.2762
-20.3461
-23.4562
-20.8775
-19.6906
-23.0565
-20.3692
-18.1178
-20.8848
-19.8097
-18.4933
-19.9249
-19.0683
-19.8194
-18.8953
-18.7311
-18.1543
-18.1519
-19.7092
-17.1072
-17.4098
-20.7942
-15.9184
-18.7788
-10.2828
-16.0661
-22.991
-0.699153
-18.4883
-61.5108
-40.2413
-35.1484
-32.884
-31.6465
-30.9225
-30.5107
-30.3224
)
;
    }
    bottom
    {
        type            calculated;
        value           nonuniform List<scalar> 
64
(
-26.4179
-26.3904
-26.3364
-26.2572
-26.1549
-26.0321
-25.8914
-25.7357
-25.5677
-25.39
-25.205
-25.0147
-24.8213
-24.6262
-24.4312
-24.2373
-24.0459
-23.8578
-23.6737
-23.4943
-23.32
-23.1511
-22.988
-22.8308
-22.6798
-22.5353
-22.3975
-22.2667
-22.1434
-22.0281
-21.9212
-21.8235
-21.7357
-21.6585
-21.593
-21.5402
-21.5011
-21.477
-21.469
-21.4784
-21.5065
-21.5545
-21.6236
-21.715
-21.8295
-21.968
-22.1308
-22.3178
-22.5283
-22.7608
-23.0131
-23.2819
-23.5628
-23.8506
-24.1394
-24.4227
-24.6937
-24.9458
-25.1732
-25.3704
-25.5332
-25.6581
-25.7427
-25.7853
)
;
    }
    defaultFaces
    {
        type            empty;
    }
}


// ************************************************************************* //
