/*--------------------------------*- C++ -*----------------------------------*\
| =========                 |                                                 |
| \\      /  F ield         | OpenFOAM: The Open Source CFD Toolbox           |
|  \\    /   O peration     | Version:  5.x                                   |
|   \\  /    A nd           | Web:      www.OpenFOAM.org                      |
|    \\/     M anipulation  |                                                 |
\*---------------------------------------------------------------------------*/
FoamFile
{
    version     2.0;
    format      ascii;
    class       volScalarField;
    location    "8.1";
    object      gradTy;
}
// * * * * * * * * * * * * * * * * * * * * * * * * * * * * * * * * * * * * * //

dimensions      [0 -1 0 1 0 0 0];

internalField   nonuniform List<scalar> 
2048
(
-26.4236
-26.3961
-26.3417
-26.262
-26.1592
-26.0358
-25.8946
-25.7383
-25.5697
-25.3915
-25.206
-25.0154
-24.8215
-24.6262
-24.4308
-24.2368
-24.0452
-23.8569
-23.6727
-23.4931
-23.3188
-23.1498
-22.9866
-22.8294
-22.6783
-22.5338
-22.3959
-22.2651
-22.1417
-22.0262
-21.9192
-21.8214
-21.7333
-21.656
-21.5903
-21.5372
-21.4979
-21.4735
-21.4653
-21.4745
-21.5023
-21.55
-21.6189
-21.7101
-21.8245
-21.9629
-22.1257
-22.3128
-22.5236
-22.7567
-23.0097
-23.2793
-23.5613
-23.8504
-24.1406
-24.4253
-24.6976
-24.9511
-25.1796
-25.3778
-25.5412
-25.6666
-25.7515
-25.7944
-26.446
-26.4177
-26.3621
-26.2808
-26.1759
-26.0503
-25.9067
-25.7482
-25.5775
-25.3974
-25.2102
-25.018
-24.8228
-24.6262
-24.4298
-24.2348
-24.0425
-23.8536
-23.6689
-23.489
-23.3143
-23.1452
-22.9818
-22.8244
-22.6731
-22.5283
-22.3902
-22.259
-22.1353
-22.0194
-21.9119
-21.8134
-21.7247
-21.6466
-21.58
-21.5261
-21.4858
-21.4605
-21.4512
-21.4594
-21.4862
-21.5329
-21.6009
-21.6912
-21.8051
-21.9431
-22.106
-22.2937
-22.5056
-22.7406
-22.9962
-23.2693
-23.5556
-23.8496
-24.1451
-24.4352
-24.7129
-24.9713
-25.2041
-25.4058
-25.572
-25.6994
-25.7856
-25.829
-26.4887
-26.4592
-26.4011
-26.3164
-26.2076
-26.0776
-25.9297
-25.7669
-25.5922
-25.4084
-25.2179
-25.0228
-24.8249
-24.6261
-24.4277
-24.231
-24.0372
-23.8472
-23.6616
-23.4811
-23.3059
-23.1364
-22.9727
-22.8149
-22.6633
-22.518
-22.3794
-22.2477
-22.1232
-22.0065
-21.898
-21.7984
-21.7084
-21.6288
-21.5607
-21.5051
-21.463
-21.4358
-21.4246
-21.4308
-21.4556
-21.5005
-21.5667
-21.6555
-21.7681
-21.9055
-22.0684
-22.257
-22.4711
-22.7095
-22.9701
-23.2498
-23.5442
-23.8476
-24.1534
-24.4541
-24.7422
-25.01
-25.2511
-25.4595
-25.6309
-25.762
-25.8504
-25.895
-26.5499
-26.5185
-26.4569
-26.3672
-26.2526
-26.1162
-25.9619
-25.793
-25.6126
-25.4236
-25.2285
-25.0292
-24.8277
-24.6257
-24.4245
-24.2254
-24.0296
-23.838
-23.6513
-23.4698
-23.294
-23.1239
-22.9598
-22.8016
-22.6495
-22.5037
-22.3643
-22.2318
-22.1063
-21.9884
-21.8786
-21.7773
-21.6855
-21.6039
-21.5336
-21.4755
-21.431
-21.4011
-21.3872
-21.3905
-21.4126
-21.4547
-21.5183
-21.6049
-21.7157
-21.8519
-22.0146
-22.2044
-22.4212
-22.6643
-22.932
-23.2211
-23.5271
-23.8442
-24.1649
-24.481
-24.784
-25.0656
-25.3185
-25.5365
-25.7151
-25.8512
-25.9429
-25.9889
-26.6283
-26.5944
-26.5279
-26.4317
-26.3092
-26.1646
-26.0019
-25.8251
-25.6375
-25.4421
-25.2412
-25.0368
-24.8308
-24.6247
-24.42
-24.218
-24.0197
-23.8262
-23.638
-23.4555
-23.2789
-23.1083
-22.9437
-22.785
-22.6323
-22.4858
-22.3456
-22.212
-22.0854
-21.9661
-21.8545
-21.7513
-21.6572
-21.573
-21.4999
-21.4388
-21.391
-21.3578
-21.3404
-21.3402
-21.3587
-21.3973
-21.4576
-21.5411
-21.6494
-21.7839
-21.9461
-22.1369
-22.3569
-22.6057
-22.882
-23.1829
-23.5039
-23.8385
-24.1787
-24.5151
-24.8376
-25.137
-25.4049
-25.6349
-25.8225
-25.9647
-26.0601
-26.1079
-26.7229
-26.6857
-26.6131
-26.5085
-26.3762
-26.2213
-26.0485
-25.8621
-25.666
-25.4629
-25.2553
-25.0451
-24.8338
-24.623
-24.4142
-24.2087
-24.0076
-23.8118
-23.6219
-23.4383
-23.261
-23.0899
-22.9248
-22.7656
-22.6123
-22.465
-22.3239
-22.1892
-22.0611
-21.9402
-21.8266
-21.7211
-21.6243
-21.5371
-21.4606
-21.3959
-21.3444
-21.3072
-21.2857
-21.2813
-21.2956
-21.3299
-21.3861
-21.4657
-21.5708
-21.7029
-21.864
-22.0556
-22.2787
-22.5338
-22.8199
-23.1348
-23.4738
-23.83
-24.1942
-24.5555
-24.9023
-25.2234
-25.5095
-25.7536
-25.9513
-26.1003
-26.1997
-26.2493
-26.8331
-26.7918
-26.7115
-26.5965
-26.4523
-26.2849
-26.1001
-25.9027
-25.6968
-25.4852
-25.2702
-25.0535
-24.8364
-24.6204
-24.407
-24.1975
-23.9931
-23.7949
-23.6033
-23.4186
-23.2407
-23.0691
-22.9037
-22.744
-22.59
-22.4419
-22.2997
-22.1637
-22.0342
-21.9115
-21.7958
-21.6876
-21.5878
-21.4971
-21.4168
-21.348
-21.2921
-21.2504
-21.2243
-21.2152
-21.2245
-21.2539
-21.3052
-21.3803
-21.4812
-21.6102
-21.7695
-21.9611
-22.1871
-22.4485
-22.7455
-23.0761
-23.4359
-23.8176
-24.2106
-24.6019
-24.9777
-25.3246
-25.6317
-25.8917
-26.1003
-26.2562
-26.3595
-26.4108
-26.9584
-26.912
-26.8223
-26.6947
-26.5363
-26.3543
-26.1556
-25.9458
-25.729
-25.5083
-25.2854
-25.0617
-24.8383
-24.6167
-24.3981
-24.1842
-23.9763
-23.7755
-23.5822
-23.3965
-23.2181
-23.0463
-22.8806
-22.7205
-22.5659
-22.4168
-22.2736
-22.1363
-22.0052
-21.8806
-21.7626
-21.6516
-21.5483
-21.4538
-21.3693
-21.296
-21.2353
-21.1887
-21.1574
-21.143
-21.1468
-21.1707
-21.2164
-21.2861
-21.382
-21.5069
-21.6633
-21.8542
-22.0824
-22.3499
-22.658
-23.0058
-23.3892
-23.8003
-24.227
-24.6539
-25.0637
-25.4405
-25.7714
-26.0484
-26.2683
-26.4307
-26.5374
-26.5901
-27.0986
-27.0461
-26.945
-26.8024
-26.627
-26.428
-26.2136
-25.99
-25.7617
-25.5313
-25.3002
-25.0693
-24.8395
-24.6117
-24.3877
-24.1689
-23.9572
-23.7535
-23.5586
-23.3722
-23.1936
-23.0219
-22.8561
-22.6957
-22.5404
-22.3904
-22.2459
-22.1073
-21.9747
-21.8481
-21.7277
-21.6137
-21.5068
-21.4081
-21.3189
-21.2406
-21.1748
-21.1228
-21.086
-21.0658
-21.0637
-21.0814
-21.1208
-21.1843
-21.2744
-21.3941
-21.5466
-21.7356
-21.9648
-22.2377
-22.557
-22.9229
-23.3323
-23.7769
-24.2427
-24.711
-25.1606
-25.5715
-25.9286
-26.2236
-26.4542
-26.6223
-26.7314
-26.7849
-27.254
-27.194
-27.0791
-26.9185
-26.7233
-26.5048
-26.2727
-26.0342
-25.7937
-25.5535
-25.3144
-25.0763
-24.8397
-24.6056
-24.3755
-24.1515
-23.9356
-23.7291
-23.5326
-23.3457
-23.1674
-22.9961
-22.8305
-22.6698
-22.5138
-22.3628
-22.2171
-22.0771
-21.943
-21.8146
-21.6917
-21.5745
-21.4638
-21.3605
-21.2662
-21.1826
-21.1112
-21.0536
-21.011
-20.9847
-20.9762
-20.9872
-21.0197
-21.0762
-21.1595
-21.273
-21.4203
-21.6059
-21.8346
-22.1117
-22.4415
-22.8262
-23.2638
-23.7459
-24.2567
-24.7733
-25.2689
-25.7185
-26.1041
-26.4172
-26.6574
-26.8293
-26.9394
-26.9929
-27.4246
-27.3556
-27.2243
-27.0424
-26.824
-26.5833
-26.3317
-26.0772
-25.8243
-25.5745
-25.3275
-25.0824
-24.839
-24.5981
-24.3616
-24.1318
-23.9114
-23.702
-23.5042
-23.3173
-23.1397
-22.9692
-22.8042
-22.6434
-22.4866
-22.3344
-22.1874
-22.0461
-21.9106
-21.7805
-21.6552
-21.5347
-21.4198
-21.3116
-21.2119
-21.1226
-21.0454
-20.9819
-20.9332
-20.9006
-20.8854
-20.8892
-20.9142
-20.9629
-21.0386
-21.1446
-21.2853
-21.4658
-21.6924
-21.9717
-22.3108
-22.7142
-23.1818
-23.7058
-24.268
-24.8405
-25.3895
-25.8827
-26.2986
-26.6291
-26.8768
-27.0502
-27.1592
-27.2115
-27.6111
-27.5313
-27.3802
-27.1731
-26.928
-26.6621
-26.3891
-26.1178
-25.8525
-25.5936
-25.3393
-25.0876
-24.8375
-24.5896
-24.346
-24.1099
-23.8846
-23.6722
-23.4734
-23.287
-23.1108
-22.9418
-22.7775
-22.6167
-22.4591
-22.3055
-22.157
-22.0145
-21.8779
-21.7462
-21.6186
-21.4948
-21.3755
-21.262
-21.1565
-21.0611
-20.9779
-20.9082
-20.8534
-20.8142
-20.792
-20.7882
-20.8051
-20.8455
-20.9126
-21.0101
-21.1428
-21.3164
-21.5384
-21.8178
-22.164
-22.5854
-23.0845
-23.6545
-24.2753
-24.9129
-25.5235
-26.0657
-26.5135
-26.8597
-27.1117
-27.2833
-27.3885
-27.4383
-27.8141
-27.7212
-27.5467
-27.3099
-27.0337
-26.7397
-26.4435
-26.1548
-25.8774
-25.6104
-25.3499
-25.0922
-24.8354
-24.5801
-24.3287
-24.0856
-23.855
-23.6396
-23.44
-23.2548
-23.0809
-22.914
-22.751
-22.5902
-22.4316
-22.2762
-22.1261
-21.9825
-21.845
-21.7122
-21.5824
-21.4553
-21.3313
-21.2121
-21.1003
-20.9986
-20.9091
-20.8332
-20.7721
-20.7264
-20.697
-20.6853
-20.6936
-20.7249
-20.7826
-20.8706
-20.9938
-21.1586
-21.3736
-21.6498
-22.0006
-22.4383
-22.9697
-23.5898
-24.2771
-24.9903
-25.6727
-26.2699
-26.7502
-27.1094
-27.3613
-27.5267
-27.6251
-27.6706
-28.0344
-27.9258
-27.7235
-27.4517
-27.14
-26.8146
-26.4934
-26.1869
-25.8985
-25.6247
-25.3593
-25.0962
-24.8329
-24.5698
-24.3099
-24.0588
-23.8224
-23.6039
-23.404
-23.221
-23.0503
-22.8864
-22.725
-22.5642
-22.4043
-22.2468
-22.0948
-21.9501
-21.8123
-21.6787
-21.5471
-21.4165
-21.2877
-21.1623
-21.0438
-20.9354
-20.8394
-20.7574
-20.6901
-20.6379
-20.6011
-20.5812
-20.5805
-20.6022
-20.6498
-20.7273
-20.8395
-20.9934
-21.1986
-21.4682
-21.8197
-22.2712
-22.8349
-23.5091
-24.2716
-25.0731
-25.8394
-26.498
-27.0108
-27.3784
-27.6243
-27.7784
-27.8662
-27.9057
-28.273
-28.1458
-27.9104
-27.5978
-27.2452
-26.8851
-26.5374
-26.2131
-25.9147
-25.6363
-25.3676
-25.1001
-24.8305
-24.5592
-24.2896
-24.0294
-23.7867
-23.565
-23.3653
-23.1854
-23.0192
-22.8594
-22.7
-22.5391
-22.3775
-22.2173
-22.0629
-21.9174
-21.7799
-21.6463
-21.513
-21.379
-21.245
-21.1129
-20.987
-20.8717
-20.7692
-20.681
-20.6077
-20.5491
-20.5051
-20.4767
-20.4665
-20.4781
-20.5151
-20.5812
-20.6812
-20.8222
-21.0146
-21.2734
-21.621
-22.0824
-22.6774
-23.4092
-24.2563
-25.1614
-26.0266
-26.7537
-27.2974
-27.667
-27.8997
-28.0362
-28.1094
-28.1408
-28.5312
-28.3816
-28.1074
-27.7469
-27.3476
-26.9496
-26.5741
-26.232
-25.9257
-25.645
-25.3753
-25.1043
-24.8286
-24.5487
-24.2679
-23.9971
-23.7475
-23.5227
-23.3235
-23.1481
-22.9881
-22.8334
-22.6764
-22.5154
-22.3516
-22.1877
-22.0302
-21.8843
-21.7479
-21.6151
-21.4806
-21.3432
-21.2038
-21.0643
-20.9303
-20.8077
-20.6987
-20.6044
-20.5255
-20.4608
-20.4096
-20.3725
-20.3523
-20.3534
-20.3794
-20.4335
-20.52
-20.6464
-20.8228
-21.0661
-21.4041
-21.8704
-22.4947
-23.2865
-24.228
-25.2552
-26.2381
-27.0414
-27.6124
-27.9754
-28.1857
-28.2977
-28.3518
-28.373
-28.8104
-28.6339
-28.3145
-27.8979
-27.4452
-27.0065
-26.6019
-26.2424
-25.9306
-25.6509
-25.3829
-25.1094
-24.8277
-24.5389
-24.245
-23.9617
-23.7047
-23.4766
-23.2785
-23.1091
-22.9571
-22.8091
-22.6546
-22.4932
-22.3269
-22.158
-21.9965
-21.8506
-21.7166
-21.5857
-21.4502
-21.3093
-21.1643
-21.0165
-20.8736
-20.7436
-20.628
-20.5279
-20.4438
-20.3735
-20.3152
-20.2691
-20.2386
-20.2287
-20.2435
-20.2852
-20.3573
-20.4674
-20.6251
-20.8474
-21.1689
-21.6337
-22.2839
-23.137
-24.1826
-25.3545
-26.479
-27.3665
-27.9586
-28.3032
-28.4805
-28.5604
-28.5909
-28.5998
-29.1122
-28.9035
-28.5316
-28.0495
-27.5359
-27.0543
-26.6196
-26.243
-25.9289
-25.6543
-25.3912
-25.1158
-24.8281
-24.5304
-24.2211
-23.9227
-23.6581
-23.4266
-23.2298
-23.0684
-22.9267
-22.7871
-22.6352
-22.4729
-22.3037
-22.1281
-21.9612
-21.8161
-21.6859
-21.5585
-21.4222
-21.2778
-21.1271
-20.9698
-20.8169
-20.6794
-20.5574
-20.4516
-20.3629
-20.2876
-20.2225
-20.1671
-20.1257
-20.1046
-20.1082
-20.1375
-20.1941
-20.2868
-20.4231
-20.6186
-20.9157
-21.3707
-22.0422
-22.9561
-24.1144
-25.4588
-26.7559
-27.7355
-28.3385
-28.6498
-28.7817
-28.8214
-28.8237
-28.8185
-29.4385
-29.1907
-28.7591
-28.2002
-27.617
-27.0914
-26.6261
-26.2322
-25.9202
-25.6555
-25.4013
-25.1242
-24.8304
-24.5244
-24.1962
-23.8793
-23.6076
-23.3726
-23.1768
-23.0258
-22.8972
-22.7682
-22.6186
-22.4548
-22.2827
-22.098
-21.9236
-21.7803
-21.6562
-21.534
-21.3969
-21.2487
-21.0928
-20.9244
-20.7599
-20.6153
-20.487
-20.3755
-20.2831
-20.2035
-20.1321
-20.067
-20.0141
-19.9815
-19.9742
-19.9912
-20.0316
-20.1062
-20.2192
-20.3815
-20.6451
-21.0801
-21.7675
-22.7391
-24.0158
-25.5672
-27.0779
-28.1563
-28.7543
-29.0136
-29.0865
-29.0779
-29.0479
-29.0267
-29.7913
-29.4957
-28.9978
-28.3483
-27.6851
-27.1171
-26.6206
-26.2085
-25.9041
-25.6548
-25.4148
-25.135
-24.8346
-24.5223
-24.1705
-23.8303
-23.5532
-23.3144
-23.1188
-22.9815
-22.8691
-22.7536
-22.6049
-22.4389
-22.2646
-22.0674
-21.8825
-21.7429
-21.6274
-21.5131
-21.3745
-21.2222
-21.0619
-20.8803
-20.702
-20.5513
-20.4169
-20.2996
-20.2047
-20.1218
-20.0447
-19.9692
-19.9041
-19.8595
-19.8421
-19.8473
-19.8705
-19.9272
-20.0161
-20.138
-20.3581
-20.7607
-21.4579
-22.4813
-23.8764
-25.6775
-27.4568
-28.6377
-29.2079
-29.3923
-29.3914
-29.3268
-29.2608
-29.2223
-30.1732
-29.8179
-29.2488
-28.492
-27.7359
-27.1308
-26.6026
-26.1696
-25.8805
-25.6528
-25.4336
-25.1483
-24.8404
-24.5262
-24.1442
-23.7741
-23.4954
-23.2523
-23.0546
-22.9353
-22.8427
-22.7445
-22.5945
-22.425
-22.2507
-22.0364
-21.8365
-21.7036
-21.5996
-21.4967
-21.3551
-21.1981
-21.0356
-20.8377
-20.6426
-20.4875
-20.3472
-20.2236
-20.1279
-20.0428
-19.9607
-19.8742
-19.7957
-19.7389
-19.7122
-19.7071
-19.7113
-19.751
-19.8168
-19.8902
-20.0559
-20.4107
-21.1126
-22.1787
-23.6822
-25.7865
-27.909
-29.19
-29.6998
-29.7825
-29.6928
-29.565
-29.4603
-29.4037
-30.5875
-30.1556
-29.5146
-28.6295
-27.7638
-27.1333
-26.5722
-26.1126
-25.8493
-25.6497
-25.4607
-25.1643
-24.8468
-24.5391
-24.1174
-23.7078
-23.4351
-23.1866
-22.9823
-22.8875
-22.8182
-22.7429
-22.5872
-22.4123
-22.243
-22.0047
-21.7832
-21.662
-21.573
-21.4863
-21.3387
-21.1759
-21.0153
-20.7965
-20.5803
-20.4245
-20.2783
-20.147
-20.053
-19.9667
-19.8811
-19.7822
-19.6891
-19.6193
-19.5851
-19.5717
-19.5542
-19.579
-19.625
-19.6405
-19.7409
-20.0282
-20.7321
-21.8291
-23.414
-25.8883
-28.4571
-29.8243
-30.2293
-30.1797
-29.9863
-29.7897
-29.6445
-29.5693
-31.038
-30.505
-29.7996
-28.7585
-27.7611
-27.1268
-26.5303
-26.0334
-25.8115
-25.6453
-25.5
-25.1822
-24.8519
-24.5658
-24.0902
-23.6271
-23.3744
-23.1181
-22.8995
-22.8384
-22.7956
-22.7514
-22.5827
-22.3994
-22.2442
-21.9723
-21.7197
-21.6181
-21.5472
-21.484
-21.3249
-21.1543
-21.0031
-20.7569
-20.5131
-20.3631
-20.2106
-20.0692
-19.9805
-19.8939
-19.8065
-19.6935
-19.5842
-19.5004
-19.4609
-19.4426
-19.3987
-19.4117
-19.4453
-19.391
-19.4159
-19.61
-20.3185
-21.4331
-23.0461
-25.9739
-29.1321
-30.5521
-30.7931
-30.5777
-30.2675
-29.9982
-29.8119
-29.7182
-31.5302
-30.8593
-30.1107
-28.8769
-27.7168
-27.1162
-26.4787
-25.9261
-25.7688
-25.6388
-25.5573
-25.2008
-24.8516
-24.6131
-24.0628
-23.5259
-23.3166
-23.0483
-22.8023
-22.7894
-22.7741
-22.7739
-22.5801
-22.384
-22.2587
-21.9391
-21.6416
-21.5726
-21.5216
-21.4927
-21.3131
-21.1314
-21.0024
-20.7186
-20.4381
-20.3045
-20.1445
-19.9887
-19.9108
-19.8244
-19.7382
-19.6083
-19.481
-19.3816
-19.3398
-19.3221
-19.2434
-19.2495
-19.2835
-19.1432
-19.0855
-19.1508
-19.8761
-20.9966
-22.5433
-26.0296
-29.9771
-31.3839
-31.3851
-30.9695
-30.5318
-30.1881
-29.9613
-29.8498
-32.0715
-31.2066
-30.459
-28.9824
-27.6158
-27.1097
-26.4203
-25.7821
-25.7251
-25.6276
-25.641
-25.2178
-24.8399
-24.6909
-24.0351
-23.3948
-23.2675
-22.979
-22.6848
-22.7427
-22.7521
-22.8156
-22.5778
-22.3619
-22.2928
-21.9049
-21.543
-21.5271
-21.4949
-21.5168
-21.3021
-21.1041
-21.0178
-20.6817
-20.351
-20.2513
-20.0808
-19.9035
-19.845
-19.758
-19.6774
-19.5265
-19.3793
-19.262
-19.2213
-19.2132
-19.0861
-19.0913
-19.147
-18.8975
-18.7564
-18.6422
-19.4111
-20.5339
-21.859
-26.0348
-31.0517
-32.3275
-31.9955
-31.3467
-30.7747
-30.3574
-30.092
-29.9639
-32.6723
-31.5279
-30.8621
-29.0727
-27.4367
-27.1207
-26.3594
-25.5885
-25.6869
-25.6063
-25.7629
-25.2298
-24.8069
-24.8138
-24.0071
-23.2203
-23.2358
-22.9133
-22.5387
-22.7027
-22.7259
-22.8845
-22.5737
-22.3267
-22.356
-21.8698
-21.4156
-21.4851
-21.4642
-21.5626
-21.29
-21.0674
-21.0566
-20.6459
-20.2456
-20.2071
-20.0205
-19.8107
-19.7847
-19.6938
-19.626
-19.4479
-19.2793
-19.1402
-19.105
-19.1203
-18.9229
-18.9353
-19.0457
-18.6522
-18.4387
-18.071
-18.932
-20.0711
-20.931
-25.9593
-32.4383
-33.3851
-32.6102
-31.7001
-30.9921
-30.5046
-30.2037
-30.0606
-33.3475
-31.7937
-31.346
-29.1455
-27.1498
-27.17
-26.3019
-25.3272
-25.6659
-25.5652
-25.9398
-25.2317
-24.7378
-25.0026
-23.9787
-22.9831
-23.2349
-22.855
-22.3518
-22.6766
-22.6891
-22.9914
-22.5641
-22.2688
-22.4616
-21.8334
-21.2479
-21.4529
-21.4245
-21.639
-21.274
-21.0137
-21.1286
-20.6108
-20.1132
-20.1778
-19.9648
-19.7058
-19.7327
-19.6305
-19.5865
-19.3719
-19.1809
-19.0146
-18.9892
-19.0502
-18.7485
-18.7775
-18.9928
-18.4018
-18.1482
-17.4168
-18.4491
-19.652
-19.6778
-25.7602
-34.2496
-34.5487
-33.2103
-32.0205
-31.1806
-30.6289
-30.2967
-30.1405
-34.1181
-31.9598
-31.9491
-29.1987
-26.7137
-27.2881
-26.2552
-24.972
-25.6807
-25.4881
-26.1957
-25.2165
-24.6111
-25.2863
-23.9492
-22.6564
-23.2846
-22.8092
-22.1068
-22.6767
-22.631
-23.1523
-22.5446
-22.1745
-22.6283
-21.7952
-21.0242
-21.4407
-21.3674
-21.7584
-21.2505
-20.9324
-21.2482
-20.5756
-19.9414
-20.1719
-19.9153
-19.5826
-19.6933
-19.5652
-19.5624
-19.2973
-19.0849
-18.8832
-18.8717
-19.0121
-18.5552
-18.6118
-19.0069
-18.1355
-17.9082
-16.6497
-17.9733
-19.3445
-17.9933
-25.3771
-36.6387
-35.7944
-33.7728
-32.2988
-31.3377
-30.7301
-30.3713
-30.2042
-35.0135
-31.9619
-32.7266
-29.23
-26.0723
-27.5184
-26.2288
-24.4862
-25.7606
-25.3485
-26.564
-25.1745
-24.3962
-25.7052
-23.9177
-22.203
-23.4128
-22.7819
-21.7792
-22.7219
-22.5341
-23.389
-22.5085
-22.0239
-22.8819
-21.7541
-20.7233
-21.4651
-21.279
-21.9387
-21.2143
-20.8082
-21.435
-20.5392
-19.7139
-20.202
-19.8736
-19.4322
-19.673
-19.4936
-19.5586
-19.2222
-18.9922
-18.7436
-18.7481
-19.0194
-18.3326
-18.4284
-19.1131
-17.8338
-17.7538
-15.7267
-17.5145
-19.2486
-15.7411
-24.7267
-39.8116
-37.0737
-34.2709
-32.5273
-31.4618
-30.8084
-30.4284
-30.2527
-36.0746
-31.7086
-33.7557
-29.237
-25.1501
-27.9217
-26.2338
-23.8193
-25.9496
-25.1062
-27.0909
-25.0934
-24.0509
-26.3133
-23.8828
-21.5734
-23.6587
-22.7809
-21.3357
-22.8409
-22.3721
-23.7318
-22.4477
-21.79
-23.2576
-21.7084
-20.3169
-21.5506
-21.1384
-22.2041
-21.1585
-20.6204
-21.7157
-20.4997
-19.4082
-20.2854
-19.8413
-19.2427
-19.6817
-19.4088
-19.5818
-19.1432
-18.9048
-18.5931
-18.6121
-19.0905
-18.0672
-18.2137
-19.3462
-17.4651
-17.7362
-14.588
-17.0793
-19.5068
-12.7486
-23.696
-44.0415
-38.3037
-34.6763
-32.7
-31.5525
-30.8647
-30.4691
-30.2872
-37.3573
-31.074
-35.1423
-29.2172
-23.8475
-28.5803
-26.283
-22.9028
-26.3121
-24.7016
-27.8388
-24.9572
-23.5182
-27.1826
-23.842
-20.7018
-24.0754
-22.8149
-20.7309
-23.0757
-22.1058
-24.2221
-22.3513
-21.436
-23.8017
-21.6551
-19.7674
-21.7335
-20.914
-22.5877
-21.0744
-20.3407
-22.126
-20.4544
-18.9953
-20.4462
-19.8199
-18.9979
-19.7334
-19.3003
-19.6413
-19.0553
-18.8256
-18.4288
-18.4539
-19.2504
-17.7416
-17.9479
-19.7538
-16.9808
-17.9284
-13.153
-16.667
-20.3156
-8.79947
-22.1341
-49.6869
-39.3532
-34.9625
-32.8139
-31.6108
-30.9004
-30.4947
-30.3088
-38.9366
-29.8872
-37.0286
-29.167
-22.035
-29.6042
-26.391
-21.6455
-26.9398
-24.049
-28.8916
-24.7461
-22.7227
-28.4068
-23.7918
-19.5028
-24.7336
-22.8936
-19.9038
-23.4853
-21.6778
-24.9138
-22.2053
-20.9138
-24.5756
-21.5897
-19.0252
-22.0635
-20.5593
-23.1326
-20.9499
-19.9321
-22.7122
-20.399
-18.437
-20.7163
-19.8104
-18.6765
-19.8484
-19.1534
-19.7505
-18.9515
-18.7592
-18.2478
-18.2595
-19.5327
-17.3341
-17.6042
-20.4005
-16.3098
-18.4326
-11.3157
-16.2657
-21.9382
-3.62723
-19.8433
-57.2121
-40.0267
-35.1101
-32.8696
-31.6389
-30.9175
-30.5069
-30.3192
)
;

boundaryField
{
    left
    {
        type            calculated;
        value           nonuniform List<scalar> 
32
(
-26.4236
-26.446
-26.4887
-26.5499
-26.6283
-26.7229
-26.8331
-26.9584
-27.0986
-27.254
-27.4246
-27.6111
-27.8141
-28.0344
-28.273
-28.5312
-28.8104
-29.1122
-29.4385
-29.7913
-30.1732
-30.5875
-31.038
-31.5302
-32.0715
-32.6723
-33.3475
-34.1181
-35.0135
-36.0746
-37.3573
-38.9366
)
;
    }
    right
    {
        type            calculated;
        value           nonuniform List<scalar> 
32
(
-25.7944
-25.829
-25.895
-25.9889
-26.1079
-26.2493
-26.4108
-26.5901
-26.7849
-26.9929
-27.2115
-27.4383
-27.6706
-27.9057
-28.1408
-28.373
-28.5998
-28.8185
-29.0267
-29.2223
-29.4037
-29.5693
-29.7182
-29.8498
-29.9639
-30.0606
-30.1405
-30.2042
-30.2527
-30.2872
-30.3088
-30.3192
)
;
    }
    interface
    {
        type            calculated;
        value           nonuniform List<scalar> 
64
(
-39.8111
-29.1315
-38.117
-29.1338
-20.9832
-30.2232
-26.4616
-20.9188
-27.3333
-23.6482
-29.5062
-24.6191
-22.2486
-29.1209
-23.7638
-18.8095
-25.1331
-22.9453
-19.426
-23.7423
-21.415
-25.3176
-22.1178
-20.6038
-25.0286
-21.5533
-18.5988
-22.2724
-20.3424
-23.4514
-20.8758
-19.6902
-23.0559
-20.3683
-18.1162
-20.8831
-19.8086
-18.4936
-19.9247
-19.0682
-19.8194
-18.8945
-18.7299
-18.1528
-18.1512
-19.7092
-17.1069
-17.4091
-20.7929
-15.9171
-18.7776
-10.2816
-16.0654
-22.9905
-0.69862
-18.4877
-61.51
-40.2405
-35.1476
-32.8832
-31.6457
-30.9217
-30.5099
-30.3218
)
;
    }
    bottom
    {
        type            calculated;
        value           nonuniform List<scalar> 
64
(
-26.4178
-26.3904
-26.3364
-26.2571
-26.1549
-26.032
-25.8914
-25.7357
-25.5677
-25.39
-25.2049
-25.0147
-24.8212
-24.6262
-24.4311
-24.2373
-24.0459
-23.8577
-23.6737
-23.4942
-23.3199
-23.151
-22.9879
-22.8307
-22.6797
-22.5352
-22.3974
-22.2666
-22.1434
-22.028
-21.9212
-21.8234
-21.7356
-21.6584
-21.593
-21.5401
-21.5011
-21.477
-21.469
-21.4784
-21.5065
-21.5545
-21.6236
-21.715
-21.8295
-21.968
-22.1308
-22.3178
-22.5283
-22.7609
-23.0131
-23.2819
-23.5628
-23.8506
-24.1394
-24.4227
-24.6937
-24.9459
-25.1732
-25.3705
-25.5332
-25.6581
-25.7427
-25.7853
)
;
    }
    defaultFaces
    {
        type            empty;
    }
}


// ************************************************************************* //
