/*--------------------------------*- C++ -*----------------------------------*\
| =========                 |                                                 |
| \\      /  F ield         | OpenFOAM: The Open Source CFD Toolbox           |
|  \\    /   O peration     | Version:  5.x                                   |
|   \\  /    A nd           | Web:      www.OpenFOAM.org                      |
|    \\/     M anipulation  |                                                 |
\*---------------------------------------------------------------------------*/
FoamFile
{
    version     2.0;
    format      ascii;
    class       volScalarField;
    location    "1.2";
    object      gradTx;
}
// * * * * * * * * * * * * * * * * * * * * * * * * * * * * * * * * * * * * * //

dimensions      [0 -1 0 1 0 0 0];

internalField   nonuniform List<scalar> 
3200
(
46.6927
3.40731
1.49708
1.39649
0.723765
0.683392
0.402125
0.384276
0.245321
0.235473
0.139408
0.135788
0.146379
0.146543
0.142155
0.141697
0.134921
0.134329
0.126845
0.126175
0.117612
0.116835
0.106775
0.105886
0.0945859
0.0936825
0.0829717
0.0826192
0.0816504
0.13642
0.0654319
0.0390134
0.037238
0.0252659
0.0244398
0.0170188
0.0164973
0.0114871
0.0111335
0.00768961
0.00744648
0.00507187
0.0049044
0.00327048
0.00315405
0.00200133
0.00191759
0.00106542
0.00100201
0.000333859
0.000285207
-0.000205454
-0.000257289
-0.000999122
-0.00107538
-0.00215514
-0.00227042
-0.00393943
-0.00412399
-0.00685022
-0.00716174
-0.0118392
-0.0123983
-0.0209551
-0.0220653
-0.0395287
-0.0421797
-0.0852284
-0.0941834
-0.240737
-0.622111
-0.439467
-0.686097
-0.717591
-1.27502
-1.24923
-0.0560947
-0.00756956
-0.00153422
-52.694
49.2152
2.84933
1.4341
1.22759
0.689205
0.603015
0.3771
0.338936
0.227607
0.206676
0.131145
0.123416
0.13049
0.130747
0.127356
0.126394
0.12105
0.119795
0.113862
0.112442
0.105651
0.104004
0.0960326
0.0941495
0.0852189
0.0833169
0.0749895
0.0743713
0.0758787
0.113733
0.0607985
0.0369355
0.0330029
0.0233241
0.0215551
0.0156425
0.0145336
0.0105533
0.00980252
0.00706832
0.00655217
0.00466731
0.00431179
0.0030146
0.00276742
0.00185234
0.00167461
0.000998381
0.000863861
0.000334466
0.000230965
-0.000162602
-0.000272958
-0.000862013
-0.00102404
-0.00188268
-0.00212778
-0.00345613
-0.00384879
-0.00602045
-0.00668377
-0.0104155
-0.0116082
-0.0184576
-0.0208362
-0.0349263
-0.040671
-0.0761499
-0.0961469
-0.228994
-0.521752
-0.417913
-0.606021
-0.670861
-1.09091
-1.03691
-0.1225
-0.0210091
-0.00441175
-54.5165
51.7223
2.3633
1.32279
1.07199
0.636569
0.528238
0.344574
0.29653
0.206283
0.180068
0.120175
0.110455
0.114876
0.115101
0.112462
0.111268
0.107014
0.105447
0.100698
0.0989223
0.0934832
0.0914233
0.0850461
0.0826945
0.0755717
0.0732095
0.066702
0.0660417
0.0686588
0.0946874
0.0550086
0.0340656
0.0290026
0.02107
0.0188402
0.0140775
0.012688
0.00949303
0.00855344
0.00636036
0.00571459
0.0042031
0.00375832
0.00271783
0.00240859
0.00167466
0.00145232
0.000910219
0.000742024
0.000318346
0.000188615
-0.000130819
-0.000269228
-0.000741802
-0.000944664
-0.00163467
-0.00194172
-0.00301024
-0.00350241
-0.00525108
-0.00608313
-0.00909345
-0.010592
-0.0161392
-0.0191389
-0.0306579
-0.0379731
-0.0676908
-0.0935966
-0.210855
-0.437256
-0.384681
-0.530875
-0.609922
-0.925757
-0.859004
-0.156388
-0.0310529
-0.00676947
-56.3388
54.2103
1.93781
1.1799
0.923781
0.570859
0.456483
0.30663
0.255819
0.182404
0.154813
0.107201
0.0969318
0.0994335
0.0995704
0.0975108
0.0962644
0.0928698
0.0912266
0.0874133
0.0855476
0.0811784
0.0790143
0.0738981
0.0714299
0.0657349
0.0632691
0.0581831
0.0575841
0.0605076
0.0782792
0.0484752
0.0305652
0.0251216
0.0185916
0.0162303
0.0123807
0.0109175
0.00834497
0.00735679
0.00559236
0.00491339
0.00369761
0.00322997
0.00239283
0.00206769
0.00147725
0.0012435
0.000807594
0.000630857
0.000290755
0.000154113
-0.000106046
-0.000251911
-0.000632213
-0.000845649
-0.00140188
-0.00172512
-0.00258738
-0.00310577
-0.00451841
-0.00539542
-0.007832
-0.00941389
-0.0139229
-0.0171009
-0.0265579
-0.0343794
-0.0593843
-0.0873924
-0.188349
-0.36392
-0.343497
-0.458414
-0.539509
-0.775908
-0.706531
-0.167184
-0.037055
-0.0083771
-58.1611
56.6787
1.56226
1.01695
0.779459
0.495616
0.386156
0.264732
0.216019
0.156697
0.130364
0.0927362
0.0829004
0.0840874
0.0841302
0.0825282
0.0813475
0.0786556
0.0770919
0.0740496
0.0722717
0.0687842
0.0667222
0.0626436
0.0602942
0.0557696
0.0534346
0.049487
0.0489885
0.0517669
0.0637815
0.0414713
0.0265704
0.0212879
0.0159499
0.0136832
0.0105911
0.00919408
0.0071357
0.00619322
0.0047826
0.0041352
0.00316343
0.00271755
0.00204825
0.00173823
0.00126621
0.00104336
0.000695046
0.000526617
0.000255286
0.000124782
-8.56394e-05
-0.000225024
-0.000529151
-0.00073279
-0.00117832
-0.0014869
-0.00217827
-0.00267336
-0.00380722
-0.00464539
-0.00660483
-0.00811885
-0.0117599
-0.014812
-0.0225235
-0.0300985
-0.0509579
-0.0782703
-0.162859
-0.298422
-0.2969
-0.387304
-0.462884
-0.638288
-0.572855
-0.161611
-0.0389997
-0.00911145
-59.983
59.1285
1.22698
0.841705
0.637002
0.413406
0.316314
0.219931
0.176648
0.129675
0.10637
0.0771628
0.0684306
0.068789
0.0687575
0.0675296
0.0664915
0.064396
0.0630158
0.0606343
0.0590631
0.0563319
0.0545099
0.0513194
0.0492453
0.0457173
0.0436656
0.0406549
0.0402644
0.0426608
0.050663
0.0341756
0.0221946
0.0174598
0.0131883
0.0111718
0.00873615
0.00749928
0.00588368
0.00505011
0.00394376
0.0033713
0.0026093
0.00221504
0.0016901
0.00141596
0.00104577
0.000848742
0.000575687
0.000426828
0.000214414
9.88485e-05
-6.78975e-05
-0.000191384
-0.00042998
-0.000610145
-0.000960174
-0.00123332
-0.00177698
-0.0022154
-0.00310789
-0.00385057
-0.00539557
-0.00673882
-0.00962069
-0.0123368
-0.0184947
-0.0252864
-0.0422734
-0.0668572
-0.13533
-0.238408
-0.246624
-0.316787
-0.382265
-0.510302
-0.453011
-0.144493
-0.0372361
-0.00894784
-61.8048
61.5621
0.923248
0.659244
0.495309
0.326142
0.24645
0.173011
0.13743
0.10171
0.0826152
0.0607727
0.0535992
0.0535079
0.053434
0.0525242
0.0516783
0.0501075
0.0489793
0.0471857
0.0459001
0.0438423
0.0423516
0.0399502
0.0382544
0.0356065
0.0339357
0.0317196
0.031431
0.0333337
0.0385289
0.0267034
0.017532
0.0136159
0.0103389
0.00867948
0.0068352
0.00582147
0.00460192
0.00391933
0.00308475
0.00261607
0.00204134
0.00171857
0.00132256
0.00109812
0.000818876
0.000657579
0.00045168
0.000329856
0.000169861
7.51283e-05
-5.17394e-05
-0.000153004
-0.00033304
-0.000480613
-0.000745041
-0.000968864
-0.00137989
-0.00173928
-0.00241458
-0.00302369
-0.00419445
-0.00529733
-0.00748818
-0.00972412
-0.0144407
-0.0200665
-0.0332852
-0.0536886
-0.106417
-0.182187
-0.193871
-0.246457
-0.299142
-0.389727
-0.343215
-0.119325
-0.0323145
-0.00794446
-63.6263
63.9826
0.64316
0.472788
0.353833
0.235305
0.176341
0.12458
0.0982202
0.0730829
0.0589731
0.0437977
0.038486
0.0382273
0.0381449
0.0375168
0.0368944
0.0358012
0.0349691
0.0337163
0.0327672
0.0313294
0.030229
0.0285525
0.0273015
0.025457
0.0242284
0.0227084
0.0225118
0.0238775
0.0270795
0.0191281
0.0126616
0.00974871
0.00742676
0.00619633
0.00490259
0.00415332
0.00329992
0.00279575
0.00221204
0.00186593
0.00146401
0.00122565
0.00094868
0.000782932
0.000587633
0.000468525
0.000324563
0.000234625
0.000122852
5.28243e-05
-3.64903e-05
-0.000111368
-0.000237315
-0.000346337
-0.000531485
-0.000696891
-0.000984862
-0.00125052
-0.00172394
-0.00217438
-0.0029961
-0.00381239
-0.00535394
-0.00701226
-0.0103505
-0.0145431
-0.0240097
-0.039227
-0.0765822
-0.12853
-0.139481
-0.176122
-0.214504
-0.274636
-0.240514
-0.0886803
-0.024888
-0.00622497
-65.4475
66.3935
0.379473
0.284281
0.212344
0.142089
0.105947
0.0751367
0.0589644
0.0440167
0.0353754
0.0264294
0.0231718
0.0229406
0.0228785
0.0225096
0.0221295
0.0214844
0.0209754
0.0202342
0.0196533
0.0188025
0.0181291
0.0171376
0.0163723
0.0152831
0.0145332
0.0136453
0.0135314
0.0143498
0.0160788
0.0114955
0.00765092
0.00585944
0.00447232
0.00371699
0.00294931
0.00249036
0.00198483
0.00167616
0.00133051
0.00111863
0.000880652
0.000734735
0.000570721
0.000469254
0.000353608
0.000280697
0.000195467
0.000140421
7.42835e-05
3.13859e-05
-2.17359e-05
-6.76141e-05
-0.000142207
-0.000208964
-0.000318685
-0.00041999
-0.000590714
-0.00075345
-0.00103424
-0.00131025
-0.001798
-0.00229849
-0.00321509
-0.00423328
-0.00622607
-0.00880878
-0.0145042
-0.0238799
-0.0461636
-0.0765124
-0.084063
-0.105717
-0.128994
-0.163314
-0.14252
-0.0545142
-0.0156569
-0.00396141
-67.2686
68.7985
0.12543
0.0948469
0.0707914
0.0475109
0.0353412
0.0251092
0.0196611
0.0146995
0.011791
0.00883452
0.0077373
0.0076477
0.0076248
0.00750309
0.00737535
0.00716203
0.00699082
0.00674542
0.00655
0.00626828
0.00604172
0.00571349
0.00545608
0.00509578
0.00484382
0.00455177
0.0045145
0.00478679
0.00533219
0.00383464
0.00255914
0.00195494
0.00149344
0.00123891
0.000984362
0.000829875
0.000662398
0.000558524
0.000444032
0.000372734
0.000293912
0.000244811
0.000190484
0.00015634
0.000118035
9.35006e-05
6.52728e-05
4.67515e-05
2.4853e-05
1.04129e-05
-7.22171e-06
-2.26667e-05
-4.73766e-05
-6.98434e-05
-0.0001062
-0.000140298
-0.000196881
-0.00025166
-0.000344744
-0.000437667
-0.000599422
-0.000767968
-0.00107221
-0.00141535
-0.00207814
-0.00294998
-0.00485159
-0.00801651
-0.0154222
-0.0254067
-0.0280809
-0.0352476
-0.0430429
-0.0541962
-0.0472155
-0.018382
-0.00533968
-0.0013588
-69.0895
68.9356
0.13462
0.113713
0.094462
0.0740851
0.0626373
0.0517163
0.045012
0.0374503
0.0320789
0.0253744
0.0228409
0.0226513
0.0223709
0.0214391
0.0205352
0.0190899
0.0179827
0.0164756
0.015392
0.0139915
0.0130097
0.0117704
0.0109196
0.0098749
0.00921118
0.00851336
0.00839697
0.00893005
0.0100279
0.00731635
0.00503696
0.00396801
0.00316267
0.00271478
0.00225772
0.00197187
0.00164894
0.00144064
0.00119948
0.00104315
0.00086171
0.000744375
0.000608672
0.0005211
0.000419944
0.000354091
0.000276897
0.000225079
0.000163926
0.000135729
0.000120127
0.00010911
9.27378e-05
8.08297e-05
6.54291e-05
5.48877e-05
4.18461e-05
3.23164e-05
1.91943e-05
6.69348e-06
-1.55382e-05
-4.47024e-05
-0.000107252
-0.000204082
-0.000429252
-0.000815821
-0.00177547
-0.00362425
-0.00819269
-0.0148504
-0.0183172
-0.0259753
-0.0341575
-0.0461581
-0.0409963
-0.0160124
-0.00465556
-0.00118447
-69.7093
66.8045
0.406897
0.341074
0.283433
0.2219
0.187893
0.154982
0.135072
0.112264
0.0962909
0.0759571
0.0684298
0.0679584
0.0671395
0.0643168
0.061628
0.0572568
0.053965
0.0494106
0.0461895
0.0419585
0.0390401
0.0352965
0.0327673
0.0296102
0.0276356
0.0255176
0.0251657
0.0267686
0.0302374
0.0219327
0.0150632
0.0118942
0.00947429
0.00814526
0.00676682
0.00591755
0.00494267
0.00432363
0.0035954
0.00313079
0.00258285
0.00223412
0.00182432
0.00156405
0.0012586
0.00106288
0.000829805
0.000675718
0.000490543
0.000406757
0.000360265
0.000327606
0.000278091
0.000242679
0.000196136
0.000164801
0.000125429
9.71206e-05
5.75804e-05
2.04892e-05
-4.63215e-05
-0.000132757
-0.000320371
-0.000607099
-0.00128128
-0.00242452
-0.00529081
-0.0107639
-0.0244943
-0.0446787
-0.0547835
-0.0779044
-0.102319
-0.13916
-0.123781
-0.0474917
-0.0136511
-0.00345297
-69.1279
64.6667
0.68836
0.568112
0.472568
0.368619
0.313109
0.257731
0.225251
0.186809
0.16068
0.12603
0.113739
0.113282
0.111991
0.107192
0.10279
0.095383
0.09
0.0822945
0.0770296
0.0698751
0.0651056
0.058776
0.0546422
0.0493002
0.0460679
0.0424533
0.0418587
0.0445354
0.0509215
0.0364945
0.0249439
0.0197923
0.015744
0.0135794
0.0112562
0.00986967
0.00822342
0.00721217
0.00598184
0.00522274
0.00429689
0.00372711
0.00303468
0.00260943
0.00209339
0.00177364
0.00137994
0.00112793
0.000813351
0.000676511
0.000600049
0.000546965
0.000463046
0.000405127
0.000326363
0.000275151
0.000208664
0.000162457
9.59356e-05
3.55322e-05
-7.62721e-05
-0.000216722
-0.000529488
-0.000994577
-0.00211451
-0.00396422
-0.00870175
-0.017573
-0.0405373
-0.0749091
-0.0907281
-0.12978
-0.169982
-0.234248
-0.209
-0.0772722
-0.0217008
-0.0054256
-68.5465
62.5182
0.985392
0.794172
0.66205
0.513411
0.438329
0.359573
0.315676
0.260866
0.225416
0.175213
0.158578
0.158642
0.156986
0.150055
0.144077
0.133432
0.126132
0.115085
0.107949
0.0976999
0.0912372
0.0821713
0.0765689
0.0689094
0.0645191
0.059272
0.0584249
0.0621588
0.0724444
0.050946
0.0345724
0.0276497
0.0219414
0.0190226
0.0157107
0.0138345
0.0114809
0.0101114
0.00835119
0.00732301
0.00599813
0.00522633
0.00423549
0.00365949
0.00292121
0.00248815
0.00192504
0.0015832
0.00112946
0.000944213
0.000839232
0.000767872
0.000647242
0.000568664
0.000455704
0.000386305
0.000291246
0.000228745
0.000134158
5.27293e-05
-0.000104997
-0.000293723
-0.000732447
-0.00135579
-0.00291845
-0.00538829
-0.0119471
-0.023818
-0.056123
-0.10588
-0.125742
-0.181607
-0.236679
-0.332913
-0.298474
-0.104005
-0.0281785
-0.00692388
-67.965
60.3548
1.30475
1.01788
0.852209
0.655273
0.563707
0.46003
0.406546
0.334157
0.290749
0.223059
0.202755
0.204077
0.202198
0.192885
0.185556
0.171353
0.162419
0.147723
0.138998
0.125378
0.117478
0.105433
0.0985829
0.0883928
0.0830095
0.0759199
0.0748135
0.0795269
0.0952475
0.0651991
0.0438283
0.0354632
0.0280313
0.0244853
0.0201112
0.0178217
0.014702
0.0130291
0.0106937
0.00943743
0.00767926
0.00673617
0.00542131
0.0047175
0.00373804
0.00320896
0.00246219
0.00204371
0.0014354
0.00120921
0.00107754
0.000991192
0.000830144
0.000733934
0.000583603
0.000498755
0.000372744
0.00029651
0.000172009
7.31155e-05
-0.000132372
-0.000360623
-0.000927931
-0.00167935
-0.00368599
-0.00664864
-0.0149797
-0.029245
-0.0710095
-0.138045
-0.159312
-0.233463
-0.301724
-0.436798
-0.394344
-0.12599
-0.0324739
-0.0077981
-67.3834
58.1732
1.65367
1.23676
1.04364
0.792937
0.689586
0.558492
0.498185
0.406299
0.357062
0.269016
0.246074
0.249648
0.247715
0.235643
0.227317
0.20907
0.198943
0.18013
0.17025
0.152835
0.143891
0.128493
0.120737
0.10769
0.101574
0.092335
0.0909764
0.0964636
0.119893
0.0791135
0.0525708
0.0432453
0.0339709
0.0299861
0.0244327
0.0218464
0.0178689
0.0159769
0.0129962
0.0115749
0.00933035
0.00826325
0.00658472
0.00578841
0.00453843
0.00393989
0.00298733
0.00251281
0.00172678
0.00147108
0.00131462
0.00121807
0.00101095
0.000901828
0.000709264
0.000613197
0.00045253
0.000366455
0.000209033
9.79413e-05
-0.000158695
-0.000413833
-0.00111594
-0.00195257
-0.00441515
-0.00769405
-0.0177745
-0.0335714
-0.0848837
-0.172037
-0.190765
-0.285549
-0.364092
-0.547776
-0.499243
-0.14098
-0.0340166
-0.00794071
-66.8018
55.9707
2.03994
1.44671
1.2374
0.924726
0.816592
0.654139
0.591102
0.476747
0.424939
0.312378
0.28834
0.295447
0.293645
0.27826
0.269484
0.24647
0.235824
0.212188
0.201811
0.17996
0.17057
0.151256
0.14311
0.126718
0.120272
0.108443
0.106874
0.112693
0.147121
0.0924685
0.0606328
0.0510325
0.0397052
0.0355556
0.0286409
0.0259317
0.020957
0.0189725
0.0152402
0.0137488
0.0109374
0.00981769
0.00771529
0.00687973
0.00531464
0.0046867
0.00349471
0.00299558
0.0019978
0.00172974
0.00155003
0.00145005
0.00118844
0.00107362
0.000831525
0.000730642
0.000529668
0.000439557
0.000244441
0.000128802
-0.000184911
-0.000449008
-0.00129843
-0.00216062
-0.00511147
-0.00846716
-0.0203403
-0.0364765
-0.0973224
-0.208763
-0.219171
-0.338279
-0.422247
-0.668033
-0.616523
-0.145915
-0.0323252
-0.00730111
-66.2201
53.7461
2.47189
1.64132
1.43532
1.04836
0.945793
0.745827
0.686088
0.544708
0.495258
0.352209
0.32937
0.341612
0.34013
0.320623
0.31223
0.283386
0.273233
0.243725
0.23384
0.206596
0.197654
0.17358
0.165822
0.145357
0.139194
0.12415
0.122486
0.12779
0.177931
0.104922
0.0678146
0.0588971
0.0451597
0.0412426
0.0326871
0.0301137
0.0239307
0.022043
0.0173988
0.0159797
0.0124804
0.0114148
0.00879802
0.00800289
0.00605553
0.00545807
0.00397594
0.0034997
0.0022406
0.00198577
0.00178309
0.00168931
0.00136074
0.00125115
0.000948666
0.000852582
0.000602755
0.000517212
0.000276941
0.000167834
-0.000212917
-0.000460591
-0.00148025
-0.00228495
-0.0057914
-0.00889931
-0.0227349
-0.0375923
-0.107735
-0.249526
-0.243225
-0.392409
-0.473922
-0.80017
-0.750555
-0.136567
-0.0270932
-0.00590085
-65.6385
51.5
2.95821
1.81098
1.64051
1.16064
1.07891
0.831926
0.784359
0.609007
0.569337
0.387242
0.369008
0.388338
0.387346
0.362553
0.355806
0.319565
0.311428
0.274487
0.266574
0.23251
0.225355
0.195262
0.189052
0.163433
0.158481
0.139331
0.137831
0.141107
0.213687
0.115953
0.0738789
0.0669639
0.0502295
0.047123
0.0365008
0.0344467
0.0267384
0.0252295
0.0194334
0.0182986
0.01393
0.0130778
0.00981102
0.00917513
0.00674483
0.00626711
0.00441867
0.00403674
0.00244429
0.0022407
0.00201273
0.00193887
0.00152506
0.00143714
0.00105814
0.000981226
0.000669696
0.000601455
0.000304495
0.000218013
-0.000246034
-0.000441092
-0.00167049
-0.00230104
-0.00648705
-0.00890207
-0.0250882
-0.0364958
-0.11528
-0.296207
-0.261055
-0.449237
-0.515799
-0.947327
-0.907149
-0.107036
-0.0183324
-0.00384707
-65.0571
49.2365
3.50755
1.94161
1.85812
1.25702
1.21867
0.91007
0.887763
0.667896
0.649129
0.415731
0.407153
0.435889
0.435528
0.403773
0.400574
0.354632
0.350787
0.3041
0.300366
0.257359
0.253984
0.215999
0.213069
0.180694
0.178347
0.153819
0.152995
0.151666
0.256281
0.12477
0.0785474
0.0754336
0.0547628
0.0533126
0.0399793
0.0390131
0.0293045
0.0285936
0.0212867
0.0207519
0.0152432
0.0148415
0.0107222
0.0104224
0.00735859
0.00713347
0.00480458
0.00462397
0.00259352
0.00249768
0.00223722
0.00220303
0.00167718
0.00163558
0.00115616
0.00111986
0.00072736
0.000695286
0.000323948
0.000283603
-0.000289685
-0.000379998
-0.0018845
-0.00217472
-0.00725329
-0.00835371
-0.0276319
-0.0327034
-0.118737
-0.351525
-0.269947
-0.510922
-0.543069
-1.11334
-1.09413
-0.0490474
-0.00660562
-0.00133928
-64.4758
49.2364
3.5075
1.94158
1.85809
1.257
1.21865
0.91005
0.887743
0.667877
0.649111
0.415718
0.40714
0.435871
0.43551
0.403758
0.400559
0.354624
0.35078
0.304103
0.30037
0.257372
0.253997
0.216019
0.21309
0.180717
0.178371
0.153843
0.15302
0.151692
0.256328
0.124794
0.0785647
0.0754504
0.0547757
0.0533253
0.0399893
0.039023
0.0293123
0.0286013
0.0212929
0.0207579
0.015248
0.0148462
0.0107258
0.010426
0.00736129
0.00713611
0.0048065
0.00462585
0.00259469
0.00249882
0.00223823
0.00220402
0.00167798
0.00163637
0.00115681
0.00112051
0.00072794
0.00069587
0.000324583
0.000284257
-0.000288707
-0.000378962
-0.00188246
-0.00217252
-0.00724835
-0.00834836
-0.0276196
-0.0326899
-0.118706
-0.351457
-0.269905
-0.510896
-0.543047
-1.11339
-1.09418
-0.0490496
-0.00660764
-0.00134178
-64.4759
51.4999
2.95817
1.81095
1.64049
1.16062
1.0789
0.831908
0.784341
0.60899
0.569321
0.387229
0.368995
0.388322
0.38733
0.362539
0.355793
0.319558
0.311423
0.274489
0.266578
0.232521
0.225367
0.195279
0.18907
0.163454
0.158502
0.139354
0.137853
0.141132
0.213726
0.115974
0.0738949
0.0669788
0.0502412
0.0471342
0.0365098
0.0344553
0.0267455
0.0252363
0.0194389
0.0183039
0.0139343
0.0130819
0.00981428
0.00917825
0.00674724
0.00626942
0.00442039
0.00403837
0.00244535
0.00224173
0.00201363
0.00193974
0.00152578
0.00143783
0.00105872
0.000981799
0.000670213
0.00060198
0.000305059
0.000218619
-0.000245169
-0.000440099
-0.00166869
-0.00229889
-0.0064827
-0.00889681
-0.0250772
-0.0364823
-0.115251
-0.29615
-0.261018
-0.449214
-0.515784
-0.947366
-0.907191
-0.107041
-0.0183357
-0.00385871
-65.0572
53.746
2.47186
1.64129
1.4353
1.04834
0.945777
0.745811
0.686073
0.544693
0.495244
0.352197
0.32936
0.341599
0.340116
0.320611
0.312219
0.28338
0.273229
0.243726
0.233844
0.206606
0.197666
0.173596
0.165838
0.145375
0.139213
0.124169
0.122506
0.127813
0.177964
0.104941
0.0678295
0.0589105
0.0451704
0.0412526
0.0326953
0.0301214
0.0239371
0.0220491
0.0174039
0.0159845
0.0124843
0.0114185
0.00880099
0.00800568
0.00605774
0.00546014
0.00397752
0.00350115
0.00224158
0.00198671
0.00178391
0.00169008
0.0013614
0.00125178
0.000949196
0.000853098
0.000603223
0.000517688
0.000277447
0.000168391
-0.00021215
-0.000459664
-0.00147866
-0.00228293
-0.00578759
-0.00889434
-0.0227253
-0.0375795
-0.107709
-0.249478
-0.243192
-0.392388
-0.473911
-0.8002
-0.750589
-0.136573
-0.0270946
-0.00591769
-65.6386
55.9707
2.03992
1.44667
1.23738
0.924711
0.816579
0.654125
0.591089
0.476735
0.424927
0.312368
0.288331
0.295435
0.293634
0.27825
0.269475
0.246465
0.23582
0.212189
0.201814
0.179968
0.17058
0.151269
0.143125
0.126734
0.120289
0.10846
0.106892
0.112714
0.147149
0.0924853
0.0606464
0.0510443
0.0397147
0.0355644
0.0286482
0.0259385
0.0209627
0.0189778
0.0152447
0.013753
0.0109409
0.00982093
0.00771796
0.0068822
0.00531663
0.00468852
0.00349614
0.00299685
0.00199869
0.00173059
0.00155077
0.00145073
0.00118902
0.00107417
0.000832001
0.000731102
0.000530086
0.000439982
0.000244889
0.000129303
-0.000184239
-0.000448169
-0.00129705
-0.00215878
-0.00510817
-0.00846264
-0.0203319
-0.0364648
-0.0972992
-0.208724
-0.219143
-0.338261
-0.422239
-0.668056
-0.616551
-0.145921
-0.0323231
-0.00731815
-66.2202
58.1732
1.65365
1.23673
1.04362
0.792924
0.689574
0.558481
0.498175
0.406289
0.357052
0.269008
0.246066
0.249638
0.247705
0.235635
0.22731
0.209065
0.198941
0.180132
0.170253
0.152842
0.1439
0.128505
0.120749
0.107704
0.101589
0.0923495
0.0909914
0.0964816
0.119915
0.0791279
0.0525828
0.0432554
0.0339791
0.0299936
0.024439
0.0218522
0.0178738
0.0159815
0.0130001
0.0115785
0.00933337
0.00826604
0.00658704
0.00579053
0.00454017
0.00394146
0.00298858
0.00251391
0.00172756
0.00147182
0.00131526
0.00121865
0.00101146
0.000902306
0.000709679
0.000613594
0.000452894
0.000366824
0.00020942
9.83773e-05
-0.000158121
-0.000413098
-0.00111477
-0.00195096
-0.00441235
-0.00769009
-0.0177675
-0.0335612
-0.0848639
-0.172006
-0.190741
-0.285534
-0.364086
-0.547794
-0.499265
-0.140985
-0.0340109
-0.00795493
-66.8018
60.3548
1.30473
1.01785
0.852196
0.655262
0.563698
0.460021
0.406538
0.334149
0.290741
0.223052
0.202749
0.20407
0.20219
0.192878
0.18555
0.171349
0.162417
0.147725
0.139001
0.125384
0.117485
0.105442
0.0985931
0.088404
0.0830211
0.0759317
0.0748256
0.0795419
0.0952653
0.0652109
0.0438385
0.0354716
0.0280381
0.0244915
0.0201164
0.0178265
0.0147061
0.0130329
0.010697
0.0094404
0.00768178
0.00673847
0.00542324
0.00471926
0.0037395
0.00321026
0.00246324
0.00204463
0.00143607
0.00120983
0.00107807
0.000991673
0.000830569
0.00073433
0.00058395
0.000499086
0.000373048
0.000296817
0.00017233
7.34804e-05
-0.000131898
-0.000360007
-0.000926971
-0.00167799
-0.0036837
-0.00664531
-0.0149739
-0.0292364
-0.0709933
-0.13802
-0.159293
-0.233451
-0.30172
-0.436811
-0.394362
-0.125995
-0.0324655
-0.00780824
-67.3835
62.5181
0.985377
0.794146
0.66204
0.513402
0.438322
0.359566
0.315669
0.26086
0.22541
0.175207
0.158573
0.158637
0.15698
0.150049
0.144073
0.133429
0.12613
0.115085
0.107951
0.0977044
0.0912428
0.0821785
0.0765769
0.0689181
0.0645281
0.0592811
0.0584342
0.0621705
0.0724579
0.0509552
0.0345805
0.0276563
0.0219468
0.0190274
0.0157148
0.0138382
0.0114841
0.0101144
0.00835373
0.00732532
0.00600011
0.00522813
0.00423701
0.00366087
0.00292235
0.00248917
0.00192588
0.00158392
0.00112999
0.000944706
0.000839649
0.000768247
0.000647576
0.000568974
0.000455978
0.000386565
0.000291486
0.000228987
0.000134411
5.30177e-05
-0.000104626
-0.000293235
-0.000731697
-0.00135472
-0.00291667
-0.00538566
-0.0119426
-0.0238112
-0.0561104
-0.105862
-0.125727
-0.181598
-0.236676
-0.332922
-0.298487
-0.104009
-0.0281689
-0.00692992
-67.965
64.6667
0.688348
0.568092
0.472561
0.368613
0.313104
0.257727
0.225246
0.186804
0.160676
0.126026
0.113735
0.113278
0.111986
0.107188
0.102787
0.0953809
0.089999
0.0822951
0.0770312
0.0698782
0.0651097
0.0587811
0.0546478
0.0493064
0.0460743
0.0424598
0.0418653
0.0445438
0.050931
0.0365011
0.0249497
0.0197971
0.0157479
0.0135828
0.0112592
0.00987232
0.00822573
0.00721426
0.00598366
0.0052244
0.00429831
0.0037284
0.00303577
0.00261042
0.00209421
0.00177438
0.00138054
0.00112845
0.000813732
0.000676866
0.000600348
0.000547232
0.000463286
0.000405349
0.000326561
0.000275339
0.000208838
0.000162631
9.6118e-05
3.57404e-05
-7.60052e-05
-0.00021637
-0.000528951
-0.000993802
-0.00211323
-0.00396232
-0.00869855
-0.0175681
-0.0405283
-0.0748962
-0.0907177
-0.129774
-0.16998
-0.234255
-0.209009
-0.077275
-0.0216916
-0.0054283
-68.5465
66.8044
0.406889
0.34106
0.283429
0.221896
0.18789
0.154979
0.135069
0.112262
0.0962883
0.0759548
0.0684277
0.0679559
0.0671368
0.0643145
0.061626
0.0572556
0.0539643
0.0494109
0.0461905
0.0419603
0.0390425
0.0352995
0.0327707
0.0296138
0.0276394
0.0255214
0.0251696
0.0267736
0.030243
0.0219366
0.0150668
0.011897
0.00947661
0.00814732
0.00676858
0.00591914
0.00494405
0.00432488
0.00359649
0.00313178
0.00258371
0.00223489
0.00182498
0.00156464
0.00125909
0.00106333
0.000830172
0.00067603
0.000490772
0.000406971
0.000360444
0.000327765
0.000278235
0.000242812
0.000196255
0.000164914
0.000125534
9.72257e-05
5.76903e-05
2.06148e-05
-4.6161e-05
-0.000132544
-0.000320049
-0.00060663
-0.00128052
-0.00242337
-0.0052889
-0.0107609
-0.0244889
-0.044671
-0.0547773
-0.0779005
-0.102318
-0.139164
-0.123786
-0.0474934
-0.0136443
-0.00345355
-69.1279
68.9356
0.134617
0.113708
0.0944606
0.0740839
0.0626363
0.0517153
0.045011
0.0374494
0.032078
0.0253736
0.0228402
0.0226505
0.02237
0.0214383
0.0205345
0.0190894
0.0179825
0.0164757
0.0153923
0.0139921
0.0130105
0.0117714
0.0109207
0.00987611
0.00921244
0.00851462
0.00839823
0.00893173
0.0100298
0.00731765
0.00503815
0.00396896
0.00316344
0.00271546
0.00225831
0.00197239
0.0016494
0.00144105
0.00119984
0.00104348
0.000861993
0.00074463
0.000608891
0.000521296
0.00042011
0.000354238
0.00027702
0.000225182
0.000164002
0.0001358
0.000120187
0.000109162
9.27855e-05
8.08736e-05
6.54685e-05
5.49249e-05
4.18808e-05
3.23514e-05
1.92309e-05
6.73536e-06
-1.54848e-05
-4.46312e-05
-0.000107144
-0.000203925
-0.000428998
-0.000815439
-0.00177484
-0.00362327
-0.00819089
-0.0148479
-0.0183151
-0.025974
-0.0341572
-0.0461594
-0.040998
-0.016013
-0.00465283
-0.00118433
-69.7093
68.7982
0.125307
0.0946385
0.0704897
0.0470363
0.0346632
0.024045
0.0182021
0.0127282
0.0105161
0.00981296
0.00945668
0.00896652
0.0086158
0.00816925
0.00786882
0.00750621
0.00725536
0.00693822
0.00670336
0.00638455
0.00613709
0.00578856
0.00551951
0.0051477
0.00488922
0.00459107
0.00455171
0.00482471
0.00537394
0.00386473
0.0025794
0.0019707
0.00150584
0.00124947
0.000993051
0.000837396
0.000668605
0.000563882
0.000448412
0.000376475
0.00029691
0.000247319
0.000192417
0.000157905
0.000119182
9.43852e-05
6.58659e-05
4.71644e-05
2.50717e-05
1.05163e-05
-7.23203e-06
-2.27568e-05
-4.75721e-05
-7.01123e-05
-0.000106561
-0.000140724
-0.00019739
-0.000252232
-0.000345403
-0.000438398
-0.000600266
-0.00076892
-0.00107334
-0.00141667
-0.00207981
-0.00295208
-0.00485454
-0.00802074
-0.0154293
-0.0254172
-0.0280911
-0.0352581
-0.043054
-0.0542079
-0.0472252
-0.0183857
-0.00534129
-0.00135911
-69.0895
66.3926
0.379104
0.283655
0.211442
0.140667
0.10392
0.0719444
0.054592
0.0380545
0.0314881
0.0294253
0.0283757
0.0268942
0.0258514
0.024502
0.023609
0.0225142
0.0217687
0.0208113
0.0201133
0.0191507
0.0184152
0.0173625
0.0165626
0.0154386
0.0146694
0.013763
0.0136429
0.0144635
0.0162047
0.0115856
0.00771148
0.00590665
0.00450947
0.00374866
0.00297535
0.00251292
0.00200343
0.00169224
0.00134363
0.00112985
0.000889633
0.000742259
0.000576512
0.000473949
0.000357045
0.000283352
0.000197242
0.00014166
7.49364e-05
3.1696e-05
-2.17681e-05
-6.78834e-05
-0.000142795
-0.00020977
-0.000319769
-0.000421267
-0.000592242
-0.000755163
-0.00103622
-0.00131244
-0.00180053
-0.00230134
-0.00321848
-0.00423724
-0.00623109
-0.00881504
-0.0145131
-0.0238925
-0.0461847
-0.0765441
-0.0840935
-0.105749
-0.129028
-0.163349
-0.14255
-0.0545253
-0.0156614
-0.00396212
-67.2683
63.9811
0.642546
0.471746
0.352341
0.232938
0.172988
0.119261
0.0909506
0.062983
0.052281
0.048998
0.0473128
0.044805
0.0430999
0.0408168
0.0393575
0.0375081
0.0362904
0.0346737
0.0335336
0.0319075
0.0307058
0.0289261
0.0276187
0.0257155
0.0244552
0.0229041
0.0226972
0.0240665
0.0272913
0.019278
0.0127619
0.00982725
0.00748848
0.00624912
0.00494588
0.00419095
0.00333086
0.00282257
0.00223387
0.00188466
0.00147895
0.00123821
0.000958307
0.000790767
0.000593342
0.000472957
0.00032751
0.000236696
0.00012393
5.3343e-05
-3.65474e-05
-0.000111812
-0.000238298
-0.000347676
-0.000533294
-0.000699015
-0.00098741
-0.00125337
-0.00172724
-0.00217803
-0.00300032
-0.00381713
-0.00535959
-0.00701885
-0.0103588
-0.0145535
-0.0240244
-0.0392478
-0.0766175
-0.128583
-0.139532
-0.176175
-0.214559
-0.274695
-0.240563
-0.0886984
-0.0248949
-0.00622575
-65.4471
61.56
0.922392
0.657785
0.493244
0.322835
0.24181
0.165563
0.127298
0.0872226
0.0727788
0.0685083
0.0662842
0.0626849
0.0603724
0.0570993
0.0551218
0.0524768
0.0508279
0.0485167
0.0469729
0.0446469
0.0430192
0.0404707
0.0386985
0.0359669
0.0342533
0.0319923
0.0316896
0.0335973
0.0388301
0.0269126
0.0176708
0.0137256
0.0104249
0.00875342
0.00689562
0.00587421
0.00464511
0.00395694
0.00311522
0.00264234
0.00206219
0.00173619
0.00133598
0.00110912
0.000826829
0.000663802
0.000455778
0.000332766
0.00017135
7.58596e-05
-5.1827e-05
-0.000153616
-0.000334423
-0.000482479
-0.000747579
-0.00097183
-0.00138346
-0.00174326
-0.00241919
-0.00302878
-0.00420035
-0.00530394
-0.00749609
-0.00973328
-0.0144524
-0.0200809
-0.0333057
-0.0537173
-0.106466
-0.182263
-0.193942
-0.246531
-0.29922
-0.389811
-0.343285
-0.119349
-0.032323
-0.00794499
-63.6256
59.1259
1.22588
0.839828
0.634389
0.409162
0.310446
0.210349
0.163721
0.11044
0.0928719
0.087939
0.0853126
0.0805149
0.0776847
0.0733307
0.0709134
0.0674056
0.0653916
0.0623285
0.0604429
0.0573577
0.0553687
0.0519839
0.0498167
0.0461779
0.0440738
0.0410033
0.0405953
0.0429977
0.0510587
0.0344432
0.0223704
0.0176004
0.0132981
0.011267
0.00881347
0.00756724
0.00593896
0.00509858
0.00398276
0.00340517
0.00263597
0.00223777
0.00170726
0.00143015
0.00105592
0.000856779
0.000580905
0.000430594
0.00021629
9.97997e-05
-6.80242e-05
-0.00019215
-0.000431771
-0.000612526
-0.000963448
-0.00123711
-0.00178158
-0.0022205
-0.00311382
-0.00385709
-0.00540317
-0.00674727
-0.00963087
-0.0123485
-0.0185097
-0.0253047
-0.0422995
-0.0668933
-0.135393
-0.238507
-0.246715
-0.316882
-0.382365
-0.510411
-0.453103
-0.144523
-0.0372454
-0.00894781
-61.804
56.6755
1.56094
1.01465
0.776335
0.490434
0.379143