/*--------------------------------*- C++ -*----------------------------------*\
| =========                 |                                                 |
| \\      /  F ield         | OpenFOAM: The Open Source CFD Toolbox           |
|  \\    /   O peration     | Version:  5.x                                   |
|   \\  /    A nd           | Web:      www.OpenFOAM.org                      |
|    \\/     M anipulation  |                                                 |
\*---------------------------------------------------------------------------*/
FoamFile
{
    version     2.0;
    format      ascii;
    class       volScalarField;
    location    "6.2";
    object      gradTz;
}
// * * * * * * * * * * * * * * * * * * * * * * * * * * * * * * * * * * * * * //

dimensions      [0 -1 0 1 0 0 0];

internalField   uniform 0;

boundaryField
{
    F1_1
    {
        type            calculated;
        value           uniform 0;
    }
    F1_2
    {
        type            calculated;
        value           uniform 0;
    }
    F1_3
    {
        type            calculated;
        value           uniform 0;
    }
    F1_4
    {
        type            calculated;
        value           uniform 0;
    }
    F2_1
    {
        type            calculated;
        value           uniform 0;
    }
    F2_2
    {
        type            calculated;
        value           uniform 0;
    }
    F2_3
    {
        type            calculated;
        value           uniform 0;
    }
    F2_4
    {
        type            calculated;
        value           uniform 0;
    }
    defaultFaces
    {
        type            empty;
    }
}


// ************************************************************************* //
