/*--------------------------------*- C++ -*----------------------------------*\
| =========                 |                                                 |
| \\      /  F ield         | OpenFOAM: The Open Source CFD Toolbox           |
|  \\    /   O peration     | Version:  5.x                                   |
|   \\  /    A nd           | Web:      www.OpenFOAM.org                      |
|    \\/     M anipulation  |                                                 |
\*---------------------------------------------------------------------------*/
FoamFile
{
    version     2.0;
    format      ascii;
    class       volScalarField;
    location    "6.2";
    object      gradTx;
}
// * * * * * * * * * * * * * * * * * * * * * * * * * * * * * * * * * * * * * //

dimensions      [0 -1 0 1 0 0 0];

internalField   nonuniform List<scalar> 
3200
(
45.2102
3.71193
1.64875
1.5402
0.81497
0.771382
0.466736
0.447279
0.293829
0.282723
0.170835
0.166692
0.180697
0.180846
0.173157
0.172315
0.159537
0.15842
0.144299
0.143116
0.128833
0.127663
0.113861
0.112767
0.100227
0.0993405
0.0901671
0.0901612
0.0950975
0.164793
0.0825207
0.0552743
0.0534457
0.0416959
0.0408686
0.0332699
0.032711
0.0269931
0.0265634
0.022004
0.0216574
0.0179173
0.0176297
0.0144807
0.0142335
0.0114641
0.0112369
0.00857287
0.00833397
0.00520873
0.00507787
0.00507796
0.00503038
0.00396537
0.0038523
0.00220142
0.00203594
-0.000271124
-0.00050858
-0.00386685
-0.00422926
-0.00949611
-0.0101013
-0.0191742
-0.0203221
-0.03818
-0.0408525
-0.0840433
-0.0929661
-0.238791
-0.617448
-0.436329
-0.681794
-0.713163
-1.26849
-1.24287
-0.0558076
-0.00753105
-0.0015258
-52.9464
47.8948
3.10527
1.57732
1.35453
0.774079
0.681022
0.436328
0.394725
0.271789
0.248196
0.160332
0.151487
0.160987
0.161195
0.155218
0.153445
0.143365
0.141001
0.129826
0.12732
0.116008
0.113529
0.102602
0.100283
0.0903791
0.0885158
0.0814454
0.0815968
0.0883868
0.137401
0.0766195
0.0516326
0.0475605
0.038027
0.0362529
0.0301951
0.0290063
0.024465
0.0235528
0.0199352
0.0191995
0.0162327
0.0156222
0.013124
0.0125993
0.0104012
0.00991883
0.00780276
0.00729853
0.00485943
0.00458139
0.00453673
0.00443279
0.00359212
0.00335247
0.00204329
0.00169191
-0.000141327
-0.00064608
-0.00331833
-0.00408955
-0.00828811
-0.00957844
-0.0168364
-0.0192949
-0.0336957
-0.0394848
-0.0750658
-0.0949875
-0.227137
-0.517844
-0.414954
-0.602207
-0.666792
-1.08527
-1.03161
-0.121871
-0.0209023
-0.00438747
-54.7425
50.5626
2.57647
1.45368
1.18315
0.713692
0.596727
0.397796
0.345424
0.245776
0.216239
0.146669
0.135548
0.141649
0.141791
0.137111
0.134906
0.126884
0.123934
0.115006
0.111875
0.10283
0.0997332
0.0909982
0.0881035
0.0802091
0.0778994
0.0724348
0.0727667
0.0799871
0.114401
0.0692865
0.0471542
0.0418937
0.0340477
0.0318085
0.0269255
0.0254357
0.0217918
0.0206504
0.017751
0.0168309
0.0144538
0.0136902
0.0116884
0.011032
0.00926964
0.00866606
0.00696816
0.00634047
0.00442369
0.00407558
0.00399787
0.00386467
0.00319481
0.00289542
0.00184684
0.00140716
-6.46788e-05
-0.000696889
-0.00284586
-0.00381276
-0.00719644
-0.00881691
-0.0146906
-0.01779
-0.0295559
-0.0369256
-0.0667146
-0.0925198
-0.209142
-0.433984
-0.381974
-0.527526
-0.606265
-0.920936
-0.854604
-0.155585
-0.0308954
-0.00673284
-56.5384
53.2098
2.11325
1.29594
1.01974
0.639206
0.515711
0.353401
0.298013
0.216958
0.185884
0.130667
0.118921
0.12255
0.122581
0.118905
0.116601
0.1102
0.107107
0.0999536
0.096667
0.0894147
0.0861627
0.0791608
0.0761237
0.0698157
0.0674092
0.0631923
0.0636611
0.0704997
0.0945817
0.0610342
0.042001
0.0363303
0.029844
0.0274697
0.0235201
0.0219513
0.0190185
0.0178182
0.0154876
0.0145205
0.0126103
0.0118078
0.010199
0.00950889
0.00809171
0.00745704
0.00609074
0.00543397
0.00392519
0.00355894
0.00346122
0.003318
0.00278267
0.00246832
0.00162603
0.00116368
-2.16246e-05
-0.000687036
-0.00242068
-0.0034393
-0.0061753
-0.00788525
-0.0126558
-0.0159384
-0.0255919
-0.0334695
-0.0585229
-0.0864194
-0.186817
-0.361199
-0.341091
-0.455519
-0.536301
-0.77184
-0.702901
-0.166324
-0.0368674
-0.0083327
-58.3342
55.8355
1.70414
1.11657
0.860501
0.554437
0.436248
0.30473
0.25163
0.186141
0.156495
0.112927
0.101678
0.103594
0.103518
0.100644
0.0984591
0.0933845
0.090442
0.084747
0.0816176
0.0758389
0.0727422
0.0671647
0.0642747
0.0592662
0.0569914
0.0537624
0.0543007
0.0603225
0.0770677
0.0522013
0.0363132
0.0307996
0.0254759
0.023194
0.0200195
0.0185214
0.0161758
0.0150313
0.0131697
0.0122478
0.0107225
0.00995752
0.00867275
0.00801488
0.00688247
0.00627727
0.00518493
0.00456153
0.00338098
0.00303155
0.00292638
0.002787
0.00236169
0.00206234
0.00139001
0.000949106
6.26126e-07
-0.000634461
-0.0020241
-0.00299716
-0.00519522
-0.00683118
-0.0106805
-0.013832
-0.0216989
-0.0293264
-0.0502174
-0.077419
-0.161533
-0.296193
-0.294827
-0.384857
-0.460146
-0.634924
-0.569905
-0.160779
-0.0388026
-0.00906405
-60.1296
58.4411
1.3387
0.923932
0.703261
0.462154
0.357317
0.252922
0.205742
0.15389
0.127663
0.0938941
0.0839091
0.084718
0.0845677
0.0823559
0.0804331
0.0764832
0.0738871
0.0694377
0.0666742
0.0621558
0.0594209
0.0550612
0.0525104
0.0486073
0.0466117
0.0441818
0.0447209
0.0497164
0.0612181
0.0430093
0.0302104
0.0252611
0.020986
0.018954
0.0164519
0.0151253
0.0132851
0.012273
0.0108142
0.00999922
0.00880428
0.00812806
0.00712145
0.00653985
0.00565213
0.00511698
0.00426035
0.00371137
0.00280352
0.00249438
0.0023929
0.00226744
0.00193566
0.00167127
0.00114472
0.000754831
1.03343e-05
-0.00055171
-0.0016442
-0.00250602
-0.00423763
-0.00568857
-0.00873313
-0.011537
-0.0178156
-0.0246529
-0.0416596
-0.0661421
-0.134228
-0.236628
-0.244907
-0.314785
-0.380013
-0.5076
-0.450672
-0.143749
-0.0370482
-0.00890198
-61.9248
61.0291
1.0075
0.723532
0.546838
0.36442
0.27837
0.198825
0.160041
0.120615
0.099132
0.0739098
0.0657082
0.0658804
0.0656996
0.064056
0.0624881
0.0595279
0.0574064
0.0540609
0.0518009
0.0484014
0.0461646
0.0428853
0.0408002
0.0378722
0.0362494
0.0344824
0.0349628
0.0388499
0.0465569
0.0336008
0.0237937
0.0196958
0.0164064
0.0147328
0.0128371
0.0117499
0.0103612
0.0095326
0.00843292
0.00776583
0.00686529
0.00631182
0.00555313
0.00507705
0.00440768
0.00396954
0.00332346
0.00287556
0.00220211
0.0019489
0.00186038
0.00175613
0.00150693
0.00129067
0.000893965
0.000574735
1.27388e-05
-0.000447748
-0.00127353
-0.0019801
-0.00329127
-0.00448223
-0.00679539
-0.009103
-0.0139098
-0.0195725
-0.0328027
-0.0531211
-0.10555
-0.180828
-0.192524
-0.244899
-0.297385
-0.387657
-0.341439
-0.118709
-0.0321516
-0.00790424
-63.7196
63.6027
0.701946
0.518841
0.390645
0.26283
0.199161
0.143098
0.114365
0.0866215
0.0707509
0.0532446
0.0471724
0.0470569
0.0468901
0.0457531
0.0445988
0.042539
0.0409745
0.0386408
0.0369733
0.0346006
0.03295
0.0306616
0.0291237
0.0270848
0.0258928
0.0246931
0.0250685
0.0278307
0.0327222
0.0240663
0.0171485
0.014098
0.0117622
0.0105204
0.00919009
0.0083864
0.00741498
0.00680301
0.00603432
0.00554178
0.00491241
0.00450377
0.00397351
0.00362197
0.00315397
0.00283041
0.00237864
0.00204877
0.00158389
0.00139683
0.00132848
0.0012506
0.00107688
0.000917291
0.000640104
0.000404345
1.10785e-05
-0.000329177
-0.000907634
-0.00142999
-0.00234972
-0.003231
-0.00485787
-0.00656904
-0.0099699
-0.0141894
-0.0236623
-0.0388158
-0.075958
-0.127572
-0.138513
-0.175009
-0.213245
-0.273173
-0.239268
-0.0882226
-0.0247627
-0.00619376
-65.5142
66.1659
0.414196
0.311953
0.234435
0.158676
0.119649
0.0862779
0.0686498
0.0521532
0.0424351
0.0321221
0.0283984
0.0282355
0.0281194
0.0274508
0.0267457
0.0255302
0.0245735
0.023194
0.0221738
0.0207708
0.0197609
0.0184079
0.0174673
0.0162636
0.0155366
0.0148407
0.0150786
0.0167263
0.0194294
0.0144623
0.0103486
0.00847166
0.00707424
0.00631156
0.00552196
0.00502965
0.00445432
0.00407968
0.00362468
0.00332319
0.0029507
0.00270057
0.00238673
0.00217154
0.00189448
0.00169641
0.00142893
0.00122738
0.000954543
0.000840004
0.000796955
0.00074891
0.000646258
0.000548611
0.000384582
0.000240253
7.2947e-06
-0.000201082
-0.000543982
-0.000863997
-0.00140971
-0.00194996
-0.00291699
-0.00396749
-0.00599722
-0.00859624
-0.0142947
-0.0236308
-0.0457872
-0.0759422
-0.0834804
-0.105049
-0.128238
-0.162442
-0.141781
-0.0542327
-0.0155782
-0.00394171
-67.3086
68.7227
0.136914
0.104077
0.078156
0.0530514
0.0399105
0.0288279
0.0228895
0.0174138
0.0141432
0.0107361
0.00948193
0.00941221
0.00937073
0.00915006
0.00891303
0.00851114
0.00818937
0.00773285
0.00738965
0.00692525
0.00658553
0.00613773
0.00582133
0.00542324
0.00517907
0.00495103
0.00503243
0.00557965
0.00644335
0.00482416
0.0034593
0.00282613
0.00236086
0.00210379
0.00184194
0.00167622
0.00148563
0.00135957
0.00120888
0.00110744
0.00098409
0.000899928
0.000795996
0.00072359
0.000631829
0.000565177
0.000476589
0.000408829
0.000318867
0.00028032
0.000265631
0.000249401
0.000215434
0.000182584
0.000128271
7.9703e-05
2.52573e-06
-6.76071e-05
-0.000181248
-0.000288975
-0.000469915
-0.000651839
-0.000972771
-0.00132678
-0.00200177
-0.00287908
-0.00478154
-0.0079331
-0.0152965
-0.0252174
-0.0278864
-0.0350248
-0.0427908
-0.0539068
-0.0469704
-0.018287
-0.0053129
-0.0013521
-69.1029
68.7149
0.15088
0.128425
0.107468
0.0852117
0.0726968
0.060738
0.0533357
0.0448794
0.0387597
0.0310026
0.028191
0.0283036
0.0282015
0.0273675
0.0264693
0.0249533
0.0237665
0.0221223
0.0209288
0.0193725
0.018277
0.0168903
0.0159447
0.0147999
0.0141232
0.0135331
0.0138307
0.0155082
0.018093
0.0137184
0.0100632
0.00838469
0.00717402
0.00650798
0.00582963
0.0053967
0.00489267
0.00455455
0.00414358
0.00386241
0.00351419
0.00327235
0.00296762
0.00275051
0.00246817
0.00225571
0.00196234
0.00172686
0.00140485
0.00129223
0.00130993
0.00131167
0.00127893
0.00124038
0.00117263
0.00111854
0.00104227
0.000985667
0.000909826
0.000853063
0.000775029
0.000709571
0.000606474
0.000492368
0.000266255
-7.73667e-05
-0.000895131
-0.0024349
-0.00622387
-0.0117952
-0.015079
-0.0220652
-0.0295006
-0.0404451
-0.0360566
-0.0140912
-0.00409862
-0.00104341
-69.8074
66.1423
0.456009
0.385215
0.322456
0.255246
0.218068
0.182032
0.160049
0.134545
0.116345
0.09281
0.084456
0.0849194
0.0846339
0.082105
0.0794325
0.0748467
0.0713177
0.066349
0.0628009
0.058099
0.0548427
0.0506534
0.0478421
0.0443809
0.042366
0.0405637
0.0414368
0.0464884
0.0545573
0.0411265
0.0301104
0.0251354
0.0215003
0.0195244
0.0174791
0.0161929
0.0146714
0.0136666
0.0124255
0.0115899
0.0105383
0.00981957
0.00889937
0.00825414
0.00740173
0.00677036
0.00588471
0.00518404
0.00420619
0.00387147
0.00393044
0.0039364
0.00383704
0.00372231
0.00351736
0.00335651
0.00312603
0.00295777
0.00272872
0.00256004
0.00232459
0.00213022
0.00181987
0.00148159
0.000803468
-0.000213131
-0.00265651
-0.00721473
-0.0186003
-0.035477
-0.0450889
-0.0661776
-0.0883613
-0.121949
-0.108873
-0.0417947
-0.0120183
-0.00304188
-69.4222
63.5624
0.77133
0.641684
0.537621
0.424078
0.363394
0.302763
0.266904
0.223918
0.194143
0.15401
0.140368
0.141565
0.141156
0.136848
0.132472
0.124698
0.118927
0.110519
0.104719
0.0967678
0.0914458
0.0843614
0.0797656
0.073904
0.0706004
0.0674874
0.0688758
0.0773479
0.0918818
0.068438
0.0499161
0.0418325
0.0357602
0.0325437
0.0290982
0.0269986
0.0244295
0.0227881
0.0206913
0.0193261
0.0175492
0.0163749
0.0148201
0.0137661
0.0123265
0.0112952
0.0097997
0.00865233
0.00698181
0.00643498
0.00655308
0.00656536
0.00639577
0.00620787
0.00586033
0.00559727
0.00520732
0.00493232
0.00454521
0.0042697
0.00387251
0.00355553
0.00303438
0.00248441
0.00135423
-0.000291812
-0.00433328
-0.0117215
-0.0307571
-0.0594494
-0.0746396
-0.110246
-0.146766
-0.205318
-0.183849
-0.0680062
-0.0191061
-0.00478001
-69.0369
60.9703
1.10392
0.897129
0.753167
0.590796
0.508718
0.422504
0.374043
0.312763
0.272356
0.214151
0.195687
0.198275
0.197834
0.191594
0.185648
0.174469
0.166641
0.154584
0.146724
0.135331
0.128119
0.11797
0.11174
0.103325
0.0988272
0.0942311
0.0960316
0.107965
0.130725
0.0955528
0.0693043
0.0584492
0.049906
0.0455722
0.0406635
0.0378232
0.0341505
0.0319278
0.0289279
0.0270788
0.024536
0.0229454
0.0207209
0.0192935
0.0172349
0.0158386
0.0137008
0.0121416
0.00971251
0.00897192
0.00917997
0.00920161
0.00895525
0.00869983
0.00819995
0.00784313
0.00728403
0.00691138
0.00635725
0.00598425
0.00541725
0.00498901
0.00425008
0.00351046
0.00192565
-0.000274655
-0.00587616
-0.0157622
-0.0425275
-0.0839618
-0.103374
-0.154278
-0.204289
-0.291889
-0.2626
-0.0915399
-0.0248108
-0.00610041
-68.6515
58.3618
1.46126
1.15006
0.969448
0.754303
0.654207
0.540735
0.481695
0.400773
0.35128
0.272702
0.250164
0.255106
0.254744
0.246329
0.239033
0.224106
0.214524
0.198482
0.188869
0.173728
0.164911
0.151422
0.143801
0.132589
0.127058
0.120719
0.122782
0.138149
0.171886
0.122311
0.0880768
0.0749735
0.0638834
0.0586237
0.0521462
0.048681
0.0438135
0.0410988
0.0371185
0.0348593
0.0314847
0.0295414
0.0265899
0.0248462
0.0221169
0.0204118
0.0175788
0.0156656
0.0123757
0.0114709
0.0118143
0.0118486
0.0115151
0.0112016
0.0105339
0.0100971
0.00935331
0.00889773
0.00816208
0.00770659
0.00695647
0.00643496
0.00546582
0.00457035
0.00252171
-0.000121421
-0.00724761
-0.0191278
-0.0537111
-0.109355
-0.130848
-0.198346
-0.260308
-0.383135
-0.347022
-0.1109
-0.0285948
-0.00687095
-68.2658
55.733
1.85135
1.39777
1.18711
0.913207
0.800231
0.656788
0.590223
0.487526
0.431369
0.329011
0.303541
0.31215
0.311976
0.301018
0.292724
0.273529
0.262666
0.242123
0.231236
0.211872
0.201889
0.184639
0.176007
0.161626
0.155321
0.146871
0.149001
0.167598
0.21638
0.148455
0.106004
0.0914174
0.0776278
0.0717241
0.0635084
0.0595951
0.0533906
0.0503204
0.0452403
0.0426844
0.0383763
0.0361778
0.0324106
0.0304383
0.026958
0.0250301
0.02142
0.0192448
0.0149435
0.0139201
0.0144611
0.0145104
0.0140743
0.0137176
0.0128586
0.0123634
0.0114111
0.0108953
0.00995574
0.00944076
0.00848657
0.00789884
0.00667865
0.0056764
0.00314159
0.000211173
-0.00842887
-0.0215852
-0.0640522
-0.136114
-0.156482
-0.242635
-0.313893
-0.480739
-0.439444
-0.124108
-0.0299555
-0.00699659
-67.88
53.0809
2.2828
1.63576
1.4073
1.06567
0.947473
0.769766
0.700195
0.572417
0.513305
0.382245
0.355556
0.369544
0.36964
0.355601
0.34685
0.32262
0.311196
0.285378
0.273942
0.24964
0.239158
0.217511
0.208442
0.190341
0.18367
0.1726
0.17456
0.195841
0.265542
0.173581
0.122817
0.10783
0.0910568
0.084917
0.0746987
0.0706009
0.0628424
0.0596225
0.0532613
0.0505798
0.0451836
0.042877
0.0381596
0.0360909
0.031737
0.0297158
0.0252039
0.0229091
0.0173803
0.0163067
0.0171276
0.0171916
0.0166303
0.0162537
0.0151688
0.0146481
0.0134515
0.0129099
0.0117325
0.0111925
0.0100021
0.00938806
0.00788281
0.00684379
0.00377734
0.0007722
-0.00942941
-0.0228701
-0.0732093
-0.164941
-0.179484
-0.287519
-0.363654
-0.586668
-0.542827
-0.128468
-0.0284685
-0.00643258
-67.4939
50.4042
2.76475
1.85701
1.63202
1.2092
1.0971
0.878419
0.812496
0.654561
0.598119
0.431304
0.405943
0.427495
0.427869
0.409973
0.401596
0.371198
0.360301
0.328057
0.317163
0.286856
0.276873
0.249881
0.241239
0.218598
0.212196
0.197807
0.199348
0.222146
0.321171
0.197058
0.138199
0.124313
0.104061
0.0982732
0.0856443
0.0817533
0.0721127
0.0690504
0.0611351
0.0585839
0.0518674
0.0496727
0.0438027
0.041835
0.0364229
0.0345012
0.0288993
0.0267029
0.0196389
0.0186175
0.0198245
0.0198979
0.0191789
0.0188183
0.0174566
0.0169598
0.0154657
0.01495
0.0134837
0.0129704
0.0114945
0.010913
0.00906837
0.00809233
0.00441069
0.00162114
-0.0103003
-0.022679
-0.0807107
-0.196855
-0.198746
-0.333679
-0.40754
-0.703271
-0.661031
-0.120254
-0.0238629
-0.00519793
-67.1076
47.7038
3.30671
2.05095
1.86465
1.34031
1.25098
0.980961
0.928478
0.732646
0.687348
0.474705
0.454454
0.486293
0.486829
0.463964
0.457223
0.418996
0.41026
0.369882
0.361161
0.323259
0.315269
0.281516
0.274596
0.246205
0.241041
0.222378
0.223285
0.245403
0.385726
0.217926
0.151783
0.141052
0.116486
0.111903
0.0962405
0.0931358
0.0811201
0.0786725
0.0687946
0.0667547
0.0583704
0.0566156
0.0492899
0.047717
0.0409692
0.0394339
0.0324584
0.0306914
0.0216559
0.0208393
0.0225668
0.022636
0.0217133
0.0214229
0.0197098
0.0193115
0.0174409
0.0170282
0.015197
0.0147868
0.0129513
0.0124885
0.0102192
0.00944915
0.00500841
0.00283542
-0.0111529
-0.0206616
-0.0858873
-0.233339
-0.212687
-0.382282
-0.44255
-0.833392
-0.799177
-0.094264
-0.0161482
-0.00338744
-66.7211
44.9843
3.91809
2.20211
2.11081
1.45401
1.4121
1.0748
1.05019
0.804709
0.78327
0.51041
0.500882
0.546342
0.546725
0.51731
0.51411
0.465614
0.461485
0.410442
0.406326
0.358465
0.354696
0.312079
0.308812
0.272884
0.270426
0.246166
0.246374
0.263932
0.462606
0.234728
0.16315
0.158344
0.128112
0.125977
0.106335
0.104875
0.0897449
0.088592
0.0761407
0.0751794
0.0646084
0.0637815
0.054547
0.0538061
0.0453072
0.0445844
0.0358094
0.0349707
0.0233442
0.0229594
0.0253754
0.0254138
0.0242225
0.0240845
0.0219104
0.0217222
0.0193578
0.0191631
0.0168534
0.0166603
0.0143533
0.0141363
0.0113102
0.0109529
0.00551549
0.00452238
-0.0121845
-0.0164155
-0.0877748
-0.276547
-0.219017
-0.435258
-0.464337
-0.980515
-0.96415
-0.0432022
-0.00581928
-0.00117806
-66.3345
44.9842
3.91809
2.20211
2.11081
1.45401
1.4121
1.0748
1.05019
0.80471
0.783271
0.51041
0.500882
0.546343
0.546725
0.51731
0.51411
0.465614
0.461486
0.410442
0.406326
0.358466
0.354697
0.312079
0.308812
0.272885
0.270426
0.246167
0.246374
0.263933
0.462607
0.234729
0.163151
0.158344
0.128113
0.125977
0.106335
0.104875
0.0897451
0.0885923
0.0761409
0.0751796
0.0646086
0.0637817
0.0545472
0.0538062
0.0453073
0.0445845
0.0358095
0.0349708
0.0233442
0.0229595
0.0253755
0.0254139
0.0242226
0.0240846
0.0219105
0.0217223
0.019358
0.0191632
0.0168535
0.0166604
0.0143534
0.0141364
0.0113103
0.010953
0.00551568
0.00452259
-0.0121841
-0.016415
-0.087773
-0.276542
-0.219013
-0.435252
-0.464331
-0.980505
-0.964139
-0.0432017
-0.00581921
-0.00117809
-66.3345
47.7038
3.30671
2.05095
1.86465
1.34031
1.25098
0.980961
0.928478
0.732646
0.687348
0.474705
0.454454
0.486293
0.486829
0.463964
0.457223
0.418996
0.41026
0.369883
0.361161
0.323259
0.31527
0.281517
0.274596
0.246206
0.241041
0.222379
0.223285
0.245404
0.385727
0.217927
0.151783
0.141052
0.116486
0.111904
0.0962407
0.0931361
0.0811203
0.0786727
0.0687948
0.0667549
0.0583706
0.0566158
0.0492901
0.0477172
0.0409694
0.0394341
0.0324586
0.0306915
0.021656
0.0208394
0.0225668
0.0226361
0.0217134
0.021423
0.0197099
0.0193116
0.017441
0.0170283
0.0151971
0.0147869
0.0129514
0.0124886
0.0102194
0.00944928
0.00500859
0.00283563
-0.0111524
-0.020661
-0.0858856
-0.233335
-0.212683
-0.382277
-0.442544
-0.833383
-0.799168
-0.0942629
-0.016148
-0.00338743
-66.7211
50.4042
2.76474
1.85701
1.63202
1.2092
1.0971
0.878419
0.812496
0.654561
0.598119
0.431304
0.405943
0.427495
0.427869
0.409973
0.401597
0.371198
0.360301
0.328057
0.317163
0.286856
0.276874
0.249881
0.241239
0.218598
0.212196
0.197808
0.199348
0.222147
0.321172
0.197059
0.1382
0.124314
0.104061
0.0982735
0.0856445
0.0817535
0.0721129
0.0690506
0.0611354
0.0585841
0.0518676
0.0496729
0.0438029
0.0418352
0.036423
0.0345014
0.0288994
0.026703
0.019639
0.0186176
0.0198246
0.019898
0.019179
0.0188184
0.0174567
0.0169599
0.0154658
0.0149501
0.0134838
0.0129705
0.0114946
0.0109131
0.00906847
0.00809245
0.00441085
0.00162134
-0.0102999
-0.0226784
-0.0807091
-0.196851
-0.198743
-0.333675
-0.407534
-0.703263
-0.661024
-0.120252
-0.0238626
-0.00519785
-67.1076
53.0809
2.2828
1.63576
1.4073
1.06567
0.947473
0.769766
0.700195
0.572417
0.513305
0.382245
0.355556
0.369545
0.36964
0.355601
0.346851
0.32262
0.311196
0.285378
0.273942
0.24964
0.239158
0.217511
0.208442
0.190341
0.183671
0.1726
0.174561
0.195841
0.265543
0.173581
0.122818
0.10783
0.0910571
0.0849173
0.0746989
0.0706011
0.0628426
0.0596227
0.0532615
0.05058
0.0451837
0.0428772
0.0381597
0.0360911
0.0317372
0.0297159
0.0252041
0.0229092
0.0173804
0.0163067
0.0171277
0.0171917
0.0166303
0.0162538
0.0151689
0.0146482
0.0134516
0.01291
0.0117326
0.0111926
0.0100022
0.00938815
0.0078829
0.00684389
0.00377748
0.000772385
-0.00942906
-0.0228695
-0.0732079
-0.164938
-0.179481
-0.287515
-0.363649
-0.586661
-0.542822
-0.128467
-0.0284681
-0.00643245
-67.4939
55.733
1.85135
1.39777
1.18711
0.913207
0.800231
0.656788
0.590223
0.487526
0.431369
0.329011
0.303541
0.31215
0.311976
0.301018
0.292724
0.27353
0.262667
0.242123
0.231236
0.211872
0.201889
0.184639
0.176007
0.161627
0.155322
0.146871
0.149001
0.167599
0.216381
0.148455
0.106005
0.0914177
0.077628
0.0717243
0.0635086
0.0595953
0.0533908
0.0503205
0.0452405
0.0426846
0.0383764
0.0361779
0.0324107
0.0304385
0.0269581
0.0250302
0.0214201
0.0192449
0.0149436
0.0139201
0.0144612
0.0145104
0.0140743
0.0137177
0.0128587
0.0123635
0.0114112
0.0108954
0.00995581
0.00944083
0.00848665
0.00789891
0.00667873
0.00567649
0.00314171
0.000211335
-0.00842857
-0.0215847
-0.064051
-0.136112
-0.156479
-0.242631
-0.313889
-0.480733
-0.439439
-0.124106
-0.0299551
-0.00699642
-67.88
58.3618
1.46126
1.15006
0.969448
0.754303
0.654207
0.540735
0.481695
0.400773
0.35128
0.272702
0.250164
0.255106
0.254744
0.246329
0.239033
0.224106
0.214525
0.198482
0.188869
0.173728
0.164911
0.151422
0.143801
0.132589
0.127058
0.120719
0.122782
0.138149
0.171887
0.122311
0.0880771
0.0749737
0.0638836
0.0586239
0.0521463
0.0486812
0.0438137
0.0410989
0.0371186
0.0348594
0.0314848
0.0295415
0.02659
0.0248463
0.022117
0.0204119
0.0175789
0.0156657
0.0123757
0.011471
0.0118144
0.0118487
0.0115152
0.0112017
0.0105339
0.0100972
0.00935338
0.00889779
0.00816214
0.00770666
0.00695653
0.00643502
0.00546588
0.00457042
0.00252181
-0.000121287
-0.00724737
-0.0191274
-0.0537101
-0.109353
-0.130846
-0.198343
-0.260305
-0.383131
-0.347018
-0.110899
-0.0285944
-0.00687076
-68.2659
60.9703
1.10392
0.897128
0.753166
0.590796
0.508718
0.422504
0.374043
0.312763
0.272356
0.214151
0.195687
0.198275
0.197834
0.191594
0.185648
0.174469
0.166641
0.154585
0.146724
0.135332
0.12812
0.11797
0.11174
0.103325
0.0988274
0.0942312
0.0960317
0.107965
0.130726
0.0955531
0.0693045
0.0584494
0.0499061
0.0455723
0.0406636
0.0378233
0.0341506
0.0319279
0.028928
0.0270789
0.0245361
0.0229455
0.020721
0.0192935
0.017235
0.0158387
0.0137009
0.0121416
0.00971255
0.00897195
0.00918
0.00920165
0.00895529
0.00869988
0.00819999
0.00784318
0.00728408
0.00691143
0.0063573
0.0059843
0.0054173
0.00498906
0.00425012
0.00351052
0.00192572
-0.00027455
-0.00587596
-0.0157619
-0.0425267
-0.0839604
-0.103372
-0.154276
-0.204286
-0.291886
-0.262597
-0.0915387
-0.0248105
-0.00610023
-68.6515
63.5624
0.771329
0.641683
0.537621
0.424078
0.363394
0.302763
0.266904
0.223918
0.194143
0.15401
0.140368
0.141565
0.141156
0.136848
0.132472
0.124698
0.118927
0.110519
0.104719
0.0967679
0.0914459
0.0843614
0.0797657
0.0739041
0.0706005
0.0674875
0.0688759
0.077348
0.091882
0.0684382
0.0499162
0.0418326
0.0357603
0.0325438
0.0290983
0.0269987
0.0244295
0.0227882
0.0206914
0.0193262
0.0175492
0.0163749
0.0148202
0.0137661
0.0123265
0.0112952
0.00979974
0.00865237
0.00698184
0.006435
0.0065531
0.00656538
0.00639579
0.0062079
0.00586036
0.0055973
0.00520735
0.00493236
0.00454524
0.00426974
0.00387255
0.00355556
0.00303442
0.00248445
0.00135428
-0.000291737
-0.00433314
-0.0117212
-0.0307565
-0.0594484
-0.0746384
-0.110245
-0.146764
-0.205316
-0.183847
-0.0680053
-0.0191058
-0.00477984
-69.0369
66.1423
0.456008
0.385215
0.322456
0.255246
0.218068
0.182032
0.160049
0.134545
0.116345
0.09281
0.084456
0.0849194
0.0846339
0.082105
0.0794326
0.0748468
0.0713177
0.066349
0.0628009
0.0580991
0.0548428
0.0506534
0.0478422
0.0443809
0.0423661
0.0405638
0.0414369
0.0464884
0.0545575
0.0411266
0.0301105
0.0251354
0.0215004
0.0195245
0.0174791
0.016193
0.0146714
0.0136666
0.0124256
0.01159
0.0105384
0.00981961
0.0088994
0.00825417
0.00740176
0.00677039
0.00588474
0.00518407
0.0042062
0.00387148
0.00393045
0.00393642
0.00383705
0.00372233
0.00351737
0.00335652
0.00312605
0.00295779
0.00272874
0.00256006
0.00232461
0.00213024
0.00181989
0.00148161
0.000803499
-0.000213087
-0.00265643
-0.00721459
-0.0186
-0.0354764
-0.0450881
-0.0661767
-0.0883602
-0.121947
-0.108872
-0.0417942
-0.0120182
-0.00304176
-69.4222
68.7149
0.15088
0.128425
0.107468
0.0852117
0.0726968
0.060738
0.0533357
0.0448794
0.0387597
0.0310026
0.028191
0.0283036
0.0282015
0.0273675
0.0264693
0.0249533
0.0237665
0.0221224
0.0209288
0.0193725
0.018277
0.0168904
0.0159447
0.0147999
0.0141232
0.0135331
0.0138307
0.0155082
0.018093
0.0137185
0.0100632
0.00838471
0.00717404
0.006508
0.00582965
0.00539671
0.00489269
0.00455457
0.00414359
0.00386242
0.0035142
0.00327236
0.00296763
0.00275052
0.00246818
0.00225571
0.00196235
0.00172687
0.00140486
0.00129223
0.00130994
0.00131168
0.00127894
0.00124039
0.00117264
0.00111854
0.00104228
0.000985673
0.000909831
0.000853069
0.000775035
0.000709577
0.00060648
0.000492375
0.000266264
-7.73526e-05
-0.000895105
-0.00243485
-0.00622376
-0.011795
-0.0150788
-0.0220649
-0.0295002
-0.0404446
-0.0360562
-0.014091
-0.00409856
-0.00104337
-69.8074
68.7223
0.136746
0.103798
0.0777627
0.0524442
0.0390547
0.0275034
0.0210896
0.0150025
0.0125849
0.011923
0.011573
0.0110198
0.0105817
0.00996787
0.00952197
0.0089397
0.00852174
0.00797859
0.00758767
0.00707814
0.00671277
0.00623967
0.00590855
0.00549551
0.00524274
0.00500645
0.00508501
0.00563357
0.00650278
0.00486712
0.0034887
0.0028493
0.00237957
0.00212011
0.00185592
0.00168877
0.00149659
0.00136949
0.00121761
0.00111538
0.00099109
0.0009063
0.000801607
0.00072868
0.000636272
0.000569158
0.000479965
0.000411748
0.000321185
0.000282411
0.000267706
0.000251448
0.000217391
0.000184453
0.00013
8.13252e-05
4.00399e-06
-6.62316e-05
-0.000180005
-0.000287823
-0.000468877
-0.00065088
-0.000971909
-0.00132598
-0.00200105
-0.00287841
-0.00478092
-0.00793247
-0.0152958
-0.0252166
-0.0278858
-0.0350244
-0.0427904
-0.0539065
-0.0469702
-0.0182869
-0.00531287
-0.00135205
-69.1029
66.1646
0.413693
0.311119
0.233259
0.156855
0.117091
0.0823047
0.0632557
0.0448606
0.0376846
0.0357565
0.034727
0.0330548
0.0317521
0.0298969
0.0285714
0.0268125
0.0255702
0.0239297
0.0227677
0.0212286
0.0201426
0.0187133
0.0177289
0.0164801
0.0157276
0.0150068
0.0152362
0.0168879
0.0196085
0.0145911
0.0104365
0.00854111
0.00713029
0.00636051
0.00556387
0.0050673
0.00448716
0.00410946
0.00365084
0.00334701
0.00297169
0.00271969
0.00240355
0.00218682
0.0019078
0.00170836
0.00143906
0.00123614
0.000961483
0.000846268
0.000803181
0.000755056
0.000652127
0.000554218
0.000389767
0.000245121
1.1728e-05
-0.000196954
-0.000540252
-0.00086054
-0.00140659
-0.00194708
-0.00291441
-0.0039651
-0.00599506
-0.00859423
-0.0142928
-0.023629
-0.0457852
-0.0759399
-0.0834786
-0.105048
-0.128237
-0.162442
-0.141781
-0.0542324
-0.0155781
-0.00394159
-67.3086
63.6006
0.701111
0.517451
0.388698
0.259801
0.194927
0.136477
0.105396
0.07427
0.0625743
0.0595541
0.0579068
0.055075
0.0529446
0.0498047
0.0476381
0.0446647
0.0426347
0.0398616
0.0379629
0.035361
0.0335862
0.0311692
0.0295599
0.0274449
0.0262111
0.024969
0.0253306
0.0280994
0.0330238
0.0242805
0.017294
0.0142135
0.0118554
0.010602
0.00925981
0.00844917
0.00746963
0.00685267
0.00607788
0.00558151
0.00494735
0.00453565
0.00400151
0.00364744
0.00317615
0.00285035
0.00239549
0.00206339
0.0015954
0.00140724
0.00133885
0.00126085
0.00108666
0.000926644
0.00064874
0.000412465
1.84617e-05
-0.000322293
-0.000901422
-0.00142423
-0.00234454
-0.0032262
-0.00485357
-0.00656505
-0.00996631
-0.0141861
-0.0236592
-0.0388126
-0.0759546
-0.127568
-0.13851
-0.175007
-0.213244
-0.273172
-0.239267
-0.0882222
-0.0247626
-0.00619358
-65.5142
61.0261
1.00633
0.721586
0.544142
0.360185
0.272507
0.189554
0.147537
0.102902
0.0871171
0.0832967
0.0811339
0.0770671
0.0741775
0.0696737
0.0667371
0.0624791
0.0597288
0.0557586
0.0531862
0.0494603
0.0470554
0.0435928
0.0414111
0.0383744
0.036695
0.0348672
0.0353286
0.0392247
0.0469858
0.0338996
0.0239952
0.0198571
0.0165363
0.014847
0.0129345
0.0118378
0.0104376
0.00960218
0.00849378
0.0078215
0.00691411
0.0063565
0.00559227
0.00511275
0.00443867
0.00399749
0.00334701
0.00289608
0.00221812
0.00196342
0.00187491
0.0017705
0.00152062
0.00130378
0.000906045
0.000586114
2.30625e-05
-0.000438101
-0.00126485
-0.00197202
-0.00328402
-0.00447551
-0.00678937
-0.00909741
-0.0139048
-0.0195678
-0.0327983
-0.0531168
-0.105545
-0.180823
-0.19252
-0.244896
-0.297382
-0.387655
-0.341438
-0.118709
-0.0321515
-0.00790404
-63.7196
58.4374
1.33722
0.92143
0.699847
0.456719
0.349898
0.240993
0.189784
0.13038
0.111181
0.106973
0.104437
0.0990122
0.095475
0.0894799
0.0858889
0.0802332
0.0768718
0.0715996
0.0684556
0.0635068
0.060567
0.0559651
0.0532964
0.0492496
0.0471848
0.0446737
0.0451892
0.0501954
0.0617816
0.0433915
0.0304658
0.0254679
0.0211519
0.0191009
0.0165765
0.0152385
0.0133829
0.0123626
0.0108922
0.0100709
0.00886687
0.00818561
0.00717162
0.00658584
0.00569187
0.00515301
0.00429054
0.00373784
0.00282391
0.00251294
0.0024116
0.00228595
0.00195326
0.00168815
0.00116023
0.000769484
2.35834e-05
-0.000539289
-0.00163306
-0.00249562
-0.00422834
-0.00567992
-0.00872541
-0.0115298
-0.0178091
-0.0246468
-0.041654
-0.0661366
-0.134222
-0.236621
-0.244902
-0.314781
-0.38001
-0.507598
-0.45067
-0.143748
-0.037048
-0.00890178
-61.9247
55.8311
1.70234
1.1135
0.856413
0.5478
0.427372
0.290125
0.232358
0.15625
0.134646
0.130582
0.127856
0.120882
0.116871
0.10919
0.105123
0.0978956
0.0940912
0.0873556
0.0837973
0.0774728
0.074145
0.06826
0.0652369
0.0600455
0.0576924
0.0543592
0.0548702
0.0609029
0.0777765
0.0526647
0.0366192
0.0310514
0.0256768
0.0233738
0.0201711
0.01866
0.0162949
0.015141
0.0132647
0.0123356
0.0107987
0.010028
0.00873384
0.00807124
0.00693085
0.00632145
0.00522167
0.00459405
0.00340558
0.00305407
0.00294925
0.00280968
0.00238319
0.00208303
0.00140893
0.000967054
1.67775e-05
-0.000619246
-0.00201053
-0.00298442
-0.0051839
-0.00682057
-0.0106711
-0.0138232
-0.0216911
-0.029319
-0.0502106
-0.0774122
-0.161526
-0.296184
-0.294821
-0.384853
-0.460143
-0.634921
-0.569902
-0.160779
-0.0388023
-0.00906387
-60.1296
53.2046
2.11115
1.29231
1.01504
0.631354
0.505519
0.336077
0.275666
0.17994
0.157409
0.154138
0.151445
0.142633
0.138413
0.128755
0.124484
0.115421
0.111428
0.102984
0.0992495
0.0913191
0.0878254
0.0804405
0.0772642
0.0707278