/*--------------------------------*- C++ -*----------------------------------*\
| =========                 |                                                 |
| \\      /  F ield         | OpenFOAM: The Open Source CFD Toolbox           |
|  \\    /   O peration     | Version:  5.x                                   |
|   \\  /    A nd           | Web:      www.OpenFOAM.org                      |
|    \\/     M anipulation  |                                                 |
\*---------------------------------------------------------------------------*/
FoamFile
{
    version     2.0;
    format      ascii;
    class       volScalarField;
    location    "6.2";
    object      T;
}
// * * * * * * * * * * * * * * * * * * * * * * * * * * * * * * * * * * * * * //

dimensions      [0 0 0 1 0 0 0];

internalField   nonuniform List<scalar> 
3200
(
2.08493
2.43609
2.45612
2.60097
2.61014
2.68246
2.68728
2.72914
2.73201
2.75852
2.76028
2.7756
2.77695
2.79367
2.79503
2.81099
2.81227
2.82694
2.82811
2.84137
2.84242
2.85426
2.85519
2.86564
2.86646
2.87567
2.8764
2.88468
2.88541
2.89419
2.90189
2.90244
2.90742
2.90779
2.91159
2.91188
2.91492
2.91515
2.91762
2.9178
2.91982
2.91997
2.92161
2.92173
2.92306
2.92315
2.9242
2.92428
2.92506
2.92511
2.92558
2.92562
2.92609
2.92612
2.92648
2.92651
2.92671
2.92671
2.92668
2.92666
2.92629
2.92624
2.92534
2.92523
2.92342
2.9232
2.91961
2.91911
2.9112
2.90981
2.88732
2.84807
2.84369
2.77989
2.77237
2.65304
2.64809
2.64746
2.64733
2.64731
2.2604
2.52908
2.57093
2.68681
2.70638
2.76422
2.77448
2.80785
2.81396
2.83503
2.83878
2.85106
2.85392
2.86716
2.87004
2.88268
2.88539
2.89702
2.89949
2.91
2.91222
2.9216
2.92357
2.93186
2.9336
2.9409
2.94245
2.94904
2.95061
2.95788
2.96435
2.96555
2.96952
2.9703
2.97332
2.97393
2.97634
2.97683
2.97879
2.97918
2.98078
2.9811
2.9824
2.98266
2.98371
2.98392
2.98475
2.98492
2.98553
2.98565
2.98602
2.9861
2.98647
2.98655
2.98683
2.98688
2.98704
2.98705
2.98702
2.98699
2.98669
2.98658
2.98586
2.98562
2.98418
2.98369
2.98081
2.97974
2.9733
2.97024
2.95059
2.91846
2.90909
2.85824
2.84242
2.74971
2.73925
2.73752
2.73716
2.73709
2.42513
2.63113
2.68278
2.7765
2.80109
2.84787
2.86076
2.88765
2.89531
2.91223
2.91693
2.9269
2.93048
2.94106
2.94466
2.95477
2.95815
2.96746
2.97055
2.97896
2.98174
2.98924
2.99171
2.99834
3.00052
3.00636
3.00831
3.01361
3.01559
3.02161
3.02703
3.02853
3.03174
3.03272
3.03515
3.03591
3.03784
3.03845
3.04002
3.04051
3.04179
3.0422
3.04324
3.04357
3.04441
3.04467
3.04533
3.04554
3.04603
3.04617
3.04647
3.04658
3.04687
3.04696
3.04719
3.04725
3.04738
3.04739
3.04737
3.04732
3.04709
3.04694
3.04637
3.04606
3.0449
3.04428
3.04194
3.04059
3.03527
3.03134
3.01436
2.98794
2.97616
2.93519
2.91553
2.84309
2.83007
2.82753
2.82698
2.82686
2.58161
2.73937
2.79294
2.86896
2.89491
2.93288
2.94648
2.96822
2.97628
2.98992
2.99487
3.00298
3.00676
3.01524
3.01902
3.02713
3.03068
3.03815
3.04139
3.04815
3.05106
3.05709
3.05968
3.065
3.06729
3.07198
3.07403
3.0783
3.0804
3.08535
3.08985
3.09146
3.09405
3.09509
3.09704
3.09784
3.09939
3.10003
3.10129
3.10181
3.10284
3.10327
3.1041
3.10445
3.10512
3.1054
3.10593
3.10614
3.10654
3.10669
3.10693
3.10704
3.10728
3.10737
3.10756
3.10762
3.10772
3.10774
3.10772
3.10767
3.10748
3.10733
3.10686
3.10654
3.10559
3.10494
3.10303
3.1016
3.09718
3.09295
3.0785
3.05683
3.04439
3.01128
2.99076
2.9341
2.92047
2.91747
2.91678
2.91663
2.73179
2.85177
2.9022
2.96342
2.98825
3.01887
3.03188
3.04934
3.05704
3.06795
3.07269
3.07925
3.08286
3.08961
3.09321
3.09967
3.10305
3.10901
3.1121
3.11748
3.12026
3.12507
3.12754
3.13178
3.13396
3.13771
3.13966
3.14309
3.14509
3.14912
3.1528
3.15434
3.15643
3.15742
3.15898
3.15974
3.16098
3.16159
3.1626
3.16309
3.16391
3.16432
3.16499
3.16531
3.16585
3.16612
3.16654
3.16674
3.16706
3.1672
3.1674
3.1675
3.16769
3.16778
3.16793
3.16799
3.16807
3.16808
3.16807
3.16802
3.16786
3.16772
3.16734
3.16704
3.16628
3.16565
3.16411
3.16272
3.15908
3.15498
3.14293
3.12536
3.11345
3.08687
3.06743
3.02338
3.01044
3.0073
3.00656
3.0064
2.87716
2.96695
3.01103
3.05934
3.08136
3.10556
3.11709
3.13085
3.13767
3.14624
3.15043
3.15563
3.15882
3.1641
3.16728
3.17233
3.17532
3.17998
3.18271
3.18693
3.18938
3.19314
3.19532
3.19865
3.20057
3.20351
3.20523
3.20793
3.20971
3.2129
3.21583
3.2172
3.21885
3.21973
3.22095
3.22162
3.22259
3.22313
3.22392
3.22436
3.225
3.22536
3.22588
3.22617
3.2266
3.22683
3.22716
3.22734
3.22759
3.22771
3.22787
3.22796
3.22811
3.22819
3.2283
3.22835
3.22841
3.22843
3.22842
3.22837
3.22825
3.22812
3.22783
3.22755
3.22695
3.2264
3.22517
3.22394
3.22101
3.21732
3.20758
3.19366
3.18309
3.16218
3.14509
3.11142
3.10002
3.09705
3.09632
3.09616
3.01895
3.08396
3.1197
3.15631
3.17438
3.19275
3.20222
3.21264
3.21822
3.2247
3.22814
3.23209
3.23471
3.23868
3.24128
3.24508
3.24753
3.25103
3.25327
3.25644
3.25845
3.26128
3.26306
3.26557
3.26714
3.26936
3.27077
3.2728
3.27427
3.27669
3.27892
3.28005
3.2813
3.28202
3.28294
3.28349
3.28422
3.28467
3.28526
3.28562
3.2861
3.2864
3.28679
3.28703
3.28735
3.28754
3.28779
3.28793
3.28812
3.28822
3.28834
3.28842
3.28853
3.28859
3.28868
3.28872
3.28877
3.28878
3.28877
3.28873
3.28864
3.28853
3.28831
3.28809
3.28763
3.28718
3.28624
3.28522
3.28296
3.27991
3.2724
3.26182
3.25315
3.23733
3.22341
3.19857
3.18927
3.1867
3.18605
3.18591
3.15813
3.20214
3.22833
3.25402
3.26739
3.2803
3.28731
3.29461
3.29875
3.30328
3.30582
3.3086
3.31054
3.31331
3.31523
3.31788
3.31969
3.32214
3.32378
3.326
3.32748
3.32946
3.33078
3.33253
3.33369
3.33523
3.33628
3.3377
3.33879
3.34049
3.34206
3.34289
3.34377
3.3443
3.34495
3.34536
3.34587
3.34619
3.34661
3.34687
3.34721
3.34743
3.3477
3.34788
3.3481
3.34824
3.34842
3.34852
3.34865
3.34873
3.34881
3.34887
3.34895
3.34899
3.34905
3.34909
3.34912
3.34913
3.34912
3.34909
3.34903
3.34895
3.34879
3.34863
3.34831
3.34797
3.34731
3.34655
3.34494
3.34267
3.33735
3.32991
3.3235
3.31241
3.30217
3.28509
3.27825
3.27627
3.27577
3.27565
3.29556
3.32103
3.33698
3.35223
3.36042
3.36809
3.37239
3.37672
3.37925
3.38194
3.38349
3.38515
3.38633
3.38797
3.38915
3.39072
3.39182
3.39327
3.39428
3.39559
3.3965
3.39767
3.39847
3.39951
3.40022
3.40113
3.40177
3.40262
3.40328
3.40429
3.40522
3.40574
3.40626
3.40658
3.40697
3.40721
3.40752
3.40772
3.40796
3.40813
3.40833
3.40846
3.40862
3.40873
3.40886
3.40895
3.40905
3.40911
3.40919
3.40924
3.40929
3.40932
3.40937
3.4094
3.40943
3.40945
3.40947
3.40948
3.40947
3.40946
3.40942
3.40937
3.40928
3.40917
3.40898
3.40878
3.40838
3.40792
3.40695
3.40555
3.40238
3.39796
3.39403
3.38746
3.3812
3.37121
3.36703
3.36579
3.36547
3.36539
3.43196
3.4403
3.44566
3.45071
3.45347
3.45602
3.45746
3.4589
3.45975
3.46064
3.46117
3.46171
3.46211
3.46266
3.46305
3.46357
3.46394
3.46442
3.46476
3.46519
3.4655
3.46589
3.46616
3.4665
3.46674
3.46704
3.46726
3.46754
3.46776
3.4681
3.46841
3.46858
3.46875
3.46886
3.46899
3.46907
3.46917
3.46924
3.46932
3.46938
3.46944
3.46949
3.46954
3.46958
3.46962
3.46965
3.46968
3.4697
3.46973
3.46975
3.46976
3.46977
3.46979
3.4698
3.46981
3.46982
3.46982
3.46983
3.46982
3.46982
3.46981
3.46979
3.46976
3.46972
3.46966
3.46959
3.46946
3.4693
3.46898
3.46851
3.46745
3.46599
3.46466
3.46249
3.46039
3.4571
3.45569
3.45527
3.45516
3.45513
3.43129
3.4402
3.44638
3.45304
3.45713
3.46157
3.4644
3.46764
3.46973
3.47213
3.47361
3.47523
3.47642
3.47806
3.47924
3.48079
3.48189
3.48329
3.48427
3.4855
3.48636
3.48744
3.48819
3.48913
3.48978
3.49061
3.4912
3.49196
3.49258
3.49351
3.49439
3.49488
3.49539
3.49572
3.49611
3.49637
3.49669
3.49691
3.49718
3.49737
3.4976
3.49776
3.49795
3.49808
3.49825
3.49836
3.49849
3.49858
3.49869
3.49876
3.49883
3.49889
3.49896
3.49902
3.49909
3.49914
3.49921
3.49925
3.49931
3.49935
3.4994
3.49944
3.49948
3.49951
3.49954
3.49956
3.49957
3.49955
3.49948
3.49931
3.49885
3.49813
3.49735
3.49592
3.4944
3.49187
3.49079
3.49047
3.49038
3.49036
3.29352
3.32072
3.33912
3.35924
3.37136
3.38476
3.39317
3.40297
3.40918
3.41642
3.42081
3.4257
3.42926
3.43419
3.43772
3.4424
3.44566
3.44989
3.45279
3.45652
3.45907
3.46233
3.46456
3.4674
3.46934
3.47184
3.47358
3.47589
3.47772
3.48054
3.48318
3.48465
3.48619
3.48717
3.48834
3.48912
3.49009
3.49074
3.49156
3.49211
3.4928
3.49326
3.49385
3.49425
3.49474
3.49507
3.49548
3.49575
3.49607
3.49627
3.49649
3.49665
3.49688
3.49705
3.49727
3.49742
3.49762
3.49776
3.49793
3.49805
3.4982
3.49831
3.49844
3.49852
3.49862
3.49867
3.4987
3.49865
3.49843
3.49793
3.49657
3.49438
3.49207
3.48776
3.48323
3.47557
3.47234
3.47139
3.47114
3.47108
3.15466
3.20158
3.23179
3.26575
3.28555
3.30816
3.32189
3.33843
3.34858
3.36083
3.368
3.37623
3.38203
3.39038
3.39615
3.40407
3.4094
3.41654
3.42129
3.42759
3.43176
3.43727
3.4409
3.4457
3.44888
3.45309
3.45594
3.45984
3.46283
3.46758
3.47202
3.47442
3.47701
3.4786
3.48058
3.48186
3.48349
3.48456
3.48594
3.48684
3.48801
3.48877
3.48976
3.49041
3.49124
3.49178
3.49248
3.49291
3.49346
3.49378
3.49415
3.49442
3.49481
3.49508
3.49545
3.4957
3.49604
3.49626
3.49656
3.49675
3.49701
3.49718
3.4974
3.49753
3.4977
3.49778
3.49784
3.49775
3.4974
3.49658
3.49433
3.49064
3.48686
3.47961
3.47219
3.45908
3.4538
3.45228
3.45189
3.4518
3.01392
3.08312
3.12431
3.17283
3.19963
3.23191
3.2505
3.27416
3.2879
3.30543
3.31514
3.32685
3.33471
3.34668
3.35449
3.36584
3.37306
3.38328
3.38972
3.39874
3.40439
3.41228
3.4172
3.42407
3.42838
3.4344
3.43826
3.44383
3.44786
3.45462
3.46094
3.46418
3.46787
3.47002
3.47286
3.47458
3.47692
3.47836
3.48034
3.48156
3.48323
3.48426
3.48568
3.48656
3.48776
3.48849
3.48948
3.49007
3.49085
3.49129
3.49182
3.49218
3.49274
3.4931
3.49364
3.49397
3.49446
3.49476
3.49518
3.49545
3.49582
3.49605
3.49636
3.49655
3.49679
3.4969
3.49698
3.49687
3.49639
3.49529
3.49214
3.4869
3.4818
3.47147
3.46137
3.44228
3.43511
3.43313
3.43263
3.43252
2.87041
2.96577
3.01654
3.08078
3.11348
3.15621
3.1789
3.21028
3.22707
3.25036
3.2622
3.27763
3.28722
3.30314
3.31269
3.32777
3.33659
3.35018
3.35805
3.37003
3.37693
3.3874
3.39342
3.40254
3.4078
3.4158
3.42051
3.42787
3.43279
3.44169
3.44998
3.45392
3.45879
3.46142
3.46517
3.46728
3.47039
3.47215
3.47477
3.47626
3.47848
3.47974
3.48163
3.4827
3.48429
3.48518
3.4865
3.48722
3.48826
3.48879
3.4895
3.48994
3.49068
3.49112
3.49183
3.49224
3.49288
3.49325
3.49382
3.49414
3.49463
3.49491
3.49533
3.49556
3.49588
3.49601
3.49613
3.496
3.4954
3.49409
3.49003
3.48315
3.47695
3.46332
3.45092
3.42501
3.41621
3.41392
3.41336
3.41323
2.72309
2.85021
2.90823
2.98998
3.02694
3.0813
3.10696
3.14698
3.16598
3.19574
3.20912
3.22864
3.23947
3.25985
3.27067
3.28995
3.29994
3.31731
3.32621
3.34152
3.34933
3.36271
3.36952
3.38117
3.38712
3.39733
3.40265
3.41202
3.41755
3.42878
3.43919
3.44363
3.44979
3.45277
3.45756
3.45994
3.46391
3.4659
3.46925
3.47093
3.47377
3.4752
3.47761
3.47882
3.48085
3.48186
3.48354
3.48436
3.48569
3.48629
3.48718
3.48768
3.48863
3.48913
3.49003
3.4905
3.49132
3.49174
3.49246
3.49283
3.49346
3.49377
3.49431
3.49456
3.49497
3.49513
3.49529
3.49515
3.49444
3.49299
3.48804
3.47938
3.47239
3.45512
3.441
3.40704
3.39706
3.39463
3.39406
3.39393
2.57068
2.73741
2.79896
2.90098
2.93969
3.00755
3.03444
3.08453
3.10446
3.14177
3.15579
3.17999
3.19135
3.21695
3.22831
3.25251
3.263
3.28477
3.29412
3.31331
3.32151
3.33827
3.34543
3.36002
3.36627
3.37906
3.38464
3.39632
3.40209
3.4159
3.42865
3.43326
3.44093
3.44404
3.45003
3.45253
3.4575
3.45959
3.46379
3.46556
3.46911
3.47061
3.47363
3.4749
3.47745
3.47851
3.48062
3.48148
3.48314
3.48377
3.48488
3.4854
3.48659
3.48712
3.48826
3.48875
3.48977
3.49021
3.49112
3.49151
3.49229
3.49262
3.49329
3.49356
3.49408
3.49425
3.49446
3.49432
3.49352
3.49204
3.48619
3.47554
3.46825
3.44679
3.43188
3.38812
3.3776
3.37528
3.37475
3.37463
2.41161
2.62882
2.68808
2.81452
2.85129
2.93544
2.961
3.02328
3.04224
3.08873
3.10206
3.13187
3.14265
3.17461
3.18544
3.21561
3.2256
3.25273
3.26163
3.28554
3.29334
3.31422
3.32103
3.33921
3.34516
3.36107
3.36637
3.38085
3.38631
3.40307
3.41843
3.42277
3.43225
3.4352
3.44265
3.44503
3.45122
3.45321
3.45843
3.46011
3.46454
3.46597
3.46973
3.47094
3.47411
3.47512
3.47775
3.47857
3.48064
3.48124
3.4826
3.4831
3.48459
3.48509
3.48651
3.48697
3.48825
3.48867
3.4898
3.49016
3.49115
3.49146
3.4923
3.49255
3.4932
3.49336
3.49364
3.49352
3.49261
3.49126
3.48454
3.47157
3.46467
3.4382
3.42391
3.36788
3.35781
3.35585
3.35542
3.35533
2.24384
2.52654
2.57452
2.73163
2.76098
2.86567
2.88608
2.96376
2.97893
3.03703
3.04766
3.0845
3.09311
3.13313
3.14179
3.17952
3.18751
3.22142
3.22854
3.25841
3.26465
3.29074
3.29618
3.31889
3.32364
3.34351
3.34775
3.36575
3.37007
3.39029
3.40865
3.41208
3.42382
3.42618
3.43547
3.43737
3.4451
3.44669
3.45321
3.45456
3.46009
3.46123
3.46593
3.46689
3.47085
3.47166
3.47495
3.47561
3.4782
3.47868
3.48036
3.48076
3.48262
3.48302
3.48479
3.48517
3.48676
3.4871
3.48851
3.4888
3.49003
3.49028
3.49132
3.49153
3.49234
3.49247
3.49284
3.49276
3.49173
3.49069
3.48314
3.46736
3.46187
3.42913
3.41762
3.34579
3.3377
3.33636
3.33608
3.33602
2.06477
2.43365
2.45658
2.65386
2.66766
2.79926
2.80887
2.90674
2.91389
2.98722
2.99222
3.03826
3.04231
3.09289
3.09698
3.14462
3.14839
3.19118
3.19454
3.23223
3.23517
3.26807
3.27064
3.29928
3.30152
3.32657
3.32857
3.35119
3.3532
3.37758
3.39946
3.40105
3.41578
3.41689
3.42859
3.42948
3.43922
3.43997
3.4482
3.44883
3.45581
3.45635
3.46227
3.46273
3.46773
3.46811
3.47226
3.47257
3.47584
3.47606
3.47817
3.47836
3.48071
3.4809
3.48313
3.48331
3.48532
3.48548
3.48726
3.4874
3.48894
3.48906
3.49038
3.49048
3.49151
3.49157
3.49206
3.49203
3.49084
3.49038
3.48207
3.46273
3.46017
3.4192
3.41373
3.32115
3.31732
3.31683
3.31673
3.31671
2.06477
2.43365
2.45658
2.65386
2.66766
2.79926
2.80887
2.90674
2.91389
2.98721
2.99222
3.03826
3.04231
3.09289
3.09698
3.14462
3.14839
3.19118
3.19454
3.23223
3.23517
3.26807
3.27064
3.29928
3.30152
3.32657
3.32856
3.35119
3.3532
3.37758
3.39946
3.40105
3.41578
3.41689
3.42859
3.42948
3.43922
3.43997
3.4482
3.44883
3.45581
3.45635
3.46227
3.46273
3.46773
3.46811
3.47226
3.47257
3.47584
3.47606
3.47817
3.47836
3.48071
3.4809
3.48313
3.48331
3.48532
3.48548
3.48726
3.4874
3.48894
3.48906
3.49038
3.49048
3.49151
3.49157
3.49206
3.49203
3.49084
3.49038
3.48207
3.46273
3.46017
3.4192
3.41373
3.32115
3.31732
3.31683
3.31674
3.31672
2.24384
2.52654
2.57451
2.73163
2.76098
2.86566
2.88608
2.96376
2.97893
3.03703
3.04766
3.0845
3.09311
3.13313
3.14179
3.17952
3.18751
3.22142
3.22854
3.25841
3.26465
3.29074
3.29618
3.31889
3.32364
3.34351
3.34774
3.36575
3.37007
3.39029
3.40865
3.41208
3.42382
3.42618
3.43547
3.43737
3.4451
3.44669
3.45321
3.45455
3.46009
3.46123
3.46593
3.46689
3.47085
3.47166
3.47495
3.47561
3.4782
3.47868
3.48036
3.48076
3.48262
3.48302
3.48479
3.48517
3.48676
3.4871
3.48851
3.4888
3.49003
3.49028
3.49132
3.49153
3.49234
3.49247
3.49284
3.49276
3.49173
3.49069
3.48314
3.46736
3.46187
3.42913
3.41762
3.34579
3.3377
3.33636
3.33609
3.33603
2.41161
2.62881
2.68808
2.81452
2.85128
2.93544
2.96099
3.02328
3.04224
3.08873
3.10206
3.13186
3.14265
3.17461
3.18544
3.21561
3.2256
3.25273
3.26163
3.28554
3.29334
3.31422
3.32103
3.33921
3.34515
3.36107
3.36637
3.38085
3.38631
3.40307
3.41843
3.42277
3.43225
3.4352
3.44265
3.44503
3.45122
3.45321
3.45843
3.46011
3.46454
3.46597
3.46973
3.47094
3.47411
3.47512
3.47775
3.47857
3.48064
3.48124
3.4826
3.4831
3.48459
3.48509
3.48651
3.48697
3.48825
3.48867
3.4898
3.49016
3.49115
3.49146
3.4923
3.49255
3.4932
3.49336
3.49364
3.49352
3.49261
3.49126
3.48454
3.47157
3.46467
3.4382
3.42391
3.36788
3.35781
3.35585
3.35543
3.35533
2.57068
2.73741
2.79896
2.90098
2.93969
3.00755
3.03444
3.08453
3.10446
3.14177
3.15579
3.17999
3.19135
3.21695
3.22831
3.25251
3.263
3.28477
3.29412
3.31331
3.32151
3.33827
3.34543
3.36002
3.36627
3.37906
3.38464
3.39632
3.40209
3.4159
3.42865
3.43326
3.44093
3.44404
3.45003
3.45253
3.4575
3.45959
3.46379
3.46556
3.46911
3.47061
3.47363
3.4749
3.47745
3.47851
3.48062
3.48148
3.48314
3.48377
3.48488
3.4854
3.48659
3.48712
3.48826
3.48875
3.48977
3.49021
3.49112
3.4915
3.49229
3.49262
3.49329
3.49356
3.49408
3.49425
3.49446
3.49432
3.49352
3.49204
3.48619
3.47554
3.46825
3.44679
3.43188
3.38813
3.3776
3.37528
3.37475
3.37464
2.72309
2.85021
2.90822
2.98998
3.02694
3.0813
3.10696
3.14698
3.16598
3.19574
3.20912
3.22864
3.23947
3.25985
3.27067
3.28995
3.29994
3.31731
3.32621
3.34152
3.34933
3.36271
3.36952
3.38117
3.38712
3.39733
3.40265
3.41202
3.41755
3.42878
3.43919
3.44362
3.44979
3.45277
3.45756
3.45994
3.46391
3.4659
3.46925
3.47093
3.47377
3.4752
3.47761
3.47882
3.48085
3.48186
3.48354
3.48436
3.48569
3.48629
3.48718
3.48768
3.48863
3.48913
3.49003
3.4905
3.49132
3.49174
3.49246
3.49283
3.49346
3.49377
3.49431
3.49456
3.49497
3.49513
3.49529
3.49515
3.49444
3.49299
3.48804
3.47938
3.47239
3.45512
3.441
3.40705
3.39706
3.39463
3.39406
3.39394
2.87041
2.96577
3.01654
3.08078
3.11348
3.15621
3.1789
3.21028
3.22707
3.25036
3.2622
3.27763
3.28722
3.30314
3.31269
3.32777
3.33659
3.35018
3.35805
3.37003
3.37693
3.3874
3.39342
3.40254
3.4078
3.4158
3.42051
3.42787
3.43279
3.44169
3.44998
3.45392
3.45878
3.46142
3.46517
3.46728
3.47039
3.47215
3.47477
3.47626
3.47848
3.47974
3.48163
3.4827
3.48429
3.48518
3.4865
3.48722
3.48826
3.48879
3.4895
3.48994
3.49068
3.49112
3.49183
3.49224
3.49288
3.49325
3.49382
3.49414
3.49463
3.49491
3.49533
3.49556
3.49588
3.49601
3.49613
3.496
3.4954
3.49409
3.49003
3.48315
3.47695
3.46332
3.45092
3.42501
3.41622
3.41392
3.41336
3.41323
3.01392
3.08312
3.12431
3.17283
3.19963
3.23191
3.2505
3.27416
3.2879
3.30543
3.31514
3.32685
3.33471
3.34668
3.35449
3.36584
3.37305
3.38328
3.38972
3.39874
3.40439
3.41227
3.4172
3.42407
3.42838
3.4344
3.43826
3.44383
3.44786
3.45462
3.46094
3.46418
3.46787
3.47002
3.47286
3.47458
3.47692
3.47836
3.48034
3.48156
3.48323
3.48426
3.48568
3.48656
3.48776
3.48849
3.48948
3.49007
3.49085
3.49129
3.49182
3.49218
3.49274
3.4931
3.49364
3.49397
3.49446
3.49476
3.49518
3.49545
3.49582
3.49605
3.49636
3.49655
3.49679
3.4969
3.49698
3.49687
3.49639
3.49529
3.49214
3.4869
3.4818
3.47147
3.46137
3.44228
3.43511
3.43313
3.43263
3.43252
3.15466
3.20158
3.23179
3.26575
3.28555
3.30816
3.32189
3.33843
3.34858
3.36083
3.368
3.37623
3.38203
3.39038
3.39615
3.40407
3.4094
3.41654
3.42129
3.42759
3.43176
3.43727
3.4409
3.4457
3.44888
3.45309
3.45594
3.45984
3.46283
3.46758
3.47202
3.47442
3.47701
3.4786
3.48058
3.48186
3.48349
3.48456
3.48594
3.48684
3.48801
3.48877
3.48976
3.49041
3.49124
3.49178
3.49248
3.49291
3.49346
3.49378
3.49415
3.49442
3.49481
3.49508
3.49545
3.4957
3.49603
3.49626
3.49656
3.49675
3.49701
3.49718
3.4974
3.49753
3.4977
3.49778
3.49784
3.49775
3.4974
3.49658
3.49433
3.49064
3.48686
3.47961
3.47219
3.45908
3.4538
3.45228
3.45189
3.4518
3.29352
3.32072
3.33912
3.35924
3.37136
3.38476
3.39317
3.40297
3.40918
3.41642
3.42081
3.4257
3.42926
3.43419
3.43772
3.4424
3.44566
3.44989
3.45279
3.45652
3.45907
3.46233
3.46456
3.4674
3.46934
3.47184
3.47358
3.47589
3.47772
3.48054
3.48318
3.48465
3.48619
3.48717
3.48834
3.48912
3.49009
3.49074
3.49156
3.49211
3.4928
3.49326
3.49385
3.49425
3.49474
3.49507
3.49548
3.49575
3.49607
3.49627
3.49649
3.49665
3.49688
3.49705
3.49727
3.49742
3.49762
3.49776
3.49793
3.49805
3.4982
3.49831
3.49844
3.49852
3.49862
3.49867
3.4987
3.49865
3.49843
3.49793
3.49657
3.49438
3.49207
3.48776
3.48323
3.47557
3.47234
3.47139
3.47114
3.47108
3.43129
3.4402
3.44638
3.45304
3.45713
3.46157
3.4644
3.46764
3.46973
3.47213
3.47361
3.47523
3.47642
3.47806
3.47924
3.48079
3.48189
3.48329
3.48427
3.4855
3.48636
3.48744
3.48819
3.48913
3.48978
3.49061
3.4912
3.49196
3.49258
3.49351
3.49439
3.49488
3.49539
3.49572
3.49611
3.49637
3.49669
3.49691
3.49718
3.49737
3.4976
3.49776
3.49795
3.49808
3.49825
3.49836
3.49849
3.49858
3.49869
3.49876
3.49883
3.49889
3.49896
3.49902
3.49909
3.49914
3.49921
3.49925
3.49931
3.49935
3.4994
3.49944
3.49948
3.49951
3.49954
3.49956
3.49957
3.49955
3.49948
3.49931
3.49885
3.49813
3.49735
3.49592
3.4944
3.49187
3.49079
3.49047
3.49038
3.49036
3.43195
3.44028
3.44562
3.45066
3.4534
3.4559
3.4573
3.45865
3.45941
3.46015
3.46067
3.46135
3.46183
3.46245
3.46289
3.46344
3.46384
3.46434
3.46469
3.46514
3.46545
3.46584
3.46612
3.46647
3.46671
3.46702
3.46724
3.46752
3.46774
3.46808
3.46839
3.46857
3.46874
3.46885
3.46898
3.46907
3.46917
3.46923
3.46932
3.46937
3.46944
3.46948
3.46954
3.46957
3.46962
3.46965
3.46968
3.4697
3.46973
3.46974
3.46976
3.46977
3.46979
3.4698
3.46981
3.46982
3.46982
3.46982
3.46982
3.46982
3.4698
3.46979
3.46976
3.46972
3.46966
3.46959
3.46946
3.4693
3.46898
3.46851
3.46745
3.46599
3.46466
3.46249
3.46039
3.4571
3.45569
3.45527
3.45516
3.45513
3.29551
3.32096
3.33688
3.35207
3.3602
3.36775
3.37191
3.37598
3.37824
3.38047
3.382
3.38405
3.38548
3.38735
3.38865
3.39034
3.39151
3.39302
3.39407
3.39541
3.39634
3.39754
3.39836
3.39941
3.40013
3.40106
3.4017
3.40256
3.40323
3.40425
3.40519
3.40571
3.40623
3.40656
3.40694
3.4072
3.4075
3.4077
3.40795
3.40811
3.40831
3.40845
3.40861
3.40872
3.40885
3.40894
3.40904
3.40911
3.40919
3.40923
3.40928
3.40932
3.40936
3.40939
3.40943
3.40945
3.40947
3.40947
3.40947
3.40945
3.40941
3.40937
3.40927
3.40917
3.40898
3.40878
3.40838
3.40792
3.40695
3.40555
3.40238
3.39796
3.39403
3.38745
3.3812
3.37121
3.36703
3.36579
3.36547
3.36539
3.15805
3.20201
3.22816
3.25376
3.26703
3.27974
3.28652
3.29339
3.29706
3.30081
3.30332
3.30677
3.30911
3.31228
3.3144
3.31726
3.31917
3.32172
3.32343
3.32571
3.32723
3.32925
3.33059
3.33236
3.33354
3.33511
3.33616
3.3376
3.3387
3.34041
3.342
3.34284
3.34373
3.34426
3.34491
3.34532
3.34584
3.34617
3.34659
3.34685
3.34719
3.34741
3.34769
3.34787
3.34809
3.34823
3.34841
3.34851
3.34865
3.34872
3.34881
3.34886
3.34894
3.34899
3.34905
3.34908
3.34911
3.34912
3.34911
3.34909
3.34902
3.34895
3.34879
3.34862
3.3483
3.34797
3.34731
3.34655
3.34494
3.34267
3.33735
3.32991
3.3235
3.31241
3.30217
3.28509
3.27824
3.27627
3.27577
3.27565
3.01883
3.08378
3.11946
3.15594
3.17388
3.19196
3.20113
3.21092
3.21588
3.22121
3.22459
3.22954
3.23271
3.23724
3.24013
3.24421
3.2468
3.25046
3.25277
3.25603
3.25809
3.26098
3.2628
3.26534
3.26694
3.26918
3.27061
3.27266
3.27414
3.27659
3.27884
3.27998
3.28124
3.28196
3.28289
3.28345
3.28418
3.28463
3.28523
3.28559
3.28608
3.28637
3.28677
3.28701
3.28733
3.28752
3.28777
3.28792
3.28811
3.28821
3.28833
3.28841
3.28852
3.28858
3.28867
3.28871
3.28876
3.28877
3.28876
3.28873
3.28864
3.28853
3.28831
3.28808
3.28763
3.28717
3.28624
3.28522
3.28296
3.2799
3.2724
3.26182
3.25315
3.23733
3.22341
3.19857
3.18927
3.1867
3.18605
3.18591
2.87702
2.96673
3.01074
3.05887
3.08072
3.10454
3.11571
3.12864
3.13469
3.14168
3.14581
3.15238
3.15625
3.16228
3.1658
3.17122
3.17439
3.17925
3.18208
3.18641
3.18892
3.19276
3.19498
3.19836
3.20031
3.20328
3.20503
3.20775
3.20954
3.21277
3.21572
3.21711
3.21877
3.21965
3.22088
3.22156
3.22254
3.22309
3.22388
3.22432
3.22497
3.22533
3.22586
3.22615
3.22657
3.22681
3.22714
3.22732
3.22757
3.2277
3.22785
3.22795
3.2281
3.22818
3.22829
3.22835
3.22841
3.22842
3.22841
3.22837
3.22825
3.22812
3.22782
3.22755
3.22695
3.2264
3.22517
3.22393
3.221
3.21732
3.20758
3.19366
3.18309
3.16218
3.14509
3.11142
3.10002
3.09704
3.09632
3.09615
2.73161
2.8515
2.90185
2.96285
2.98749
3.01763
3.03022
3.04664
3.05346
3.06226
3.06692
3.07532
3.07971
3.08741
3.0914
3.09833
3.10191
3.10812
3.11132
3.11685
3.1197
3.1246
3.12711
3.13143
3.13364
3.13743
3.13941
3.14287
3.14489
3.14896
3.15267
3.15423
3.15633
3.15733
3.1589
3.15967
3.16092
3.16153
3.16255
3.16305
3.16387
3.16428
3.16495
3.16528
3.16583
3.16609
3.16652
3.16672
3.16704
3.16718
3.16738
3.16749
3.16768
3.16777
3.16792
3.16798
3.16806
3.16807
3.16806
3.16801
3.16786
3.16771
3.16734
3.16703
3.16627
3.16565
3.1641
3.16272
3.15908
3.15498
3.14293
3.12536
3.11345
3.08687
3.06743
3.02338
3.01044
3.0073
3.00656
3.0064
2.58141
2.73905
2.79253
2.86828
2.89403
2.93141
2.94458
2.96502
2.97215
2.98302
2.98789
2.99843
3.00304
3.01269
3.01688
3.02557
3.02933
3.03711
3.04047
3.04741
3.05039
3.05654
3.05918
3.06458
3.0669
3.07166
3.07373
3.07805
3.08016
3.08516
3.0897
3.09132
3.09394
3.09498
3.09695
3.09775
3.09932
3.09996
3.10123
3.10176
3.10279
3.10322
3.10406
3.10441
3.10509
3.10537
3.10591
3.10612
3.10652
3.10667
3.10691
3.10702
3.10726
3.10736
3.10754
3.10761
3.10771
3.10773
3.10771
3.10766
3.10747
3.10732
3.10685
3.10653
3.10559
3.10494
3.10303
3.10159
3.09718
3.09295
3.0785
3.05683
3.04439
3.01128
2.99076
2.9341
2.92047
2.91746
2.91678
2.91663
2.42491
2.63076
2.68232
2.77571
2.80011
2.84617
2.85865
2.88394
2.89069
2.90401
2.90863
2.92177
2.92616
2.93819
2.94218
2.953
2.95658
2.96628
2.96948
2.97812
2.98096
2.98862
2.99113
2.99786
3.00007
3.00599
3.00796
3.01331
3.01531
3.02139
3.02686
3.02838
3.03161
3.0326
3.03504
3.03581
3.03775
3.03837
3.03995
3.04045
3.04174
3.04215
3.04319
3.04352
3.04437
3.04463
3.0453
3.04551
3.04601
3.04615
3.04645
3.04656
3.04685
3.04695
3.04718
3.04724
3.04736
3.04738
3.04736
3.04731
3.04708
3.04693
3.04636
3.04605
3.04489
3.04428
3.04194
3.04059
3.03527
3.03133
3.01435
2.98794
2.97616
2.93518
2.91553
2.84309
2.83007
2.82753
2.82698
2.82686
2.26017
2.52865
2.57044
2.6859
2.70533
2.76227
2.77221
2.80359
2.80897
2.82534
2.82903
2.84547
2.84898
2.86402
2.8672
2.88073
2.88359
2.89571
2.89826
2.90907
2.91134
2.9209
2.92291
2.93133
2.93309
2.94048
2.94205
2.94871
2.9503
2.95764
2.96416
2.96537
2.96937
2.97016
2.9732
2.97381
2.97625
2.97674
2.97871
2.97911
2.98072
2.98104
2.98235
2.98262
2.98367
2.98389
2.98472
2.98488
2.98551
2.98562
2.986
2.98608
2.98645
2.98653
2.98682
2.98687
2.98702
2.98704
2.98701
2.98698
2.98668
2.98657
2.98586
2.98561
2.98417
2.98368
2.9808
2.97974
2.9733
2.97024
2.95059
2.91846
2.90909
2.85824
2.84241
2.74971
2.73925
2.73752
2.73716
2.73708
2.08469
2.43561
2.45561
2.59993
2.60904
2.68025
2.68491
2.72429
2.72681
2.74719
2.74892
2.76968
2.77134
2.79031
2.79182
2.80888
2.81023
2.82552
2.82672
2.84035
2.84142
2.85349
2.85444
2.86505
2.86589
2.8752
2.87594
2.88432
2.88506
2.89392
2.90169
2.90224
2.90726
2.90763
2.91146
2.91175
2.91481
2.91505
2.91753
2.91772
2.91975
2.9199
2.92155
2.92168
2.92301
2.92311
2.92417
2.92424
2.92503
2.92508
2.92555
2.92559
2.92607
2.9261
2.92647
2.92649
2.92669
2.9267
2.92666
2.92665
2.92628
2.92623
2.92533
2.92522
2.92342
2.92319
2.9196
2.9191
2.9112
2.90981
2.88732
2.84807
2.84369
2.77989
2.77237
2.65304
2.64809
2.64746
2.64733
2.64731
)
;

boundaryField
{
    F1_1
    {
        type            fixedValue;
        value           nonuniform List<scalar> 
80
(
1.99017
2.39622
2.39622
2.56076
2.56076
2.64294
2.64294
2.69056
2.69056
2.72076
2.72076
2.73816
2.73816
2.75724
2.75724
2.77544
2.77544
2.79218
2.79218
2.8073
2.8073
2.8208
2.8208
2.83273
2.83273
2.84322
2.84322
2.85265
2.85265
2.86237
2.87081
2.87081
2.87646
2.87646
2.8808
2.8808
2.88426
2.88426
2.88708
2.88708
2.88937
2.88937
2.89124
2.89124
2.89275
2.89275
2.89395
2.89395
2.89484
2.89484
2.89537
2.89537
2.8959
2.8959
2.89632
2.89632
2.89654
2.89654
2.8965
2.8965
2.89608
2.89608
2.89507
2.89507
2.89301
2.89301
2.88894
2.88894
2.88002
2.88002
2.85602
2.81218
2.81218
2.73959
2.73959
2.60242
2.60242
2.60242
2.60242
2.60242
)
;
    }
    F1_2
    {
        type            fixedValue;
        value           nonuniform List<scalar> 
80
(
1.96786
2.39413
2.39413
2.61865
2.61865
2.7685
2.7685
2.88005
2.88005
2.96367
2.96367
3.01597
3.01597
3.0737
3.0737
3.12805
3.12805
3.17685
3.17685
3.21983
3.21983
3.25735
3.25735
3.29
3.29
3.31856
3.31856
3.34432
3.34432
3.37128
3.39528
3.39528
3.41203
3.41203
3.42536
3.42536
3.43646
3.43646
3.44584
3.44584
3.4538
3.4538
3.46055
3.46055
3.46625
3.46625
3.47099
3.47099
3.47472
3.47472
3.47712
3.47712
3.4798
3.4798
3.48234
3.48234
3.48464
3.48464
3.48667
3.48667
3.48843
3.48843
3.48993
3.48993
3.49111
3.49111
3.49168
3.49168
3.49039
3.49039
3.48175
3.46008
3.46008
3.41353
3.41353
3.30706
3.30706
3.30706
3.30706
3.30706
)
;
    }
    F1_3
    {
        type            fixedValue;
        value           nonuniform List<scalar> 
80
(
1.96786
2.39412
2.39412
2.61864
2.61864
2.7685
2.7685
2.88005
2.88005
2.96367
2.96367
3.01597
3.01597
3.0737
3.0737
3.12805
3.12805
3.17685
3.17685
3.21983
3.21983
3.25735
3.25735
3.29
3.29
3.31856
3.31856
3.34432
3.34432
3.37127
3.39528
3.39528
3.41203
3.41203
3.42536
3.42536
3.43646
3.43646
3.44584
3.44584
3.4538
3.4538
3.46055
3.46055
3.46625
3.46625
3.47099
3.47099
3.47472
3.47472
3.47712
3.47712
3.4798
3.4798
3.48234
3.48234
3.48464
3.48464
3.48667
3.48667
3.48843
3.48843
3.48993
3.48993
3.49111
3.49111
3.49168
3.49168
3.49039
3.49039
3.48175
3.46008
3.46008
3.41353
3.41353
3.30706
3.30706
3.30706
3.30706
3.30706
)
;
    }
    F1_4
    {
        type            fixedValue;
        value           nonuniform List<scalar> 
80
(
1.98994
2.39571
2.39571
2.55966
2.55966
2.64057
2.64057
2.68537
2.68537
2.70849
2.70849
2.73217
2.73217
2.75381
2.75381
2.77327
2.77327
2.7907
2.7907
2.80625
2.80625
2.82001
2.82001
2.83211
2.83211
2.84274
2.84274
2.85227
2.85227
2.86208
2.87059
2.87059
2.8763
2.8763
2.88066
2.88066
2.88415
2.88415
2.88699
2.88699
2.8893
2.8893
2.89118
2.89118
2.8927
2.8927
2.89391
2.89391
2.8948
2.8948
2.89534
2.89534
2.89588
2.89588
2.8963
2.8963
2.89653
2.89653
2.89649
2.89649
2.89607
2.89607
2.89506
2.89506
2.89301
2.89301
2.88894
2.88894
2.88002
2.88002
2.85602
2.81217
2.81217
2.73959
2.73959
2.60241
2.60241
2.60241
2.60241
2.60241
)
;
    }
    F2_1
    {
        type            fixedValue;
        value           uniform 3.5;
    }
    F2_2
    {
        type            fixedValue;
        value           uniform 3.5;
    }
    F2_3
    {
        type            fixedValue;
        value           uniform 3.5;
    }
    F2_4
    {
        type            fixedValue;
        value           uniform 3.5;
    }
    defaultFaces
    {
        type            empty;
    }
}


// ************************************************************************* //
