/*--------------------------------*- C++ -*----------------------------------*\
| =========                 |                                                 |
| \\      /  F ield         | OpenFOAM: The Open Source CFD Toolbox           |
|  \\    /   O peration     | Version:  5.x                                   |
|   \\  /    A nd           | Web:      www.OpenFOAM.org                      |
|    \\/     M anipulation  |                                                 |
\*---------------------------------------------------------------------------*/
FoamFile
{
    version     2.0;
    format      ascii;
    class       volScalarField;
    location    "16.5";
    object      T;
}
// * * * * * * * * * * * * * * * * * * * * * * * * * * * * * * * * * * * * * //

dimensions      [0 0 0 1 0 0 0];

internalField   nonuniform List<scalar> 
2048
(
9.81021
9.8104
9.81079
9.81136
9.8121
9.81298
9.81399
9.81511
9.81631
9.81759
9.81892
9.82029
9.82168
9.82308
9.82448
9.82587
9.82725
9.8286
9.82992
9.83121
9.83246
9.83368
9.83485
9.83598
9.83706
9.8381
9.83909
9.84003
9.84092
9.84174
9.84251
9.84321
9.84384
9.8444
9.84487
9.84525
9.84553
9.8457
9.84576
9.84569
9.84549
9.84515
9.84465
9.84399
9.84317
9.84218
9.84101
9.83966
9.83815
9.83648
9.83467
9.83274
9.83072
9.82865
9.82658
9.82454
9.82259
9.82078
9.81915
9.81773
9.81656
9.81567
9.81506
9.81475
9.43876
9.43934
9.4405
9.4422
9.44438
9.44701
9.45001
9.45334
9.45692
9.46071
9.46465
9.4687
9.47282
9.47697
9.48112
9.48525
9.48932
9.49332
9.49723
9.50104
9.50475
9.50834
9.5118
9.51514
9.51835
9.52142
9.52435
9.52713
9.52975
9.5322
9.53448
9.53656
9.53843
9.54007
9.54147
9.5426
9.54343
9.54395
9.54413
9.54394
9.54335
9.54234
9.54088
9.53894
9.53651
9.53357
9.53012
9.52614
9.52166
9.51671
9.51133
9.5056
9.4996
9.49345
9.48728
9.48122
9.47543
9.47004
9.46518
9.46096
9.45748
9.45482
9.45301
9.4521
9.08311
9.08408
9.086
9.0888
9.09242
9.09676
9.10171
9.10719
9.11309
9.11931
9.12579
9.13244
9.1392
9.146
9.1528
9.15955
9.16622
9.17276
9.17916
9.1854
9.19145
9.19732
9.20298
9.20844
9.21368
9.2187
9.22349
9.22803
9.23232
9.23634
9.24006
9.24347
9.24654
9.24924
9.25154
9.2534
9.25479
9.25566
9.25597
9.25568
9.25474
9.25311
9.25074
9.2476
9.24365
9.23886
9.23321
9.22671
9.21937
9.21124
9.2024
9.19296
9.18308
9.17293
9.16273
9.15272
9.14314
9.13423
9.1262
9.11924
9.1135
9.1091
9.10612
9.10462
8.74234
8.7437
8.74639
8.75031
8.75535
8.76139
8.76829
8.77589
8.78406
8.79268
8.80163
8.81081
8.82013
8.82951
8.83888
8.84817
8.85733
8.86633
8.87512
8.88368
8.89199
8.90004
8.90781
8.91529
8.92249
8.92938
8.93595
8.94219
8.94809
8.95361
8.95873
8.96343
8.96767
8.9714
8.97459
8.97718
8.97912
8.98036
8.98083
8.98047
8.97923
8.97704
8.97384
8.96957
8.96418
8.95763
8.94989
8.94095
8.93085
8.91963
8.9074
8.89431
8.88058
8.86646
8.85225
8.83829
8.82493
8.8125
8.8013
8.79161
8.78363
8.77752
8.77339
8.7713
8.41562
8.41738
8.42084
8.4259
8.4324
8.44016
8.44899
8.45872
8.46915
8.48012
8.4915
8.50316
8.51498
8.52687
8.53873
8.55048
8.56207
8.57343
8.58452
8.59532
8.60579
8.61593
8.62572
8.63516
8.64422
8.65291
8.6612
8.66908
8.67652
8.6835
8.68998
8.69594
8.70132
8.70607
8.71013
8.71346
8.71596
8.71758
8.71824
8.71787
8.71637
8.71368
8.70972
8.7044
8.69766
8.68944
8.67971
8.66843
8.65564
8.6414
8.62584
8.60913
8.59156
8.57344
8.55519
8.53723
8.52004
8.50405
8.48967
8.47723
8.467
8.45918
8.4539
8.45125
8.10216
8.10434
8.10862
8.11485
8.12284
8.13235
8.14315
8.155
8.16768
8.181
8.19478
8.20887
8.22314
8.23747
8.25176
8.26591
8.27984
8.29349
8.30681
8.31975
8.33231
8.34445
8.35618
8.36748
8.37835
8.38876
8.3987
8.40816
8.4171
8.42549
8.43329
8.44047
8.44697
8.45273
8.45768
8.46173
8.46482
8.46686
8.46774
8.46739
8.4657
8.46258
8.45793
8.45165
8.44366
8.43387
8.42223
8.40871
8.39332
8.37612
8.35725
8.33693
8.31549
8.29332
8.27094
8.2489
8.22779
8.20817
8.19054
8.17532
8.16283
8.1533
8.14688
8.14365
7.80126
7.80388
7.80901
7.81647
7.82601
7.83733
7.85013
7.86413
7.87907
7.89472
7.91087
7.92736
7.94403
7.96076
7.97742
7.9939
8.01011
8.02597
8.04143
8.05645
8.071
8.08507
8.09866
8.11175
8.12434
8.13641
8.14795
8.15892
8.16931
8.17907
8.18816
8.19654
8.20414
8.2109
8.21673
8.22153
8.22522
8.2277
8.22885
8.22857
8.22675
8.22327
8.21801
8.21086
8.20171
8.19045
8.17701
8.16134
8.14342
8.12332
8.10117
8.07723
8.05187
8.02557
7.99895
7.97269
7.94754
7.92417
7.90321
7.88517
7.8704
7.85915
7.85159
7.84779
7.51226
7.51534
7.52138
7.53014
7.54129
7.55449
7.56935
7.58553
7.60274
7.62071
7.63921
7.65807
7.67711
7.69619
7.71516
7.73392
7.75234
7.77035
7.78787
7.80488
7.82135
7.83726
7.85263
7.86744
7.88169
7.89536
7.90843
7.92087
7.93266
7.94375
7.9541
7.96365
7.97235
7.9801
7.98681
7.99238
7.99669
7.99964
8.0011
8.00095
7.99906
7.99529
7.98951
7.98158
7.97136
7.95874
7.9436
7.92586
7.9055
7.88256
7.85716
7.82958
7.80023
7.76968
7.73867
7.70804
7.67867
7.65143
7.62705
7.60612
7.58905
7.57609
7.5674
7.56304
7.23453
7.23812
7.24513
7.25527
7.26813
7.28328
7.30026
7.31867
7.33816
7.35844
7.37928
7.40047
7.42184
7.44322
7.46448
7.48545
7.50603
7.52611
7.54564
7.56455
7.58286
7.60054
7.61761
7.63407
7.64991
7.66512
7.67967
7.69353
7.70666
7.71904
7.73062
7.74133
7.75111
7.75985
7.76745
7.7738
7.77876
7.78222
7.78403
7.78405
7.78215
7.77816
7.77194
7.76333
7.75216
7.73827
7.72154
7.70185
7.67914
7.65341
7.62479
7.59355
7.56013
7.52519
7.48961
7.45439
7.42062
7.38934
7.36144
7.33757
7.31818
7.30352
7.29372
7.28881
6.96749
6.97163
6.9797
6.99132
7.006
7.02319
7.04235
7.06303
7.08483
7.10742
7.13057
7.15406
7.17773
7.20138
7.22486
7.24801
7.27069
7.29279
7.31424
7.33499
7.35505
7.37442
7.39312
7.41115
7.42852
7.44521
7.46118
7.47641
7.49086
7.5045
7.51727
7.52911
7.53996
7.54969
7.55819
7.56533
7.57097
7.57497
7.57717
7.57742
7.57556
7.57144
7.56486
7.55566
7.54363
7.5286
7.51039
7.48886
7.46389
7.43546
7.40365
7.36871
7.33114
7.29166
7.25129
7.21125
7.17286
7.13736
7.10581
7.07895
7.05725
7.04091
7.03003
7.02459
6.7106
6.71534
6.72456
6.73779
6.7544
6.77374
6.79517
6.81817
6.84228
6.86718
6.89261
6.91838
6.94429
6.97018
6.99585
7.02113
7.04586
7.06991
7.09321
7.11572
7.13745
7.15843
7.17868
7.19823
7.21707
7.23518
7.25253
7.26908
7.2848
7.29965
7.31359
7.32655
7.33845
7.34918
7.35859
7.36655
7.37288
7.37744
7.38007
7.3806
7.37886
7.37466
7.36781
7.35811
7.34534
7.32927
7.30971
7.28645
7.25933
7.22828
7.19333
7.15469
7.11286
7.06867
7.02328
6.97814
6.93485
6.89494
6.85962
6.82974
6.80574
6.78777
6.77585
6.76992
6.46334
6.46875
6.47923
6.49419
6.51288
6.53449
6.55828
6.58363
6.61007
6.63726
6.66494
6.69294
6.72108
6.74916
6.77699
6.80436
6.83109
6.85704
6.88212
6.90631
6.92963
6.95214
6.97387
6.99486
7.01512
7.0346
7.05328
7.0711
7.08804
7.10407
7.11914
7.1332
7.14616
7.15788
7.16821
7.177
7.18405
7.18921
7.19231
7.19316
7.19158
7.18738
7.18035
7.17024
7.15683
7.13984
7.11905
7.09419
7.06506
7.03149
6.99345
6.95111
6.90494
6.85584
6.80514
6.75459
6.70611
6.66156
6.62237
6.58944
6.56318
6.54366
6.53077
6.52438
6.22523
6.23137
6.24324
6.2601
6.28102
6.30502
6.33126
6.35902
6.38779
6.41724
6.44714
6.47733
6.50764
6.53788
6.56784
6.59727
6.62596
6.65374
6.68054
6.70632
6.73115
6.7551
6.77824
6.80062
6.82223
6.84304
6.863
6.88205
6.90017
6.91734
6.93352
6.94866
6.96266
6.97537
6.98664
6.99627
7.00407
7.00986
7.01345
7.01466
7.01331
7.00918
7.00203
6.99162
6.97766
6.95988
6.93798
6.91167
6.88065
6.84469
6.80365
6.75761
6.70701
6.65281
6.59651
6.54018
6.48617
6.43673
6.39356
6.35759
6.32915
6.30817
6.2944
6.28759
5.99579
6.00275
6.01616
6.0351
6.05842
6.08497
6.11373
6.14394
6.17504
6.20671
6.23878
6.27111
6.30356
6.33593
6.36798
6.39944
6.43005
6.45962
6.48805
6.51536
6.5416
6.56691
6.59139
6.61508
6.638
6.6601
6.6813
6.70154
6.72079
6.73905
6.7563
6.7725
6.78754
6.80126
6.81348
6.82397
6.83253
6.83896
6.84308
6.8447
6.84362
6.83962
6.83244
6.82181
6.80742
6.78895
6.76608
6.73846
6.70571
6.6675
6.62356
6.57386
6.51876
6.45925
6.39701
6.33448
6.27455
6.21997
6.17271
6.13374
6.10325
6.08095
6.0664
6.05924
5.77458
5.78247
5.79759
5.81881
5.84473
5.87396
5.90535
5.93804
5.97145
6.00529
6.03946
6.07388
6.10842
6.14289
6.17703
6.21049
6.24298
6.27427
6.30428
6.33301
6.36059
6.38717
6.41291
6.43787
6.46205
6.48539
6.50779
6.52917
6.54951
6.56882
6.58712
6.60435
6.62042
6.63516
6.64833
6.6597
6.66904
6.67614
6.68081
6.68287
6.6821
6.67829
6.67116
6.66039
6.64567
6.62664
6.60293
6.57414
6.53983
6.49953
6.45284
6.39954
6.33989
6.27486
6.20632
6.13711
6.0708
6.01079
5.95937
5.9175
5.88511
5.86165
5.84647
5.83902
5.56119
5.57011
5.58713
5.61087
5.6396
5.67167
5.70578
5.74097
5.77665
5.81261
5.8488
5.88524
5.92184
5.95838
5.99458
6.03003
6.06437
6.09734
6.12885
6.15892
6.18772
6.21549
6.24241
6.26858
6.29399
6.31854
6.34212
6.36459
6.38596
6.40627
6.42558
6.44383
6.46093
6.47668
6.49083
6.50309
6.51323
6.52102
6.52626
6.52878
6.52837
6.52481
6.51779
6.50697
6.49201
6.47253
6.44812
6.41833
6.38262
6.34042
6.29114
6.23435
6.17011
6.09936
6.02412
5.94769
5.87448
5.80873
5.75312
5.70847
5.67439
5.64999
5.63432
5.62667
5.3552
5.36528
5.38442
5.41093
5.44272
5.47779
5.5147
5.55241
5.59032
5.62829
5.66643
5.70483
5.74342
5.78201
5.82026
5.85771
5.89386
5.92846
5.9614
5.99271
6.02264
6.0515
6.07954
6.10687
6.13346
6.15921
6.18393
6.20745
6.22979
6.25106
6.27133
6.29059
6.3087
6.32549
6.34063
6.3538
6.36474
6.37323
6.37906
6.38206
6.38205
6.37878
6.37194
6.36116
6.34605
6.32623
6.30125
6.2706
6.23369
6.18981
6.13815
6.07799
6.00917
5.93251
5.85014
5.76586
5.68512
5.61331
5.55351
5.50629
5.4708
5.4457
5.42971
5.42195
5.15622
5.16762
5.18912
5.2187
5.25379
5.29203
5.33182
5.37206
5.41213
5.45201
5.49197
5.53226
5.57281
5.61341
5.65374
5.69318
5.73112
5.7673
5.8016
5.83405
5.86499
5.89484
5.92393
5.95237
5.98011
6.00705
6.03289
6.05742
6.08067
6.10282
6.12403
6.14427
6.1634
6.18123
6.19738
6.21147
6.22323
6.23243
6.23885
6.24236
6.24277
6.23985
6.23326
6.22258
6.20741
6.18734
6.16192
6.13057
6.09264
6.04732
5.99352
5.93019
5.85681
5.77408
5.68415
5.59128
5.50228
5.42407
5.36013
5.31064
5.27407
5.24853
5.23243
5.22465
4.96389
4.97677
5.0009
5.03389
5.07256
5.11411
5.15685
5.19962
5.24176
5.28342
5.32509
5.3672
5.40966
5.45224
5.49466
5.53611
5.57582
5.61353
5.64911
5.6826
5.71443
5.74517
5.77525
5.80476
5.83363
5.86174
5.8887
5.91417
5.93826
5.96124
5.98335
6.00454
6.02469
6.04358
6.06078
6.07579
6.08838
6.09828
6.10531
6.10932
6.11018
6.10766
6.10137
6.09087
6.07572
6.0555
6.02975
5.99786
5.95911
5.9126
5.85694
5.79067
5.71282
5.62388
5.52596
5.42363
5.32548
5.24052
5.17261
5.12121
5.08394
5.05829
5.04227
5.03458
4.77784
4.79241
4.81945
4.85621
4.89878
4.94377
4.98954
5.03484
5.07892
5.12221
5.16544
5.20929
5.25362
5.29815
5.34269
5.3862
5.42764
5.46684
5.50365
5.53804
5.57064
5.60215
5.63317
5.66371
5.69367
5.72297
5.75105
5.77742
5.80227
5.826
5.84897
5.87111
5.89225
5.91224
5.9305
5.94645
5.95986
5.97049
5.9781
5.98263
5.98396
5.98187
5.97596
5.9657
5.95062
5.93033
5.90439
5.87208
5.83269
5.78528
5.72808
5.65916
5.57695
5.48173
5.37541
5.26263
5.15424
5.06218
4.99056
4.93772
4.9002
4.87477
4.85905
4.85154
4.59772
4.61423
4.64447
4.68542
4.73224
4.78076
4.82961
4.87744
4.92332
4.96805
5.01267
5.05822
5.10437
5.15079
5.19753
5.24316
5.28627
5.32692
5.36491
5.40008
5.4333
5.46546
5.49737
5.52892
5.55993
5.59046
5.61969
5.64688
5.6724
5.69678
5.72059
5.74366
5.76577
5.7869
5.80628
5.82315
5.83738
5.84873
5.85692
5.86196
5.86376
5.86217
5.85668
5.84673
5.83178
5.8115
5.78547
5.75287
5.71302
5.66501
5.60664
5.53541
5.44899
5.34748
5.23243
5.108
4.98802
4.88855
4.81363
4.75994
4.72267
4.69781
4.6826
4.67537
4.42319
4.44193
4.47566
4.5213
4.57275
4.62484
4.67681
4.7272
4.77468
4.82065
4.86646
4.91367
4.96161
5.00984
5.05887
5.10672
5.15143
5.19349
5.23263
5.26842
5.30211
5.33478
5.36756
5.4001
5.4321
5.46392
5.49435
5.52228
5.54836
5.57329
5.59793
5.62191
5.64496
5.66728
5.68784
5.70561
5.72066
5.73274
5.74148
5.74701
5.7493
5.74823
5.74324
5.73365
5.71888
5.69865
5.67266
5.63988
5.59972
5.55143
5.49228
5.41918
5.32872
5.22097
5.09699
4.95951
4.82623
4.71912
4.64149
4.58767
4.55119
4.52725
4.51276
4.50591
4.25393
4.27528
4.31273
4.36361
4.42015
4.47575
4.5309
4.5839
4.63274
4.67972
4.72647
4.77534
4.82506
4.87495
4.92642
4.97665
5.02283
5.06627
5.10655
5.14279
5.17679
5.2098
5.24346
5.27698
5.30989
5.3431
5.37481
5.40337
5.42989
5.45525
5.48072
5.50561
5.52953
5.55311
5.57492
5.59355
5.60942
5.62225
5.63149
5.6375
5.64027
5.63978
5.63534
5.62617
5.61161
5.59147
5.56564
5.53276
5.49239
5.4442
5.38469
5.31022
5.21589
5.10205
4.96919
4.81699
4.6682
4.55338
4.47388
4.42074
4.38563
4.36297
4.34938
4.343
4.08961
4.11406
4.15536
4.21217
4.27433
4.33324
4.39162
4.44734
4.49722
4.54498
4.59236
4.64297
4.69447
4.74577
4.7999
4.85273
4.90016
4.94498
4.98645
5.02291
5.05706
5.09021
5.12481
5.15931
5.19299
5.22773
5.26087
5.28989
5.31673
5.34235
5.36869
5.39451
5.41919
5.44415
5.46732
5.48671
5.5034
5.517
5.52669
5.53315
5.53638
5.53653
5.5327
5.52401
5.50967
5.48964
5.46411
5.43119
5.39067
5.34296
5.28353
5.20833
5.11025
4.99053
4.84921
4.68031
4.51316
4.3908
4.31055
4.25902
4.22586
4.20481
4.19231
4.18647
3.92988
3.95811
4.00324
4.06679
4.13523
4.19701
4.25871
4.31738
4.36784
4.41617
4.46377
4.5163
4.5696
4.62195
4.67906
4.7348
4.78314
4.82934
4.87214
4.90852
4.94268
4.9757
5.01135
5.04688
5.08109
5.11757
5.15234
5.18161
5.20865
5.23432
5.26163
5.28839
5.31364
5.34013
5.36482
5.38482
5.40234
5.41677
5.42681
5.43371
5.43736
5.43821
5.43507
5.42692
5.41279
5.39284
5.36781
5.33487
5.29415
5.24739
5.18846
5.11331
5.01152
4.88616
4.73739
4.54943
4.36016
4.23087
4.15133
4.10243
4.07181
4.05267
4.04141
4.03618
3.77441
3.80734
3.856
3.92729
4.00285
4.06676
4.13191
4.19389
4.24434
4.29306
4.34032
4.39509
4.45029
4.50307
4.56364
4.62274
4.67144
4.71909
4.76345
4.79935
4.83341
4.86594
4.90287
4.9395
4.97386
5.0124
5.04909
5.07828
5.10544
5.13085
5.1593
5.18706
5.21259
5.24084
5.26726
5.28763
5.306
5.32134
5.33161
5.33892
5.34295
5.34458
5.3422
5.33466
5.32071
5.30076
5.27648
5.24351
5.20244
5.15717
5.09912
5.02502
4.91939
4.78863
4.63425
4.42439
4.20806
4.07313
3.99611
3.95093
3.92338
3.90642
3.89653
3.89194
3.62283
3.66178
3.71319
3.79351
3.8773
3.94208
4.01093
4.07683
4.12639
4.17547
4.22161
4.27914
4.33641
4.38871
4.45339
4.51651
4.56472
4.61395
4.66026
4.69511
4.72905
4.76059
4.79916
4.83701
4.87095
4.91199
4.95102
4.97965
5.00689
5.03163
5.0615
5.09036
5.11572
5.14606
5.1745
5.19487
5.21414
5.23054
5.24083
5.24858
5.25287
5.25539
5.25384
5.24699
5.23319
5.2131
5.18992
5.15686
5.11512
5.07203
5.01511
4.94338
4.83351
4.69745
4.54053
4.3054
4.05541
3.91717
3.84486
3.80449
3.7805
3.76594
3.75751
3.75362
3.47472
3.52158
3.57428
3.66531
3.75877
3.82254
3.89548
3.9662
4.01363
4.06325
4.10717
4.16828
4.22792
4.27835
4.3481
4.41612
4.46259
4.51364
4.56251
4.59551
4.62946
4.65929
4.70004
4.73932
4.77197
4.81614
4.85808
4.88544
4.91285
4.93635
4.96806
4.99816
5.02268
5.05557
5.08645
5.10625
5.12653
5.1442
5.15423
5.16246
5.16688
5.17044
5.16977
5.16372
5.15001
5.12952
5.10793
5.0747
5.03172
4.99174
4.93596
4.86839
4.75351
4.61194
4.45722
4.19281
3.9004
3.7627
3.69764
3.66313
3.64312
3.63111
3.6242
3.62102
3.32964
3.38707
3.43862
3.54253
3.64762
3.70754
3.78524
3.86213
3.90565
3.95637
3.99647
4.06238
4.12485
4.17139
4.24753
4.32172
4.36458
4.41788
4.47021
4.50019
4.53452
4.5616
4.60537
4.64639
4.67646
4.72464
4.77028
4.79535
4.82321
4.84462
4.87883
4.91042
4.93309
4.96919
5.00307
5.02148
5.04295
5.0622
5.07155
5.08039
5.08472
5.08951
5.08978
5.08466
5.07097
5.04968
5.0304
4.99686
4.95174
4.91612
4.86115
4.80018
4.67897
4.53115
4.38567
4.08721
3.74073
3.60961
3.55461
3.52688
3.51115
3.5018
3.49645
3.49399
3.18701
3.25884
3.30536
3.42505
3.54439
3.59637
3.67988
3.76488
3.80189
3.85488
3.88886
3.96135
4.02736
4.06711
4.15149
4.23357
4.27016
4.32637
4.38346
4.40875
4.44422
4.46706
4.51502
4.55827
4.58391
4.63732
4.6877
4.70901
4.73793
4.75603
4.79368
4.82711
4.8465
4.88674
4.92438
4.9402
4.96317
4.98445
4.99252
5.00222
5.00612
5.01243
5.01365
5.00964
4.99589
4.97319
4.95722
4.92321
4.87463
4.84512
4.79002
4.73903
4.6095
4.45372
4.3276
3.98948
3.57349
3.45808
3.41598
3.39578
3.38452
3.37788
3.37409
3.37235
3.04618
3.13779
3.1734
3.31272
3.44984
3.48811
3.57904
3.67484
3.70169
3.759
3.78358
3.86513
3.93576
3.96462
4.0598
4.15208
4.17864
4.23882
4.30246
4.32067
4.35865
4.3751
4.42891
4.47509
4.49369
4.554
4.61054
4.62597
4.65704
4.67011
4.71251
4.74831
4.76242
4.80805
4.85049
4.86204
4.88699
4.91092
4.91685
4.92782
4.9308
4.93903
4.94117
4.9385
4.92465
4.89963
4.88836
4.85367
4.7997
4.7788
4.72174
4.6854
4.54469
4.37786
4.28517
3.90084
3.39497
3.30863
3.28207
3.26986
3.26314
3.2592
3.25695
3.25593
2.90633
3.0252
3.04134
3.20543
3.36501
3.3816
3.48233
3.59263
3.60415
3.66916
3.67968
3.77374
3.85053
3.86287
3.97228
4.07788
4.08923
4.15489
4.22758
4.23533
4.27804
4.28505
4.34701
4.3971
4.40505
4.47454
4.53907
4.54567
4.58071
4.58629
4.63526
4.67419
4.68023
4.73299
4.78156
4.78653
4.81419
4.84163
4.8442
4.85713
4.85848
4.86919
4.87214
4.8711
4.85716
4.8285
4.82383
4.78827
4.72618
4.71743
4.65528
4.64002
4.48418
4.30111
4.26108
3.82295
3.20055
3.16235
3.1532
3.14913
3.14691
3.14561
3.14487
3.14453
)
;

boundaryField
{
    left
    {
        type            zeroGradient;
    }
    right
    {
        type            zeroGradient;
    }
    interface
    {
        type            fixedValue;
        value           nonuniform List<scalar> 
64
(
2.83482
2.97288
2.97288
3.1531
3.32732
3.32732
3.4348
3.55506
3.55506
3.62669
3.62669
3.72952
3.81057
3.81057
3.9296
4.0441
4.0441
4.11368
4.1927
4.1927
4.23959
4.23959
4.30728
4.36009
4.36009
4.43584
4.50569
4.50569
4.54419
4.54419
4.59777
4.63883
4.63883
4.69641
4.74903
4.74903
4.77862
4.80841
4.80841
4.82289
4.82289
4.83525
4.8385
4.8385
4.82456
4.7931
4.7931
4.757
4.68884
4.68884
4.62156
4.62156
4.45533
4.25982
4.25982
3.78975
3.09007
3.09007
3.09007
3.09007
3.09007
3.09007
3.09007
3.09007
)
;
    }
    bottom
    {
        type            fixedValue;
        value           uniform 10;
    }
    defaultFaces
    {
        type            empty;
    }
}


// ************************************************************************* //
