/*--------------------------------*- C++ -*----------------------------------*\
| =========                 |                                                 |
| \\      /  F ield         | OpenFOAM: The Open Source CFD Toolbox           |
|  \\    /   O peration     | Version:  5.x                                   |
|   \\  /    A nd           | Web:      www.OpenFOAM.org                      |
|    \\/     M anipulation  |                                                 |
\*---------------------------------------------------------------------------*/
FoamFile
{
    version     2.0;
    format      ascii;
    class       volScalarField;
    location    "5.4";
    object      T;
}
// * * * * * * * * * * * * * * * * * * * * * * * * * * * * * * * * * * * * * //

dimensions      [0 0 0 1 0 0 0];

internalField   nonuniform List<scalar> 
3200
(
2.08487
2.43605
2.45608
2.60093
2.6101
2.68243
2.68724
2.7291
2.73197
2.75848
2.76024
2.77556
2.77691
2.79363
2.79499
2.81095
2.81222
2.8269
2.82806
2.84133
2.84238
2.85421
2.85514
2.8656
2.86642
2.87563
2.87636
2.88464
2.88538
2.89416
2.90186
2.90241
2.90739
2.90776
2.91156
2.91185
2.91489
2.91512
2.91759
2.91778
2.9198
2.91995
2.92159
2.92171
2.92304
2.92314
2.92419
2.92426
2.92504
2.9251
2.92557
2.92561
2.92608
2.92611
2.92647
2.9265
2.92669
2.9267
2.92667
2.92665
2.92628
2.92623
2.92533
2.92522
2.92342
2.92319
2.9196
2.91911
2.9112
2.90981
2.88733
2.84808
2.8437
2.77992
2.7724
2.65309
2.64814
2.64751
2.64739
2.64736
2.26035
2.52904
2.57089
2.68677
2.70635
2.76418
2.77445
2.80782
2.81392
2.83499
2.83874
2.85103
2.85389
2.86712
2.87001
2.88264
2.88535
2.89698
2.89945
2.90996
2.91218
2.92156
2.92354
2.93182
2.93356
2.94086
2.94242
2.94901
2.95058
2.95785
2.96432
2.96552
2.96949
2.97028
2.9733
2.9739
2.97632
2.97681
2.97876
2.97916
2.98076
2.98108
2.98238
2.98265
2.9837
2.98391
2.98474
2.9849
2.98552
2.98563
2.98601
2.98609
2.98646
2.98654
2.98682
2.98687
2.98703
2.98704
2.98702
2.98698
2.98668
2.98657
2.98586
2.98561
2.98417
2.98369
2.98081
2.97974
2.9733
2.97024
2.95059
2.91847
2.90911
2.85826
2.84244
2.74976
2.7393
2.73757
2.73721
2.73713
2.42508
2.6311
2.68274
2.77647
2.80106
2.84784
2.86073
2.88762
2.89528
2.9122
2.9169
2.92686
2.93045
2.94103
2.94463
2.95474
2.95812
2.96743
2.97051
2.97893
2.9817
2.98921
2.99167
2.99831
3.00049
3.00633
3.00828
3.01358
3.01556
3.02158
3.027
3.02851
3.03172
3.0327
3.03512
3.03588
3.03782
3.03843
3.04
3.0405
3.04178
3.04218
3.04322
3.04355
3.04439
3.04466
3.04532
3.04552
3.04602
3.04616
3.04646
3.04657
3.04686
3.04695
3.04718
3.04724
3.04737
3.04739
3.04736
3.04732
3.04708
3.04694
3.04636
3.04606
3.04489
3.04428
3.04194
3.04059
3.03527
3.03134
3.01436
2.98795
2.97617
2.93521
2.91556
2.84313
2.83011
2.82758
2.82702
2.8269
2.58157
2.73933
2.79291
2.86893
2.89489
2.93286
2.94646
2.9682
2.97626
2.98989
2.99485
3.00296
3.00674
3.01521
3.01899
3.0271
3.03065
3.03812
3.04136
3.04812
3.05103
3.05706
3.05965
3.06497
3.06726
3.07196
3.074
3.07828
3.08037
3.08533
3.08983
3.09144
3.09403
3.09507
3.09702
3.09782
3.09937
3.10002
3.10128
3.1018
3.10283
3.10325
3.10409
3.10443
3.10511
3.10539
3.10592
3.10613
3.10653
3.10668
3.10692
3.10703
3.10727
3.10737
3.10755
3.10761
3.10771
3.10773
3.10771
3.10766
3.10747
3.10732
3.10685
3.10653
3.10559
3.10494
3.10303
3.10159
3.09718
3.09295
3.0785
3.05684
3.0444
3.0113
2.99078
2.93413
2.92051
2.9175
2.91682
2.91667
2.73175
2.85174
2.90218
2.9634
2.98823
3.01885
3.03186
3.04932
3.05702
3.06793
3.07267
3.07922
3.08283
3.08958
3.09318
3.09965
3.10303
3.10898
3.11207
3.11746
3.12024
3.12504
3.12751
3.13176
3.13394
3.13769
3.13964
3.14307
3.14507
3.1491
3.15278
3.15432
3.15641
3.1574
3.15896
3.15972
3.16096
3.16158
3.16258
3.16308
3.1639
3.16431
3.16497
3.1653
3.16584
3.16611
3.16653
3.16673
3.16705
3.16719
3.16739
3.1675
3.16768
3.16777
3.16792
3.16798
3.16806
3.16808
3.16806
3.16801
3.16786
3.16772
3.16734
3.16703
3.16627
3.16565
3.1641
3.16272
3.15908
3.15498
3.14293
3.12537
3.11346
3.08689
3.06745
3.02341
3.01047
3.00733
3.00659
3.00643
2.87714
2.96693
3.01101
3.05932
3.08134
3.10554
3.11708
3.13083
3.13765
3.14622
3.15041
3.15561
3.1588
3.16408
3.16726
3.17231
3.1753
3.17996
3.18269
3.18691
3.18936
3.19312
3.1953
3.19863
3.20055
3.20349
3.20522
3.20791
3.20969
3.21288
3.21581
3.21719
3.21884
3.21971
3.22094
3.22161
3.22258
3.22312
3.22391
3.22435
3.22499
3.22535
3.22587
3.22617
3.22659
3.22682
3.22715
3.22733
3.22758
3.2277
3.22786
3.22795
3.2281
3.22818
3.22829
3.22835
3.22841
3.22842
3.22841
3.22837
3.22825
3.22812
3.22782
3.22755
3.22695
3.2264
3.22517
3.22393
3.22101
3.21732
3.20759
3.19366
3.1831
3.16219
3.14511
3.11144
3.10005
3.09707
3.09635
3.09618
3.01893
3.08394
3.11968
3.1563
3.17437
3.19274
3.20221
3.21262
3.21821
3.22468
3.22812
3.23207
3.23469
3.23866
3.24126
3.24507
3.24751
3.25102
3.25325
3.25642
3.25843
3.26126
3.26305
3.26555
3.26713
3.26934
3.27075
3.27279
3.27425
3.27668
3.27891
3.28004
3.28129
3.28201
3.28293
3.28348
3.28422
3.28466
3.28525
3.28561
3.2861
3.28639
3.28678
3.28702
3.28734
3.28753
3.28778
3.28793
3.28811
3.28821
3.28833
3.28841
3.28852
3.28859
3.28867
3.28872
3.28876
3.28877
3.28876
3.28873
3.28864
3.28853
3.28831
3.28808
3.28763
3.28717
3.28624
3.28522
3.28296
3.27991
3.27241
3.26183
3.25316
3.23734
3.22343
3.19859
3.18929
3.18672
3.18607
3.18593
3.15812
3.20212
3.22832
3.25401
3.26738
3.28029
3.2873
3.2946
3.29874
3.30327
3.30581
3.30859
3.31053
3.3133
3.31522
3.31787
3.31968
3.32212
3.32377
3.32599
3.32747
3.32945
3.33077
3.33252
3.33368
3.33522
3.33627
3.33769
3.33878
3.34048
3.34205
3.34289
3.34376
3.3443
3.34494
3.34535
3.34586
3.34619
3.3466
3.34687
3.34721
3.34742
3.3477
3.34787
3.3481
3.34824
3.34841
3.34852
3.34865
3.34873
3.34881
3.34887
3.34894
3.34899
3.34905
3.34908
3.34911
3.34912
3.34912
3.34909
3.34903
3.34895
3.34879
3.34863
3.34831
3.34797
3.34731
3.34655
3.34494
3.34267
3.33735
3.32992
3.3235
3.31242
3.30218
3.28511
3.27826
3.27629
3.27578
3.27567
3.29555
3.32102
3.33697
3.35222
3.36042
3.36809
3.37238
3.37671
3.37925
3.38193
3.38349
3.38514
3.38633
3.38797
3.38914
3.39071
3.39181
3.39326
3.39427
3.39558
3.39649
3.39766
3.39847
3.3995
3.40021
3.40113
3.40177
3.40261
3.40327
3.40428
3.40522
3.40573
3.40625
3.40658
3.40696
3.40721
3.40751
3.40771
3.40796
3.40812
3.40832
3.40845
3.40862
3.40873
3.40886
3.40894
3.40905
3.40911
3.40919
3.40924
3.40928
3.40932
3.40936
3.40939
3.40943
3.40945
3.40947
3.40947
3.40947
3.40945
3.40941
3.40937
3.40927
3.40917
3.40898
3.40878
3.40838
3.40792
3.40695
3.40555
3.40238
3.39796
3.39403
3.38746
3.38121
3.37122
3.36703
3.3658
3.36548
3.3654
3.43196
3.4403
3.44565
3.45071
3.45347
3.45601
3.45746
3.4589
3.45975
3.46064
3.46116
3.46171
3.46211
3.46265
3.46305
3.46357
3.46394
3.46442
3.46476
3.46519
3.4655
3.46588
3.46616
3.4665
3.46674
3.46704
3.46726
3.46754
3.46776
3.46809
3.4684
3.46858
3.46875
3.46886
3.46899
3.46907
3.46917
3.46924
3.46932
3.46937
3.46944
3.46949
3.46954
3.46958
3.46962
3.46965
3.46968
3.4697
3.46973
3.46975
3.46976
3.46977
3.46979
3.4698
3.46981
3.46982
3.46982
3.46982
3.46982
3.46982
3.4698
3.46979
3.46976
3.46972
3.46966
3.46959
3.46946
3.4693
3.46898
3.46851
3.46745
3.46599
3.46467
3.46249
3.46039
3.4571
3.45569
3.45527
3.45516
3.45513
3.43131
3.44022
3.4464
3.45307
3.45715
3.46159
3.46442
3.46766
3.46975
3.47215
3.47363
3.47525
3.47645
3.47808
3.47927
3.48082
3.48191
3.48331
3.48429
3.48552
3.48638
3.48746
3.48821
3.48915
3.4898
3.49063
3.49121
3.49198
3.49259
3.49353
3.4944
3.4949
3.49541
3.49573
3.49612
3.49638
3.49671
3.49692
3.49719
3.49738
3.49761
3.49776
3.49796
3.49809
3.49825
3.49837
3.4985
3.49859
3.4987
3.49876
3.49884
3.49889
3.49897
3.49902
3.49909
3.49915
3.49921
3.49926
3.49932
3.49936
3.49941
3.49944
3.49948
3.49951
3.49954
3.49956
3.49957
3.49955
3.49948
3.49931
3.49886
3.49813
3.49735
3.49592
3.4944
3.49187
3.49079
3.49046
3.49038
3.49036
3.29358
3.32078
3.33918
3.3593
3.37143
3.38483
3.39323
3.40303
3.40924
3.41648
3.42087
3.42576
3.42932
3.43425
3.43778
3.44246
3.44572
3.44995
3.45285
3.45658
3.45913
3.46239
3.46461
3.46745
3.46939
3.47188
3.47363
3.47594
3.47777
3.48058
3.48322
3.48469
3.48623
3.4872
3.48837
3.48915
3.49012
3.49077
3.49158
3.49213
3.49282
3.49329
3.49388
3.49427
3.49476
3.49509
3.4955
3.49577
3.49609
3.49629
3.49651
3.49667
3.4969
3.49707
3.49728
3.49744
3.49763
3.49777
3.49795
3.49807
3.49822
3.49832
3.49845
3.49853
3.49863
3.49868
3.49871
3.49866
3.49844
3.49793
3.49658
3.49438
3.49207
3.48776
3.48323
3.47556
3.47234
3.47138
3.47114
3.47108
3.15476
3.20169
3.23189
3.26585
3.28566
3.30826
3.322
3.33854
3.34869
3.36093
3.3681
3.37633
3.38214
3.39049
3.39625
3.40417
3.40949
3.41663
3.42138
3.42768
3.43185
3.43736
3.44099
3.44579
3.44896
3.45317
3.45602
3.45992
3.4629
3.46765
3.47208
3.47448
3.47707
3.47866
3.48064
3.48191
3.48355
3.48461
3.48599
3.48688
3.48805
3.48881
3.4898
3.49045
3.49128
3.49182
3.49251
3.49295
3.49349
3.49381
3.49419
3.49445
3.49484
3.49511
3.49548
3.49573
3.49606
3.49628
3.49658
3.49677
3.49703
3.4972
3.49742
3.49755
3.49772
3.4978
3.49785
3.49777
3.49742
3.4966
3.49434
3.49064
3.48687
3.47961
3.47219
3.45908
3.4538
3.45227
3.45189
3.4518
3.01407
3.08326
3.12446
3.17297
3.19977
3.23206
3.25065
3.27431
3.28805
3.30558
3.31529
3.327
3.33485
3.34682
3.35463
3.36598
3.37319
3.38342
3.38985
3.39887
3.40452
3.4124
3.41733
3.42419
3.42849
3.43452
3.43837
3.44393
3.44797
3.45472
3.46103
3.46427
3.46795
3.47011
3.47294
3.47466
3.477
3.47843
3.48041
3.48162
3.48329
3.48433
3.48574
3.48662
3.48781
3.48854
3.48953
3.49012
3.4909
3.49133
3.49187
3.49223
3.49278
3.49314
3.49367
3.49401
3.49449
3.49479
3.49522
3.49548
3.49585
3.49608
3.49639
3.49657
3.49681
3.49692
3.497
3.49689
3.49641
3.49531
3.49215
3.48691
3.48181
3.47147
3.46137
3.44228
3.4351
3.43312
3.43262
3.43251
2.8706
2.96596
3.01672
3.08096
3.11367
3.1564
3.17909
3.21047
3.22726
3.25055
3.26239
3.27781
3.2874
3.30332
3.31287
3.32795
3.33677
3.35036
3.35822
3.3702
3.3771
3.38756
3.39358
3.4027
3.40796
3.41595
3.42065
3.42801
3.43292
3.44182
3.4501
3.45404
3.45889
3.46152
3.46527
3.46738
3.47048
3.47224
3.47486
3.47634
3.47856
3.47982
3.4817
3.48277
3.48436
3.48525
3.48656
3.48729
3.48832
3.48885
3.48955
3.48999
3.49073
3.49117
3.49188
3.49229
3.49293
3.4933
3.49386
3.49418
3.49467
3.49495
3.49537
3.49559
3.49591
3.49605
3.49616
3.49603
3.49543
3.49411
3.49005
3.48317
3.47696
3.46332
3.45092
3.425
3.4162
3.4139
3.41334
3.41322
2.72333
2.85044
2.90845
2.99021
3.02717
3.08154
3.10719
3.14722
3.16621
3.19597
3.20935
3.22887
3.2397
3.26008
3.27089
3.29017
3.30016
3.31752
3.32642
3.34172
3.34954
3.3629
3.36972
3.38136
3.38731
3.39751
3.40283
3.41219
3.41772
3.42893
3.43934
3.44376
3.44993
3.4529
3.45768
3.46006
3.46402
3.46601
3.46935
3.47103
3.47387
3.47529
3.4777
3.47891
3.48093
3.48194
3.48362
3.48444
3.48576
3.48636
3.48725
3.48775
3.48869
3.48919
3.49009
3.49056
3.49138
3.49179
3.49251
3.49288
3.4935
3.49382
3.49435
3.49461
3.49501
3.49517
3.49533
3.49519
3.49448
3.49302
3.48806
3.4794
3.4724
3.45512
3.441
3.40703
3.39704
3.39462
3.39405
3.39392
2.57096
2.73768
2.79923
2.90125
2.93997
3.00783
3.03472
3.0848
3.10474
3.14204
3.15606
3.18027
3.19162
3.21722
3.22858
3.25277
3.26325
3.28502
3.29436
3.31355
3.32175
3.3385
3.34565
3.36025
3.36649
3.37927
3.38484
3.39652
3.40229
3.41608
3.42882
3.43343
3.44109
3.4442
3.45018
3.45268
3.45764
3.45973
3.46391
3.46568
3.46923
3.47073
3.47374
3.47501
3.47755
3.47861
3.48071
3.48157
3.48323
3.48386
3.48496
3.48548
3.48667
3.4872
3.48833
3.48882
3.48984
3.49028
3.49118
3.49156
3.49235
3.49268
3.49334
3.49361
3.49413
3.49429
3.4945
3.49437
3.49355
3.49207
3.48622
3.47556
3.46826
3.4468
3.43188
3.38811
3.37758
3.37526
3.37473
3.37462
2.41193
2.62913
2.68839
2.81483
2.8516
2.93575
2.96131
3.0236
3.04256
3.08905
3.10237
3.13218
3.14296
3.17492
3.18574
3.21591
3.22589
3.25302
3.26192
3.28582
3.29362
3.31449
3.3213
3.33947
3.34541
3.36131
3.36661
3.38108
3.38653
3.40328
3.41862
3.42296
3.43243
3.43538
3.44282
3.44519
3.45137
3.45336
3.45857
3.46025
3.46467
3.4661
3.46985
3.47106
3.47422
3.47523
3.47786
3.47867
3.48074
3.48134
3.4827
3.48319
3.48467
3.48518
3.48659
3.48705
3.48833
3.48874
3.48987
3.49023
3.49121
3.49153
3.49236
3.49261
3.49326
3.49342
3.49369
3.49357
3.49266
3.4913
3.48458
3.47159
3.46469
3.43821
3.42391
3.36786
3.35779
3.35583
3.35541
3.35531
2.24421
2.52689
2.57487
2.73199
2.76134
2.86602
2.88644
2.96412
2.97929
3.03738
3.04802
3.08485
3.09346
3.13347
3.14214
3.17986
3.18785
3.22175
3.22887
3.25873
3.26497
3.29104
3.29648
3.31918
3.32393
3.34378
3.34802
3.366
3.37033
3.39052
3.40887
3.4123
3.42403
3.42638
3.43566
3.43756
3.44527
3.44686
3.45337
3.45472
3.46024
3.46138
3.46606
3.46703
3.47098
3.47179
3.47507
3.47572
3.47831
3.47879
3.48047
3.48086
3.48272
3.48312
3.48488
3.48526
3.48685
3.48718
3.48859
3.48888
3.4901
3.49035
3.49139
3.49159
3.49241
3.49253
3.4929
3.49281
3.49178
3.49074
3.48318
3.46738
3.46189
3.42913
3.41762
3.34577
3.33768
3.33634
3.33606
3.336
2.06518
2.43405
2.45698
2.65426
2.66806
2.79966
2.80927
2.90715
2.91429
2.98762
2.99262
3.03865
3.0427
3.09328
3.09737
3.145
3.14877
3.19155
3.1949
3.23258
3.23552
3.26841
3.27098
3.2996
3.30184
3.32688
3.32887
3.35147
3.35349
3.37785
3.39971
3.4013
3.416
3.41711
3.4288
3.42969
3.43942
3.44017
3.44838
3.44901
3.45598
3.45652
3.46243
3.46288
3.46787
3.46825
3.47239
3.4727
3.47596
3.47619
3.47829
3.47848
3.48082
3.48101
3.48323
3.48341
3.48542
3.48558
3.48735
3.48749
3.48903
3.48915
3.49046
3.49055
3.49158
3.49164
3.49213
3.49209
3.4909
3.49044
3.48211
3.46276
3.46019
3.41921
3.41374
3.32113
3.31729
3.31681
3.31671
3.31669
2.06518
2.43405
2.45697
2.65426
2.66806
2.79966
2.80927
2.90715
2.91429
2.98761
2.99262
3.03865
3.0427
3.09328
3.09737
3.145
3.14877
3.19155
3.1949
3.23258
3.23552
3.26841
3.27098
3.2996
3.30184
3.32688
3.32887
3.35147
3.35349
3.37785
3.39971
3.4013
3.416
3.41711
3.4288
3.42969
3.43942
3.44017
3.44838
3.44901
3.45598
3.45652
3.46243
3.46288
3.46787
3.46825
3.47239
3.4727
3.47596
3.47619
3.47829
3.47848
3.48082
3.48101
3.48323
3.48341
3.48542
3.48558
3.48735
3.48749
3.48903
3.48915
3.49046
3.49055
3.49158
3.49164
3.49213
3.49209
3.4909
3.49044
3.48211
3.46276
3.46019
3.41921
3.41374
3.32113
3.31729
3.31681
3.31671
3.31669
2.24421
2.52689
2.57487
2.73199
2.76133
2.86602
2.88644
2.96412
2.97929
3.03738
3.04802
3.08485
3.09346
3.13347
3.14214
3.17986
3.18785
3.22175
3.22886
3.25873
3.26497
3.29104
3.29648
3.31918
3.32393
3.34378
3.34802
3.366
3.37033
3.39052
3.40887
3.4123
3.42403
3.42638
3.43566
3.43756
3.44527
3.44686
3.45337
3.45471
3.46024
3.46138
3.46606
3.46703
3.47098
3.47179
3.47507
3.47572
3.47831
3.47879
3.48047
3.48086
3.48272
3.48312
3.48488
3.48526
3.48685
3.48718
3.48859
3.48888
3.4901
3.49035
3.49139
3.49159
3.49241
3.49253
3.4929
3.49281
3.49178
3.49074
3.48318
3.46738
3.46189
3.42913
3.41762
3.34577
3.33768
3.33634
3.33606
3.336
2.41193
2.62913
2.68839
2.81483
2.8516
2.93575
2.96131
3.0236
3.04256
3.08905
3.10237
3.13218
3.14296
3.17492
3.18574
3.21591
3.22589
3.25302
3.26191
3.28582
3.29362
3.31449
3.3213
3.33947
3.34541
3.36131
3.36661
3.38108
3.38653
3.40328
3.41862
3.42296
3.43243
3.43538
3.44282
3.44519
3.45137
3.45336
3.45857
3.46025
3.46467
3.4661
3.46985
3.47106
3.47422
3.47523
3.47786
3.47867
3.48074
3.48134
3.4827
3.48319
3.48467
3.48518
3.48659
3.48705
3.48833
3.48874
3.48987
3.49023
3.49121
3.49153
3.49236
3.49261
3.49326
3.49342
3.49369
3.49357
3.49266
3.4913
3.48458
3.47159
3.46469
3.43821
3.42391
3.36786
3.35779
3.35583
3.35541
3.35531
2.57096
2.73768
2.79923
2.90125
2.93996
3.00782
3.03471
3.0848
3.10474
3.14204
3.15606
3.18026
3.19162
3.21721
3.22858
3.25277
3.26325
3.28502
3.29436
3.31355
3.32175
3.3385
3.34565
3.36024
3.36649
3.37927
3.38484
3.39652
3.40229
3.41608
3.42882
3.43342
3.44109
3.4442
3.45018
3.45268
3.45764
3.45973
3.46391
3.46568
3.46923
3.47073
3.47374
3.47501
3.47755
3.47861
3.48071
3.48157
3.48323
3.48386
3.48496
3.48548
3.48667
3.4872
3.48833
3.48882
3.48984
3.49028
3.49118
3.49156
3.49235
3.49268
3.49334
3.49361
3.49413
3.49429
3.4945
3.49437
3.49355
3.49207
3.48622
3.47556
3.46826
3.4468
3.43188
3.38811
3.37758
3.37526
3.37474
3.37462
2.72333
2.85044
2.90845
2.99021
3.02717
3.08154
3.10719
3.14722
3.16621
3.19597
3.20935
3.22887
3.2397
3.26008
3.27089
3.29017
3.30016
3.31752
3.32642
3.34172
3.34954
3.3629
3.36972
3.38136
3.38731
3.39751
3.40283
3.41219
3.41772
3.42893
3.43934
3.44376
3.44993
3.4529
3.45768
3.46006
3.46402
3.46601
3.46935
3.47103
3.47387
3.47529
3.4777
3.4789
3.48093
3.48194
3.48362
3.48444
3.48576
3.48636
3.48725
3.48775
3.48869
3.48919
3.49009
3.49056
3.49138
3.49179
3.49251
3.49288
3.4935
3.49382
3.49435
3.49461
3.49501
3.49517
3.49532
3.49519
3.49448
3.49302
3.48806
3.4794
3.4724
3.45512
3.441
3.40704
3.39705
3.39462
3.39405
3.39392
2.8706
2.96596
3.01672
3.08096
3.11367
3.15639
3.17909
3.21047
3.22726
3.25055
3.26239
3.27781
3.2874
3.30332
3.31287
3.32795
3.33677
3.35036
3.35822
3.3702
3.3771
3.38756
3.39358
3.4027
3.40796
3.41595
3.42065
3.42801
3.43292
3.44182
3.4501
3.45403
3.45889
3.46152
3.46527
3.46738
3.47048
3.47224
3.47486
3.47634
3.47856
3.47982
3.4817
3.48277
3.48436
3.48525
3.48656
3.48729
3.48832
3.48885
3.48955
3.48999
3.49073
3.49117
3.49188
3.49229
3.49293
3.4933
3.49386
3.49418
3.49467
3.49495
3.49537
3.49559
3.49591
3.49605
3.49616
3.49603
3.49543
3.49411
3.49005
3.48317
3.47696
3.46332
3.45092
3.425
3.4162
3.4139
3.41334
3.41322
3.01407
3.08326
3.12446
3.17297
3.19977
3.23205
3.25065
3.27431
3.28805
3.30558
3.31528
3.327
3.33485
3.34682
3.35463
3.36598
3.37319
3.38342
3.38985
3.39887
3.40452
3.4124
3.41733
3.42419
3.42849
3.43452
3.43837
3.44393
3.44797
3.45472
3.46103
3.46427
3.46795
3.47011
3.47294
3.47466
3.477
3.47843
3.48041
3.48162
3.48329
3.48433
3.48574
3.48662
3.48781
3.48854
3.48953
3.49012
3.4909
3.49133
3.49186
3.49223
3.49278
3.49314
3.49367
3.49401
3.49449
3.49479
3.49522
3.49548
3.49585
3.49608
3.49639
3.49657
3.49681
3.49692
3.497
3.49689
3.49641
3.49531
3.49215
3.48691
3.48181
3.47147
3.46137
3.44228
3.4351
3.43312
3.43262
3.43251
3.15476
3.20169
3.23189
3.26585
3.28566
3.30826
3.322
3.33854
3.34869
3.36093
3.3681
3.37633
3.38214
3.39049
3.39625
3.40417
3.40949
3.41663
3.42138
3.42768
3.43185
3.43736
3.44099
3.44579
3.44896
3.45317
3.45602
3.45992
3.4629
3.46765
3.47208
3.47448
3.47707
3.47866
3.48064
3.48191
3.48355
3.48461
3.48599
3.48688
3.48805
3.48881
3.4898
3.49045
3.49128
3.49182
3.49251
3.49295
3.49349
3.49381
3.49419
3.49445
3.49484
3.49511
3.49548
3.49573
3.49606
3.49628
3.49658
3.49677
3.49703
3.4972
3.49742
3.49755
3.49772
3.4978
3.49785
3.49777
3.49742
3.4966
3.49434
3.49064
3.48687
3.47961
3.47219
3.45908
3.4538
3.45227
3.45189
3.4518
3.29358
3.32078
3.33918
3.3593
3.37143
3.38482
3.39323
3.40303
3.40924
3.41648
3.42087
3.42576
3.42932
3.43425
3.43778
3.44246
3.44572
3.44995
3.45285
3.45658
3.45913
3.46239
3.46461
3.46745
3.46939
3.47188
3.47363
3.47594
3.47777
3.48058
3.48322
3.48469
3.48623
3.4872
3.48837
3.48915
3.49012
3.49077
3.49158
3.49213
3.49282
3.49329
3.49388
3.49427
3.49476
3.49509
3.4955
3.49577
3.49609
3.49629
3.49651
3.49667
3.4969
3.49707
3.49728
3.49744
3.49763
3.49777
3.49795
3.49807
3.49822
3.49832
3.49845
3.49853
3.49863
3.49868
3.49871
3.49866
3.49844
3.49793
3.49658
3.49438
3.49207
3.48776
3.48323
3.47556
3.47234
3.47138
3.47114
3.47108
3.43131
3.44022
3.4464
3.45307
3.45715
3.46159
3.46442
3.46766
3.46975
3.47215
3.47363
3.47525
3.47645
3.47808
3.47927
3.48081
3.48191
3.48331
3.48429
3.48552
3.48638
3.48746
3.48821
3.48915
3.4898
3.49063
3.49121
3.49198
3.49259
3.49353
3.4944
3.4949
3.49541
3.49573
3.49612
3.49638
3.49671
3.49692
3.49719
3.49738
3.49761
3.49776
3.49796
3.49809
3.49825
3.49837
3.4985
3.49859
3.4987
3.49876
3.49884
3.49889
3.49897
3.49902
3.49909
3.49915
3.49921
3.49926
3.49932
3.49936
3.49941
3.49944
3.49948
3.49951
3.49954
3.49956
3.49957
3.49955
3.49948
3.49931
3.49886
3.49813
3.49735
3.49592
3.4944
3.49187
3.49079
3.49046
3.49038
3.49036
3.43194
3.44028
3.44562
3.45066
3.4534
3.4559
3.4573
3.45865
3.45941
3.46015
3.46067
3.46134
3.46183
3.46245
3.46288
3.46344
3.46384
3.46434
3.46469
3.46513
3.46545
3.46584
3.46612
3.46647
3.46671
3.46702
3.46723
3.46752
3.46774
3.46808
3.46839
3.46857
3.46874
3.46885
3.46898
3.46906
3.46917
3.46923
3.46931
3.46937
3.46944
3.46948
3.46954
3.46957
3.46962
3.46965
3.46968
3.4697
3.46973
3.46974
3.46976
3.46977
3.46979
3.4698
3.46981
3.46982
3.46982
3.46982
3.46982
3.46982
3.4698
3.46979
3.46976
3.46972
3.46966
3.46959
3.46946
3.4693
3.46898
3.46851
3.46745
3.46599
3.46467
3.46249
3.46039
3.4571
3.45569
3.45527
3.45516
3.45513
3.2955
3.32095
3.33687
3.35206
3.3602
3.36775
3.3719
3.37598
3.37823
3.38046
3.382
3.38404
3.38547
3.38734
3.38865
3.39033
3.3915
3.39301
3.39406
3.39541
3.39634
3.39753
3.39835
3.3994
3.40012
3.40105
3.4017
3.40255
3.40322
3.40424
3.40518
3.4057
3.40623
3.40655
3.40694
3.40719
3.4075
3.4077
3.40795
3.40811
3.40831
3.40844
3.40861
3.40872
3.40885
3.40894
3.40904
3.40911
3.40918
3.40923
3.40928
3.40932
3.40936
3.40939
3.40943
3.40945
3.40947
3.40947
3.40947
3.40945
3.40941
3.40937
3.40927
3.40917
3.40898
3.40878
3.40838
3.40792
3.40695
3.40555
3.40238
3.39796
3.39403
3.38746
3.38121
3.37122
3.36703
3.3658
3.36548
3.3654
3.15803
3.202
3.22815
3.25375
3.26702
3.27973
3.28651
3.29338
3.29705
3.3008
3.30331
3.30676
3.3091
3.31227
3.31439
3.31725
3.31916
3.32171
3.32342
3.3257
3.32722
3.32923
3.33057
3.33235
3.33353
3.3351
3.33615
3.33759
3.33869
3.3404
3.34199
3.34283
3.34372
3.34426
3.34491
3.34532
3.34583
3.34616
3.34658
3.34685
3.34719
3.34741
3.34768
3.34786
3.34808
3.34823
3.3484
3.34851
3.34864
3.34872
3.3488
3.34886
3.34894
3.34898
3.34904
3.34908
3.34911
3.34912
3.34911
3.34909
3.34902
3.34895
3.34879
3.34862
3.3483
3.34797
3.34731
3.34655
3.34494
3.34267
3.33735
3.32991
3.3235
3.31242
3.30218
3.28511
3.27826
3.27629
3.27578
3.27567
3.01881
3.08377
3.11945
3.15593
3.17386
3.19195
3.20112
3.2109
3.21587
3.22119
3.22458
3.22952
3.23269
3.23723
3.24011
3.2442
3.24678
3.25044
3.25276
3.25602
3.25807
3.26096
3.26278
3.26532
3.26692
3.26916
3.27059
3.27265
3.27413
3.27657
3.27883
3.27997
3.28123
3.28195
3.28288
3.28344
3.28418
3.28462
3.28522
3.28558
3.28607
3.28637
3.28676
3.287
3.28732
3.28751
3.28777
3.28791
3.2881
3.2882
3.28832
3.2884
3.28851
3.28858
3.28866
3.28871
3.28876
3.28877
3.28876
3.28872
3.28863
3.28853
3.2883
3.28808
3.28763
3.28717
3.28624
3.28521
3.28296
3.2799
3.2724
3.26183
3.25316
3.23734
3.22343
3.19859
3.18929
3.18672
3.18607
3.18593
2.87699
2.9667
3.01072
3.05885
3.0807
3.10452
3.11569
3.12862
3.13467
3.14166
3.14579
3.15236
3.15623
3.16226
3.16578
3.1712
3.17437
3.17923
3.18205
3.18639
3.1889
3.19274
3.19496
3.19834
3.20029
3.20326
3.20501
3.20773
3.20953
3.21275
3.21571
3.21709
3.21876
3.21964
3.22087
3.22155
3.22253
3.22308
3.22387
3.22431
3.22496
3.22532
3.22585
3.22614
3.22657
3.2268
3.22714
3.22732
3.22756
3.22769
3.22785
3.22794
3.22809
3.22817
3.22829
3.22834
3.2284
3.22842
3.2284
3.22836
3.22824
3.22812
3.22782
3.22755
3.22695
3.2264
3.22517
3.22393
3.221
3.21732
3.20758
3.19366
3.1831
3.16219
3.14511
3.11144
3.10005
3.09707
3.09634
3.09618
2.73158
2.85147
2.90182
2.96282
2.98746
3.0176
3.0302
3.04662
3.05344
3.06224
3.0669
3.0753
3.07969
3.08739
3.09137
3.0983
3.10188
3.10809
3.11129
3.11683
3.11967
3.12458
3.12709
3.1314
3.13361
3.13741
3.13938
3.14285
3.14487
3.14894
3.15265
3.15421
3.15632
3.15731
3.15888
3.15965
3.1609
3.16152
3.16253
3.16303
3.16386
3.16427
3.16494
3.16527
3.16582
3.16608
3.16651
3.16671
3.16703
3.16717
3.16737
3.16748
3.16767
3.16776
3.16791
3.16797
3.16805
3.16807
3.16805
3.16801
3.16785
3.16771
3.16733
3.16703
3.16627
3.16565
3.1641
3.16271
3.15908
3.15498
3.14293
3.12536
3.11346
3.08689
3.06745
3.02341
3.01047
3.00733
3.00659
3.00643
2.58137
2.73901
2.7925
2.86825
2.89401
2.93139
2.94456
2.965
2.97213
2.98299
2.98787
2.9984
3.00301
3.01266
3.01685
3.02554
3.0293
3.03708
3.04044
3.04738
3.05036
3.05651
3.05915
3.06456
3.06687
3.07163
3.0737
3.07802
3.08013
3.08514
3.08968
3.0913
3.09392
3.09496
3.09693
3.09773
3.0993
3.09995
3.10122
3.10174
3.10278
3.10321
3.10405
3.1044
3.10508
3.10536
3.10589
3.10611
3.10651
3.10666
3.1069
3.10702
3.10725
3.10735
3.10754
3.1076
3.1077
3.10772
3.1077
3.10765
3.10746
3.10731
3.10685
3.10653
3.10558
3.10493
3.10303
3.10159
3.09718
3.09295
3.0785
3.05684
3.0444
3.0113
2.99078
2.93413
2.92051
2.9175
2.91682
2.91667
2.42486
2.63073
2.68228
2.77568
2.80008
2.84614
2.85862
2.88391
2.89066
2.90398
2.9086
2.92174
2.92613
2.93816
2.94214
2.95297
2.95655
2.96624
2.96944
2.97809
2.98093
2.98859
2.99109
2.99783
3.00004
3.00596
3.00793
3.01328
3.01528
3.02136
3.02683
3.02835
3.03159
3.03258
3.03502
3.03579
3.03774
3.03835
3.03993
3.04043
3.04172
3.04213
3.04318
3.04351
3.04436
3.04462
3.04529
3.04549
3.04599
3.04613
3.04644
3.04655
3.04684
3.04694
3.04717
3.04723
3.04736
3.04737
3.04735
3.04731
3.04707
3.04693
3.04635
3.04605
3.04489
3.04427
3.04193
3.04058
3.03526
3.03133
3.01436
2.98795
2.97617
2.93521
2.91556
2.84313
2.83011
2.82758
2.82702
2.8269
2.26012
2.52861
2.5704
2.68587
2.70529
2.76223
2.77218
2.80356
2.80894
2.82531
2.829
2.84543
2.84894
2.86398
2.86717
2.88069
2.88355
2.89567
2.89822
2.90903
2.9113
2.92087
2.92287
2.93129
2.93305
2.94044
2.94202
2.94868
2.95026
2.95761
2.96414
2.96534
2.96934
2.97014
2.97318
2.97379
2.97622
2.97672
2.97869
2.97909
2.9807
2.98102
2.98234
2.9826
2.98366
2.98387
2.98471
2.98487
2.98549
2.98561
2.98598
2.98607
2.98644
2.98652
2.98681
2.98686
2.98701
2.98703
2.987
2.98697
2.98667
2.98656
2.98585
2.98561
2.98417
2.98368
2.9808
2.97973
2.9733
2.97024
2.95059
2.91847
2.9091
2.85826
2.84244
2.74976
2.7393
2.73757
2.73721
2.73713
2.08463
2.43557
2.45556
2.59989
2.609
2.68021
2.68487
2.72425
2.72677
2.74715
2.74888
2.76964
2.77129
2.79027
2.79177
2.80884
2.81019
2.82547
2.82668
2.84031
2.84138
2.85345
2.8544
2.86501
2.86584
2.87516
2.8759
2.88428
2.88502
2.89388
2.90165
2.90221
2.90723
2.9076
2.91143
2.91172
2.91479
2.91502
2.91751
2.9177
2.91973
2.91988
2.92153
2.92166
2.92299
2.92309
2.92415
2.92423
2.92501
2.92507
2.92554
2.92558
2.92605
2.92609
2.92645
2.92648
2.92668
2.92669
2.92666
2.92664
2.92627
2.92622
2.92533
2.92521
2.92341
2.92318
2.91959
2.9191
2.91119
2.90981
2.88732
2.84808
2.8437
2.77992
2.7724
2.65309
2.64814
2.64751
2.64739
2.64736
)
;

boundaryField
{
    F1_1
    {
        type            fixedValue;
        value           nonuniform List<scalar> 
80
(
1.9901
2.39618
2.39618
2.56072
2.56072
2.6429
2.6429
2.69052
2.69052
2.72072
2.72072
2.73811
2.73811
2.75719
2.75719
2.77539
2.77539
2.79213
2.79213
2.80726
2.80726
2.82076
2.82076
2.83268
2.83268
2.84318
2.84318
2.85261
2.85261
2.86233
2.87077
2.87077
2.87643
2.87643
2.88077
2.88077
2.88424
2.88424
2.88705
2.88705
2.88935
2.88935
2.89122
2.89122
2.89273
2.89273
2.89393
2.89393
2.89482
2.89482
2.89535
2.89535
2.89589
2.89589
2.89631
2.89631
2.89653
2.89653
2.89649
2.89649
2.89608
2.89608
2.89506
2.89506
2.89301
2.89301
2.88894
2.88894
2.88002
2.88002
2.85603
2.81219
2.81219
2.73962
2.73962
2.60247
2.60247
2.60247
2.60247
2.60247
)
;
    }
    F1_2
    {
        type            fixedValue;
        value           nonuniform List<scalar> 
80
(
1.96829
2.39454
2.39454
2.61906
2.61906
2.76892
2.76892
2.88047
2.88047
2.9641
2.9641
3.01639
3.01639
3.07411
3.07411
3.12845
3.12845
3.17724
3.17724
3.2202
3.2202
3.2577
3.2577
3.29034
3.29034
3.31888
3.31888
3.34462
3.34462
3.37156
3.39553
3.39553
3.41226
3.41226
3.42558
3.42558
3.43667
3.43667
3.44603
3.44603
3.45398
3.45398
3.46072
3.46072
3.4664
3.4664
3.47113
3.47113
3.47485
3.47485
3.47724
3.47724
3.47991
3.47991
3.48245
3.48245
3.48474
3.48474
3.48676
3.48676
3.48852
3.48852
3.49001
3.49001
3.49119
3.49119
3.49175
3.49175
3.49045
3.49045
3.4818
3.46011
3.46011
3.41354
3.41354
3.30703
3.30703
3.30703
3.30703
3.30703
)
;
    }
    F1_3
    {
        type            fixedValue;
        value           nonuniform List<scalar> 
80
(
1.96829
2.39454
2.39454
2.61906
2.61906
2.76892
2.76892
2.88047
2.88047
2.9641
2.9641
3.01639
3.01639
3.07411
3.07411
3.12844
3.12844
3.17724
3.17724
3.2202
3.2202
3.2577
3.2577
3.29034
3.29034
3.31888
3.31888
3.34462
3.34462
3.37156
3.39553
3.39553
3.41226
3.41226
3.42558
3.42558
3.43667
3.43667
3.44603
3.44603
3.45398
3.45398
3.46072
3.46072
3.4664
3.4664
3.47113
3.47113
3.47485
3.47485
3.47724
3.47724
3.47991
3.47991
3.48245
3.48245
3.48474
3.48474
3.48676
3.48676
3.48852
3.48852
3.49001
3.49001
3.49119
3.49119
3.49175
3.49175
3.49045
3.49045
3.4818
3.46011
3.46011
3.41354
3.41354
3.30703
3.30703
3.30703
3.30703
3.30703
)
;
    }
    F1_4
    {
        type            fixedValue;
        value           nonuniform List<scalar> 
80
(
1.98987
2.39566
2.39566
2.55961
2.55961
2.64053
2.64053
2.68533
2.68533
2.70845
2.70845
2.73213
2.73213
2.75377
2.75377
2.77323
2.77323
2.79066
2.79066
2.8062
2.8062
2.81996
2.81996
2.83207
2.83207
2.84269
2.84269
2.85223
2.85223
2.86204
2.87056
2.87056
2.87627
2.87627
2.88063
2.88063
2.88413
2.88413
2.88697
2.88697
2.88928
2.88928
2.89116
2.89116
2.89269
2.89269
2.89389
2.89389
2.89479
2.89479
2.89533
2.89533
2.89587
2.89587
2.89629
2.89629
2.89651
2.89651
2.89648
2.89648
2.89606
2.89606
2.89505
2.89505
2.893
2.893
2.88893
2.88893
2.88001
2.88001
2.85602
2.81219
2.81219
2.73962
2.73962
2.60247
2.60247
2.60247
2.60247
2.60247
)
;
    }
    F2_1
    {
        type            fixedValue;
        value           uniform 3.5;
    }
    F2_2
    {
        type            fixedValue;
        value           uniform 3.5;
    }
    F2_3
    {
        type            fixedValue;
        value           uniform 3.5;
    }
    F2_4
    {
        type            fixedValue;
        value           uniform 3.5;
    }
    defaultFaces
    {
        type            empty;
    }
}


// ************************************************************************* //
