/*--------------------------------*- C++ -*----------------------------------*\
| =========                 |                                                 |
| \\      /  F ield         | OpenFOAM: The Open Source CFD Toolbox           |
|  \\    /   O peration     | Version:  5.x                                   |
|   \\  /    A nd           | Web:      www.OpenFOAM.org                      |
|    \\/     M anipulation  |                                                 |
\*---------------------------------------------------------------------------*/
FoamFile
{
    version     2.0;
    format      ascii;
    class       volScalarField;
    location    "0.5";
    object      gradTy;
}
// * * * * * * * * * * * * * * * * * * * * * * * * * * * * * * * * * * * * * //

dimensions      [0 -1 0 1 0 0 0];

internalField   nonuniform List<scalar> 
6300
(
32285.1
32255.3
32225.4
32195.3
32165
32134.4
32103.5
32072.1
32040.3
32008
31975.2
31941.8
31907.9
31873.4
31838.4
0.0502333
0.150239
0.248807
0.344861
0.437179
0.524351
0.604762
0.676612
0.737971
0.786901
0.821633
0.840802
0.843712
0.830603
0.802823
0.0842831
0.252102
0.417616
0.5791
0.734563
0.881675
1.01773
1.13965
1.24409
1.32763
1.38706
1.4198
1.42441
1.40109
1.3521
0.119075
0.356252
0.590429
0.819325
1.04026
1.25001
1.44477
1.6201
1.77104
1.89239
1.97908
2.02683
2.03293
1.99716
1.92253
0.154837
0.463403
0.768524
1.06752
1.35713
1.63334
1.89124
2.12493
2.3276
2.49182
2.61006
2.67552
2.68334
2.63208
2.52515
0.19171
0.574
0.95275
1.32509
1.6874
2.035
2.36194
2.66078
2.92261
3.13725
3.29383
3.38186
3.39287
3.32268
3.17408
0.229712
0.68814
1.14339
1.5927
2.03238
2.45733
2.86073
3.23365
3.56482
3.84076
4.04618
4.16524
4.1836
4.09172
3.88926
0.268713
0.805461
1.33996
1.86997
2.39208
2.90123
3.39003
3.84827
4.2623
4.61479
4.8849
5.04933
5.08462
4.97138
4.70093
0.308391
0.925035
1.54103
2.15512
2.76477
3.36546
3.94991
4.50711
5.02133
5.47122
5.82934
6.06257
6.1342
6.00828
5.65784
0.348208
1.04526
1.744
2.44473
3.14643
3.84596
4.53705
5.20893
5.8447
6.41945
6.89868
7.23745
7.38136
7.26974
6.84151
0.387388
1.16381
1.94498
2.73337
3.53025
4.33491
5.14341
5.94689
6.72909
7.46323
8.10849
8.6072
8.8841
8.84785
8.38791
0.424922
1.27762
2.13875
3.01352
3.90632
4.82002
5.75482
6.70615
7.66157
8.5959
9.46489
10.1988
10.7
10.8497
10.5053
0.459606
1.38299
2.31889
3.27565
4.26148
5.28407
6.34969
7.46133
8.61515
9.79393
10.9564
12.0231
12.8676
13.3455
13.4045
0.490123
1.47585
2.47817
3.50871
4.57989
5.7051
6.89855
8.17436
9.5438
11.0083
12.5437
14.0695
15.4019
16.2603
16.748
0.515164
1.55211
2.60923
3.70115
4.8443
6.0579
7.36506
8.79381
10.3774
12.1517
14.1408
16.3095
18.4101
19.546
17.2149
31805.8
31775.8
31745.5
31714.8
31683.9
31652.7
31621.2
31589.5
31557.7
31525.6
31493.3
31460.9
31428.4
31395.7
31363
31330.2
31297.3
31264.5
31231.6
31198.7
31165.9
31133
31100.2
31067.4
31034.6
31001.8
30969
30936.3
30903.5
30870.8
30838.1
30805.5
30772.8
30740.3
30707.7
30675.2
30642.8
30610.3
30577.9
30545.5
30513.1
30480.7
30448.4
30416
30383.6
30351.3
30318.9
30286.6
30254.2
30221.9
30189.6
30157.3
30125.1
30092.8
30060.5
30028.1
29995.8
29963.4
29931.1
29898.6
29866.2
29833.8
29801.4
29768.9
29736.5
29704
29671.6
29639.2
29606.7
29574.2
29541.7
29509.2
29476.7
29444.1
29411.6
29379
29346.5
29313.9
29281.3
29248.8
29216.2
29183.7
29151
29118.4
29085.6
29052.8
29019.9
28986.9
28953.7
28920.4
0.766193
0.726601
0.682882
0.63714
0.591144
0.546088
0.502471
0.460116
0.418327
0.376166
0.332771
0.287661
0.24096
0.193485
0.146689
0.102456
0.0627942
0.0294789
0.00373274
-0.0140056
-0.0241772
-0.0280489
-0.0275235
-0.0248475
-0.022264
-0.0216674
-0.0243147
-0.0306406
-0.0402094
-0.0518154
-0.0637186
-0.0739754
-0.0808036
-0.0829134
-0.0797441
-0.0715667
-0.0594407
-0.0450359
-0.0303547
-0.0173984
-0.00783492
-0.00271994
-0.00231825
-0.0060585
-0.0126326
-0.0202271
-0.0268481
-0.0306795
-0.0304077
-0.0254525
-0.0160668
-0.00329104
0.0112254
0.0255025
0.0375621
0.0457605
0.0490669
0.0472422
0.0408833
0.031324
0.0204016
0.0101316
0.00234769
-0.00162289
-0.00118934
0.00340681
0.0111435
0.0204055
0.0292744
0.0358749
0.0387221
0.0370137
0.0308199
0.0211359
0.00978182
-0.000839014
-0.00808731
-0.0094835
-0.00308681
0.0121997
0.036437
0.0685863
0.106573
0.147464
0.18774
0.223638
0.25155
0.268425
0.272143
0.261786
1.28768
1.21829
1.1421
1.06308
0.984533
0.90866
0.836261
0.766779
0.698626
0.629728
0.558168
0.482794
0.403663
0.322234
0.241251
0.164347
0.0954251
0.0379585
-0.00564956
-0.0345168
-0.049463
-0.0529008
-0.0484665
-0.0404547
-0.0331526
-0.0301763
-0.0339141
-0.0451664
-0.0630474
-0.0851734
-0.10812
-0.128067
-0.14152
-0.145952
-0.140267
-0.124984
-0.10215
-0.0749925
-0.0473756
-0.0231638
-0.00558002
0.00333355
0.00306355
-0.00527953
-0.0191477
-0.0350033
-0.0489543
-0.0574586
-0.0579593
-0.0493316
-0.0320692
-0.00818867
0.0191185
0.0460242
0.0687035
0.0839744
0.0898363
0.0858189
0.0730765
0.0542013
0.0327734
0.012722
-0.00238083
-0.00995769
-0.00887165
0.000392827
0.015835
0.0343017
0.052046
0.0653911
0.0713971
0.0684257
0.0565114
0.0374718
0.0147246
-0.00717327
-0.0231944
-0.0286036
-0.0196814
0.00570695
0.0477641
0.104658
0.172649
0.246415
0.319539
0.385123
0.436507
0.468018
0.475688
0.457794
1.82465
1.71964
1.60528
1.48819
1.37394
1.2661
1.16571
1.07139
0.979856
0.886981
0.788913
0.683189
0.569529
0.450191
0.329791
0.214594
0.11141
0.0263321
-0.0364083
-0.0752234
-0.0914687
-0.0892359
-0.0747068
-0.0551841
-0.0379547
-0.0291577
-0.032831
-0.0502835
-0.0799064
-0.117482
-0.156967
-0.191636
-0.215346
-0.223679
-0.214724
-0.189383
-0.151192
-0.105711
-0.0595883
-0.0194754
0.00907472
0.0225311
0.0199954
0.00338553
-0.022866
-0.0525821
-0.0789586
-0.0958127
-0.0987003
-0.0856843
-0.0576358
-0.0180497
0.0275656
0.0726128
0.110499
0.135728
0.144827
0.136958
0.114104
0.0807615
0.0431729
0.00819994
-0.0179303
-0.0307476
-0.0283085
-0.0114919
0.0161991
0.0492689
0.0811856
0.105511
0.117038
0.112756
0.092506
0.0591914
0.0184907
-0.0219219
-0.0535328
-0.0683102
-0.0599352
-0.024736
0.0377796
0.124803
0.230463
0.346346
0.462247
0.567109
0.65013
0.701993
0.716092
0.689528
2.38469
2.2345
2.0724
1.90924
1.75416
1.61282
1.48647
1.372
1.26306
1.15175
1.03072
0.895051
0.743608
0.579717
0.41088
0.247583
0.101365
-0.0174188
-0.101577
-0.148389
-0.160042
-0.143237
-0.108098
-0.0665728
-0.0305769
-0.0101465
-0.0118723
-0.0378433
-0.0852844
-0.147012
-0.212727
-0.270962
-0.311294
-0.326283
-0.312759
-0.27227
-0.210721
-0.137339
-0.0631374
0.000871648
0.0454712
0.0647623
0.0571969
0.0259353
-0.021597
-0.0749737
-0.122681
-0.154287
-0.162353
-0.143696
-0.099831
-0.0366091
0.0368126
0.109494
0.170499
0.210685
0.224225
0.20965
0.170204
0.113404
0.0497711
-0.00909282
-0.0526896
-0.0735479
-0.0684921
-0.0390799
0.00877221
0.0658506
0.12121
0.164016
0.185396
0.180035
0.147269
0.0915037
0.0217998
-0.0493855
-0.10815
-0.141393
-0.138851
-0.0945487
-0.00752887
0.118082
0.273527
0.446221
0.620824
0.780522
0.908597
0.990323
1.01503
0.977913
2.97718
2.76654
2.54108
2.31871
2.11463
1.93801
1.79016
1.66473
1.54972
1.43056
1.29368
1.12968
0.935677
0.71643
0.484055
0.256042
0.0518791
-0.110964
-0.22046
-0.272118
-0.269528
-0.223577
-0.150624
-0.0699383
-0.000725869
0.0408263
0.0440534
0.00556489
-0.0700416
-0.170756
-0.279215
-0.376032
-0.443701
-0.469914
-0.449595
-0.385455
-0.287267
-0.170125
-0.0519899
0.0491855
0.118326
0.145678
0.12853
0.0719202
-0.01191
-0.105531
-0.189595
-0.246667
-0.264498
-0.238023
-0.169917
-0.0698761
0.0471031
0.163164
0.260452
0.32398
0.344077
0.31812
0.251253
0.155841
0.0494549
-0.0484209
-0.120247
-0.153722
-0.143809
-0.0932828
-0.0120036
0.0848438
0.179247
0.253308
0.292199
0.286713
0.23509
0.143826
0.0271831
-0.0947921
-0.199574
-0.266061
-0.277952
-0.225922
-0.108455
0.0683585
0.291708
0.543309
0.800826
1.03943
1.23377
1.36073
1.40295
1.35228
3.61525
3.31995
3.00538
2.70189
2.43562
2.22183
2.0616
1.94254
1.84242
1.73495
1.59576
1.40761
1.16417
0.872124
0.551027
0.230241
-0.0570265
-0.281247
-0.422548
-0.473885
-0.441373
-0.342719
-0.204206
-0.0567071
0.0690291
0.147057
0.160117
0.102486
-0.0185836
-0.183295
-0.362414
-0.523028
-0.635763
-0.680512
-0.649499
-0.547639
-0.391075
-0.204313
-0.0163967
0.143651
0.251375
0.290691
0.256697
0.15711
0.0118782
-0.149851
-0.295382
-0.395568
-0.430457
-0.392317
-0.286012
-0.127559
0.0586886
0.243836
0.398985
0.499778
0.530207
0.485456
0.373357
0.214027
0.036826
-0.125324
-0.243095
-0.296445
-0.277681
-0.191848
-0.0552761
0.107277
0.266497
0.393164
0.462824
0.459749
0.379919
0.232617
0.040172
-0.165028
-0.346211
-0.46941
-0.509162
-0.451585
-0.294896
-0.04843
0.269156
0.631829
1.00801
1.36204
1.65594
1.85313
1.92458
1.85573
4.3199
3.90116
3.45376
3.03155
2.68112
2.42858
2.27386
2.19313
2.1458
2.08509
1.96844
1.76523
1.46275
1.06974
0.617649
0.156267
-0.256623
-0.570835
-0.754089
-0.796294
-0.708368
-0.519165
-0.270635
-0.0120471
0.207571
0.346928
0.378053
0.290837
0.0957888
-0.175022
-0.472203
-0.738916
-0.925674
-1.00016
-0.95138
-0.78856
-0.538334
-0.240131
0.0593564
0.313486
0.482956
0.541288
0.479334
0.308037
0.0594263
-0.2175
-0.466473
-0.638509
-0.701596
-0.644793
-0.477225
-0.225294
0.0718258
0.367668
0.615751
0.776858
0.824551
0.74972
0.563416
0.297884
0.00245498
-0.26621
-0.458792
-0.543098
-0.508224
-0.363568
-0.136056
0.134412
0.400528
0.615012
0.738092
0.743217
0.621814
0.386325
0.0714397
-0.269931
-0.576425
-0.792999
-0.8806
-0.820039
-0.610682
-0.267693
0.181619
0.700839
1.24704
1.7712
2.2173
2.52653
2.6482
2.5543
5.12879
4.52371
3.86594
3.2579
2.78572
2.49453
2.37969
2.3957
2.46853
2.5159
2.46588
2.26589
1.89181
1.35256
0.697752
0.0125771
-0.598201
-1.04889
-1.28863
-1.30598
-1.12109
-0.780929
-0.351437
0.0888348
0.461793
0.702753
0.766493
0.634554
0.319342
-0.128701
-0.625796
-1.06988
-1.3772
-1.49728
-1.41743
-1.15531
-0.754641
-0.277764
0.200459
0.605263
0.874601
0.965122
0.859442
0.570306
0.147754
-0.325405
-0.748364
-1.03835
-1.1454
-1.0568
-0.789954
-0.388136
0.0867643
0.560235
0.957719
1.21721
1.29527
1.17445
0.867498
0.42472
-0.0705374
-0.516742
-0.830501
-0.961473
-0.896958
-0.654713
-0.278806
0.1677
0.608795
0.968366
1.1831
1.20877
1.02788
0.654259
0.140744
-0.425156
-0.936218
-1.3024
-1.46547
-1.40284
-1.11897
-0.640133
-0.00665384
0.730935
1.51774
2.2927
2.97571
3.46996
3.6822
3.55397
6.11649
5.22218
4.2066
3.28869
2.62979
2.30665
2.29721
2.51655
2.82802
3.08708
3.17936
3.01739
2.55884
1.80189
0.821714
-0.238115
-1.17018
-1.83058
-2.14326
-2.10677
-1.75728
-1.1712
-0.447636
0.286771
0.90621
1.31389
1.43682
1.24228
0.734269
-0.011661
-0.855651
-1.59771
-2.09827
-2.28227
-2.14588
-1.72151
-1.08065
-0.317292
0.447323
1.09215
1.52377
1.67152
1.50375
1.02471
0.308959
-0.505599
-1.22175
-1.70166
-1.87095
-1.72552
-1.29708
-0.656257
0.103718
0.862178
1.49835
1.91875
2.05235
1.86713
1.3671
0.627043
-0.214258
-0.958098
-1.46553
-1.66147
-1.54175
-1.13846
-0.52335
0.208646
0.934325
1.53015
1.90025
1.97165
1.71136
1.12351
0.285366
-0.659459
-1.50475
-2.10437
-2.37547
-2.30431
-1.9081
-1.23533
-0.34492
0.690084
1.80545
2.94654
4.00585
4.81944
5.20641
5.0347
7.44296
6.09533
4.40671
2.9466
1.99047
1.66714
1.88542
2.50483
3.26313
3.89856
4.25911
4.19608
3.65568
2.57284
1.06051
-0.672645
-2.1332
-3.11286
-3.50055
-3.35812
-2.73401
-1.7593
-0.559308
0.650402
1.6557
2.3352
2.56443
2.30154
1.4919
0.246682
-1.2322
-2.47322
-3.27514
-3.52854
-3.28898
-2.59941
-1.58302
-0.358583
0.866729
1.88609
2.58178
2.83229
2.59631
1.82001
0.612455
-0.827514
-2.03532
-2.81228
-3.04975
-2.80182
-2.11007
-1.09601
0.122806
1.34016
2.34966
3.03322
3.26847
3.0131
2.21225
0.975069
-0.498426
-1.73999
-2.54926
-2.81615
-2.59501
-1.92739
-0.936361
0.258536
1.4467
2.41681
3.04736
3.21202
2.86638
1.95306
0.583472
-1.03722
-2.42715
-3.37954
-3.7784
-3.67395
-3.09556
-2.14403
-0.891475
0.533435
2.05604
3.71807
5.38975
6.7832
7.53504
7.32619
9.47304
7.45957
4.27786
1.87888
0.440038
0.247831
0.896121
2.29326
3.87531
5.10602
5.94894
6.06234
5.5338
3.96238
1.61748
-1.49956
-3.78854
-5.24741
-5.62103
-5.30292
-4.21546
-2.67163
-0.684816
1.30855
2.87448
4.00507
4.40082
4.14826
2.87689
0.841613
-1.95119
-3.98096
-5.24181
-5.48463
-5.08007
-3.94786
-2.38496
-0.401077
1.58276
3.14617
4.28091
4.69364
4.46696
3.23635
1.25064
-1.48375
-3.46932
-4.69983
-4.92758
-4.51728
-3.38726
-1.83066
0.143939
2.11741
3.67028
4.79319
5.19102
4.94447
3.68567
1.66328
-1.11669
-3.14453
-4.41416
-4.67376
-4.29138
-3.18221
-1.64311
0.317943
2.2729
3.79227
4.86519
5.18707
4.8387
3.43946
1.24303
-1.74744
-3.97974
-5.45192
-5.90623
-5.72616
-4.82044
-3.48631
-1.6863
0.236024
2.10579
4.47564
7.17422
9.6708
11.247
11.1017
13.0512
10.5062
3.02197
-0.571305
-2.90541
-2.38164
-1.17136
1.81557
4.99357
6.87207
8.68945
8.85313
8.91384
6.46592
3.28651
-3.51871
-6.63904
-8.94452
-8.73741
-8.3554
-6.35392
-4.22166
-0.81958
2.58238
4.72035
6.73326
7.17095
7.4622
5.36207
2.5275
-3.76885
-6.59588
-8.6744
-8.3729
-7.91891
-5.91648
-3.79304
-0.443451
2.90424
5.02361
7.01981
7.47581
7.78334
5.74009
2.96693
-3.21829
-5.99065
-8.0314
-7.72426
-7.2692
-5.2788
-3.16728
0.16663
3.50028
5.60998
7.59726
8.04143
8.33342
6.25857
3.44233
-2.81814
-5.64106
-7.73367
-7.45602
-7.03453
-5.0563
-2.9577
0.385942
3.72613
5.81045
7.76431
8.12708
8.32409
6.07366
3.04581
-3.5496
-6.62705
-8.99015
-8.94771
-8.82342
-7.16235
-5.49952
-2.65737
0.0142231
1.43532
4.75979
9.24947
13.8837
17.4377
17.968
19.832
20.6652
-3.83675
-4.83455
-10.366
-5.9995
-5.79701
1.06292
7.9833
8.7263
13.8114
11.7924
15.9065
10.023
10.1769
-10.8439
-10.6627
-16.2595
-12.1055
-13.7397
-8.6805
-7.60003
-0.953983
5.67658
6.74649
11.73
10.1522
14.2199
8.90503
9.19847
-10.5822
-10.2886
-15.5342
-11.4807
-12.9875
-8.05933
-6.96675
-0.483039
5.99458
7.07851
11.9767
10.4719
14.4849
9.29499
9.59662
-9.86736
-9.56557
-14.744
-10.734
-12.2321
-7.34484
-6.26422
0.18963
6.64557
7.72594
12.6234
11.111
15.1306
9.899
10.181
-9.46978
-9.18945
-14.4666
-10.4457
-12.0196
-7.10398
-6.06538
0.458696
6.98757
8.01631
12.9544
11.3056
15.3336
9.82714
9.9857
-10.4178
-10.3032
-15.9925
-12.1072
-14.1338
-9.5069
-9.21106
-3.38291
1.59306
-1.9761
3.36596
11.1165
19.6521
27.9825
32.6575
29.4473
67.3033
-44.5456
-2.57354
-32.0845
-3.62579
-20.0143
0.218256
19.8635
4.32266
29.1583
5.89454
37.2903
4.88063
47.5535
-48.7058
-6.37165
-37.6216
-7.14402
-28.7682
-5.28335
-18.9984
-1.07163
16.7726
3.13169
26.1696
4.99853
34.4835
4.3671
44.7713
-46.3067
-6.00924
-35.7883
-6.58575
-27.3258
-4.68245
-17.907
-0.517082
16.8486
3.63793
26.151
5.51957
34.4362
4.93991
44.6866
-44.9804
-5.25022
-34.6888
-5.81292
-26.3905
-3.92965
-17.0987
0.209554
17.5317
4.34552
26.88
6.21491
35.2501
5.601
45.6237
-44.8203
-4.73327
-34.5864
-5.37645
-26.3472
-3.56619
-17.0694
0.527278
18.172
4.5956
27.6325
6.31241
36.0757
5.42605
46.538
-46.8292
-5.61864
-36.7797
-6.75069
-29.0224
-5.61211
-20.8866
-2.87882
15.4794
-18.2174
-1.49378
11.8554
25.718
43.7934
72.849
28883.6
28843.3
28802.9
28762.5
28721.9
28681.4
28640.9
28600.4
28560.1
28519.8
28479.7
28439.6
28399.7
28359.8
28319.9
0.235372
0.189572
0.131802
0.0682414
0.00520185
-0.051743
-0.0983187
-0.13178
-0.150874
-0.155629
-0.147078
-0.126972
-0.0975366
-0.0612865
-0.0208929
0.410852
0.328997
0.225899
0.112998
0.00177623
-0.0978552
-0.178514
-0.235665
-0.267446
-0.274215
-0.258008
-0.222012
-0.170146
-0.106745
-0.0363607
0.617018
0.489703
0.329834
0.15611
-0.0132104
-0.162913
-0.282194
-0.364901
-0.409011
-0.415764
-0.388714
-0.332915
-0.254286
-0.159187
-0.0541658
0.871378
0.682945
0.447608
0.194801
-0.0478282
-0.258404
-0.422462
-0.532741
-0.587944
-0.591122
-0.548178
-0.466654
-0.354899
-0.221552
-0.0752832
1.19792
0.923067
0.582827
0.223293
-0.114521
-0.400435
-0.616524
-0.755676
-0.818913
-0.812616
-0.74623
-0.630631
-0.477111
-0.296842
-0.1007
1.6309
1.22854
0.737311
0.230036
-0.23314
-0.612314
-0.887544
-1.05454
-1.11943
-1.09421
-0.993506
-0.83254
-0.626077
-0.388009
-0.131375
2.22095
1.62283
0.907804
0.192646
-0.435792
-0.928165
-1.26682
-1.45555
-1.51009
-1.45131
-1.30106
-1.07996
-0.806656
-0.497745
-0.168171
3.04541
2.134
1.07839
0.0684953
-0.774545
-1.39777
-1.79606
-1.99076
-2.01407
-1.89991
-1.67946
-1.37959
-1.02285
-0.628151
-0.211737
4.22643
2.78931
1.2032
-0.222551
-1.33316
-2.09233
-2.52893
-2.6974
-2.65556
-2.45483
-2.1373
-1.73611
-1.27702
-0.780275
-0.262365
5.96276
3.59354
1.1676
-0.828791
-2.24326
-3.10951
-3.52997
-3.61437
-3.45597
-3.12657
-2.67882
-2.15055
-1.56886
-0.953567
-0.319815
8.58085
4.45444
0.702397
-2.01701
-3.70164
-4.57252
-4.86711
-4.77417
-4.42741
-3.91668
-3.3009
-2.61842
-1.89432
-1.14532
-0.383146
12.5752
4.94088
-0.79551
-4.24008
-5.97384
-6.61187
-6.59184
-6.18784
-5.56287
-4.81186
-3.98969
-3.12794
-2.24469
-1.35027
-0.450596
18.3209
3.52927
-4.58532
-8.17403
-9.34183
-9.30933
-8.70059
-7.82252
-6.82439
-5.77824
-4.7181
-3.65897
-2.60626
-1.56046
-0.51957
23.2184
-4.55947
-12.9011
-14.529
-13.9102
-12.5831
-11.0787
-9.57733
-8.13398
-6.75867
-5.44552
-4.1836
-2.96094
-1.76576
-0.586799
0.532606
1.6052
2.70042
3.83493
5.02812
6.30371
7.69213
9.23406
10.9857
13.0261
15.4641
18.4284
21.9488
25.238
22.6634
0.54285
1.63628
2.75343
3.91196
5.13266
6.44156
7.87314
9.47576
11.3213
13.524
16.2801
19.9658
25.4204
34.9376
56.3896
0.547726
1.65089
2.7777
3.9458
5.17595
6.49422
7.93538
9.54873
11.4089
13.6376
16.4507
20.2749
26.0706
36.3493
58.7939
0.547248
1.64907
2.77332
3.93656
5.15805
6.46155
7.87804
9.45029
11.2407
13.3453
15.919
19.215
23.6076
29.3124
33.9057
0.541686
1.63168
2.74186
3.88687
5.08321
6.35042
7.71256
9.20038
10.8542
12.7273
14.8858
17.3935
20.2334
23.0474
24.6547
0.531528
1.60027
2.68623
3.80153
4.95916
6.17338
7.45982
8.8352
10.3156
11.911
13.6101
15.3413
16.8772
17.6204
16.1188
0.517424
1.55689
2.61025
3.6868
4.79584
5.94619
7.14532
8.3971
9.69711
11.0227
12.3122
13.4249
14.0713
13.7525
12.0853
0.500115
1.50388
2.51815
3.54953
4.60383
5.68516
6.79428
7.92553
9.06091
10.1594
11.1372
11.8323
11.9358
10.8209
6.83727
0.480352
1.44358
2.41417
3.39636
4.39307
5.40483
6.42791
7.45111
8.45036
9.37989
10.1585
10.6504
10.6465
9.88148
8.31908
0.458841
1.37816
2.30215
3.23312
4.17186
5.11665
6.06146
6.99335
7.88827
8.70526
9.37891
9.81304
9.88573
9.49587
8.71349
0.436194
1.3095
2.18531
3.06448
3.94648
4.82847
5.70403
6.56127
7.38033
8.13021
8.76571
9.22669
9.44624
9.3829
9.10998
0.412915
1.2391
2.06613
2.89389
3.72111
4.54478
5.35933
6.15573
6.92046
7.63464
8.27373
8.80805
9.20325
9.41554
9.36364
0.389393
1.16811
1.94646
2.72369
3.49823
4.26744
5.02726
5.77222
6.49572
7.19124
7.85455
8.48607
9.08734
9.63173
9.98025
0.365922
1.09738
1.82758
2.55535
3.27908
3.99663
4.70554
5.40364
6.09045
6.77025
7.4575
8.18516
9.01101
9.98401
10.8428
0.34272
1.02753
1.7104
2.38984
3.06422
3.73183
4.39137
5.04291
5.69007
6.34413
7.03244
7.81612
8.83254
10.4157
13.5035
0.319957
0.959039
1.59559
2.22787
2.85408
3.47267
4.08276
4.68527
5.28494
5.89427
6.54119
7.28552
8.26058
9.80264
12.9518
0.297774
0.892306
1.48377
2.0701
2.64926
3.21942
3.77945
4.32962
4.87314
5.41835
5.98233
6.59476
7.29493
8.07363
8.46404
0.276298
0.827706
1.37553
1.91734
2.45069
2.97324
3.48299
3.97864
4.46018
4.92944
5.38988
5.84311
6.27482
6.61435
6.68514
0.25565
0.765601
1.27147
1.77045
2.25963
2.73598
3.19634
3.63747
4.05578
4.44669
4.80247
5.10645
5.31879
5.34174
4.92247
0.235942
0.706333
1.1722
1.63039
2.0775
2.50982
2.92308
3.31217
3.67043
3.98838
4.25106
4.43348
4.49431
4.37629
4.0668
0.217272
0.65021
1.07827
1.49802
1.90567
2.29692
2.66663
3.00829
3.31311
3.56848
3.75544
3.84497
3.79408
3.54383
3.00596
0.199718
0.597476
0.990133
1.37406
1.74523
2.09899
2.42968
2.73001
2.99015
3.19612
3.32749
3.354
3.23233
2.91114
2.40615
0.183331
0.548288
0.908063
1.25896
1.59689
1.9171
2.21381
2.47967
2.70482
2.8756
2.97238
2.96597
2.80916
2.4061
1.45713
0.168128
0.502702
0.832163
1.15288
1.46087
1.75153
2.0194
2.25761
2.45727
2.60648
2.68896
2.6824
2.55702
2.28018
1.87292
0.154096
0.460669
0.762338
1.05565
1.33688
1.60182
1.84559
2.06234
2.24478
2.38371
2.46738
2.48136
2.41008
2.24486
2.00646
0.141188
0.422046
0.69832
0.96683
1.22421
1.46681
1.69057
1.8909
2.06253
2.19932
2.29423
2.33954
2.3284
2.26036
2.16053
0.129334
0.386611
0.639696
0.885741
1.12181
1.34489
1.55182
1.73941
1.90448
2.04404
2.15553
2.23694
2.28623
2.29796
2.25168
0.118447
0.354088
0.585967
0.811583
1.02846
1.23418
1.42651
1.60358
1.76417
1.90827
2.03772
2.15668
2.27016
2.37586
2.44367
0.108432
0.324179
0.536591
0.743501
0.942848
1.13278
1.31182
1.47919
1.63532
1.78268
1.92722
2.08023
2.2595
2.4801
2.67701
0.0991923
0.296588
0.491041
0.680677
0.863785
1.03895
1.20524
1.36263
1.51256
1.65906
1.81084
1.98555
2.22015
2.6008
3.36544
0.0906405
0.271043
0.448838
0.62239
0.790247
0.951273
1.10486
1.25126
1.39219
1.53179
1.67855
1.84929
2.07938
2.45485
3.23679
0.0826995
0.24731
0.409584
0.568062
0.721459
0.868775
1.00947
1.1437
1.27274
1.39956
1.52962
1.67183
1.83768
2.02664
2.12438
0.0753067
0.225202
0.372968
0.517266
0.656898
0.790884
0.918565
1.03975
1.15486
1.26508
1.37226
1.47797
1.57993
1.66181
1.68107
0.0684131
0.204575
0.338762
0.469714
0.596263
0.717375
0.832183
0.94002
1.04038
1.13272
1.21592
1.28673
1.33613
1.34046
1.23669
0.0619811
0.185321
0.306804
0.425222
0.539409
0.648247
0.750648
0.845492
0.931466
1.00672
1.06819
1.11037
1.12362
1.09419
1.01934
0.0559816
0.167358
0.276976
0.38367
0.486273
0.583594
0.674366
0.757128
0.830003
0.890305
0.933871
0.954087
0.940779
0.879462
0.747205
0.05039
0.150617
0.249182
0.344962
0.436807
0.523492
0.603651
0.675634
0.737278
0.785515
0.81577
0.821094
0.79128
0.714006
0.59327
0.0451829
0.135031
0.223321
0.30899
0.390926
0.467926
0.538617
0.601325
0.653866
0.693218
0.714987
0.712508
0.674742
0.578737
0.351734
0.0403354
0.120529
0.199283
0.275612
0.348476
0.416745
0.47913
0.534079
0.579619
0.613134
0.631049
0.628431
0.598654
0.534442
0.44108
0.0358195
0.107027
0.176931
0.244641
0.309218
0.369653
0.424811
0.473369
0.513726
0.543889
0.561373
0.563218
0.546484
0.510392
0.462631
0.0316037
0.0944293
0.156105
0.215846
0.27284
0.326227
0.375077
0.418359
0.454916
0.483452
0.502562
0.51091
0.50776
0.494451
0.477985
0.0276533
0.0826315
0.136622
0.18896
0.238969
0.285955
0.329211
0.36802
0.40168
0.429563
0.451229
0.466591
0.476096
0.480705
0.4812
0.023931
0.0715197
0.118289
0.163694
0.207197
0.248275
0.286437
0.32126
0.352457
0.379995
0.404277
0.426343
0.447835
0.469819
0.488517
0.0203989
0.0609776
0.100903
0.139748
0.17711
0.212621
0.245983
0.277019
0.305777
0.332692
0.358868
0.386496
0.419237
0.461221
0.506559
0.0170188
0.05089
0.0842663
0.116834
0.14831
0.178462
0.207144
0.234363
0.26038
0.285903
0.312453
0.343101
0.384225
0.450297
0.578883
0.0137545
0.0411462
0.0681916
0.0946792
0.120431
0.145323
0.169324
0.192543
0.215326
0.238405
0.263195
0.292436
0.331891
0.395967
0.530879
0.0105716
0.031643
0.0525045
0.0730356
0.0931478
0.112804
0.132046
0.151028
0.170068
0.189719
0.210847
0.234681
0.262463
0.292451
0.300271
0.00743865
0.0222857
0.0370469
0.0516827
0.0661815
0.0805739
0.0949493
0.109472
0.124388
0.14001
0.156623
0.174186
0.191506
0.204333
0.204165
0.00432666
0.0129877
0.0216762
0.0304248
0.0392887
0.0483549
0.0577504
0.067642
0.0782166
0.0896123
0.101739
0.113861
0.123672
0.125244
0.103536
0.00120923
0.00367046
0.00626328
0.00908625
0.0122547
0.0159066
0.0202062
0.0253374
0.0314751
0.0387072
0.0468594
0.0551432
0.0615598
0.0623243
0.0540419
-0.00193804
-0.00573854
-0.00931015
-0.0124931
-0.0151163
-0.0169927
-0.0179167
-0.0176673
-0.0160276
-0.0128376
-0.00811219
-0.00227792
0.00337371
0.00568848
-0.00373445
-0.00513798
-0.015307
-0.0251544
-0.0344625
-0.0430074
-0.0505553
-0.0568563
-0.0616394
-0.0646087
-0.0654502
-0.0638551
-0.059573
-0.0524952
-0.0427955
-0.0316874
-0.00841241
-0.0250996
-0.0413745
-0.0569634
-0.0715931
-0.0849862
-0.0968529
-0.106874
-0.11467
-0.119757
-0.121466
-0.118811
-0.110186
-0.0922577
-0.0543833
-0.0117827
-0.0351795
-0.0580724
-0.0801327
-0.10104
-0.12048
-0.138135
-0.153656
-0.166617
-0.176414
-0.182111
-0.182198
-0.174339
-0.155573
-0.126311
-0.0152705
-0.0456103
-0.0753504
-0.104105
-0.131509
-0.157218
-0.180902
-0.202222
-0.220766
-0.235924
-0.246656
-0.251108
-0.246069
-0.226179
-0.180896
-0.0188986
-0.0564589
-0.0933147
-0.129019
-0.16316
-0.195366
-0.225316
-0.252721
-0.277272
-0.298513
-0.315567
-0.326616
-0.328117
-0.314423
-0.282828
-0.0226919
-0.0677983
-0.112081
-0.155024
-0.196158
-0.235087
-0.271505
-0.305209
-0.336083
-0.364018
-0.388655
-0.40876
-0.420724
-0.415102
-0.367134
-0.0266786
-0.0797113
-0.131782
-0.182288
-0.230693
-0.276559
-0.319586
-0.359669
-0.396945
-0.431821
-0.464901
-0.496567
-0.525552
-0.545196
-0.539535
-0.0308915
-0.0922948
-0.152572
-0.211017
-0.266999
-0.320008
-0.369721
-0.41609
-0.459484
-0.500883
-0.542141
-0.586246
-0.636877
-0.692873
-0.710499
-0.0353689
-0.105663
-0.174638
-0.241462
-0.305376
-0.365757
-0.422187
-0.474587
-0.523422
-0.570056
-0.617418
-0.671407
-0.744492
-0.867209
-1.13365
-0.0401554
-0.11995
-0.198204
-0.273933
-0.346217
-0.414259
-0.477464
-0.535573
-0.588901
-0.638738
-0.688109
-0.743323
-0.817657
-0.941756
-1.19828
-0.045302
-0.135309
-0.22353
-0.308803
-0.390013
-0.466132
-0.536292
-0.599895
-0.656821
-0.707762
-0.754759
-0.801982
-0.856284
-0.924365
-0.987258
-0.0508645
-0.151911
-0.25091
-0.346504
-0.437354
-0.522157
-0.599688
-0.668871
-0.728918
-0.779543
-0.821276
-0.855746
-0.885365
-0.910602
-0.922044
-0.0569028
-0.169939
-0.28066
-0.387509
-0.488907
-0.583248
-0.668897
-0.74421
-0.807577
-0.857521
-0.892859
-0.912903
-0.917516
-0.906444
-0.876327
-0.0634773
-0.189578
-0.313107
-0.43231
-0.545375
-0.650391
-0.745304
-0.827867
-0.895582
-0.945668
-0.97509
-0.980803
-0.960587
-0.91554
-0.857064
-0.0706465
-0.211009
-0.348565
-0.481386
-0.607448
-0.724567
-0.830308
-0.921858
-0.995857
-1.04819
-1.07381
-1.06674
-1.02093
-0.93399
-0.817807
-0.0784635
-0.234395
-0.38732
-0.535168
-0.675748
-0.806665
-0.92519
-1.02806
-1.1112
-1.1693
-1.19528
-1.17961
-1.10987
-0.972779
-0.777432
-0.086974
-0.259874
-0.429612
-0.594012
-0.750777
-0.897391
-1.03097
-1.148
-1.24397
-1.31276
-1.3457
-1.33007
-1.24563
-1.05206
-0.624889
-0.0962144
-0.287556
-0.475621
-0.658173
-0.832874
-0.997195
-1.14826
-1.2826
-1.39566
-1.48115
-1.52989
-1.52836
-1.45721
-1.29359
-1.04363
-0.106212
-0.31752
-0.525471
-0.727804
-0.922201
-1.10623
-1.27721
-1.432
-1.56654
-1.67509
-1.74904
-1.77504
-1.73306
-1.59514
-1.31847
-0.116988
-0.349822
-0.579236
-0.802963
-1.01875
-1.22435
-1.41744
-1.59551
-1.7555
-1.89313
-2.00154
-2.06899
-2.0756
-1.9931
-1.81261
-0.128559
-0.384508
-0.636963
-0.883654
-1.12241
-1.35118
-1.56814
-1.77162
-1.96005
-2.1315
-2.28255
-2.40526
-2.48011
-2.45917
-2.2199
-0.140946
-0.421629
-0.698707
-0.969879
-1.23301
-1.48626
-1.72824
-1.95823
-2.17643
-2.38411
-2.58331
-2.77485
-2.95122
-3.07695
-3.06521
-0.154176
-0.46126
-0.764569
-1.06171
-1.35051
-1.6292
-1.8967
-2.15308
-2.40018
-2.64269
-2.88946
-3.15506
-3.4576
-3.79031
-3.92514
-0.168291
-0.503522
-0.83473
-1.15935
-1.47505
-1.77994
-2.07294
-2.35442
-2.6272
-2.89836
-3.18264
-3.50971
-3.94315
-4.64122
-6.09582
-0.183346
-0.548585
-0.909482
-1.26321
-1.60713
-1.93896
-2.25722
-2.56185
-2.85539
-3.14501
-3.4462
-3.7906
-4.24506
-4.96694
-6.3921
-0.199413
-0.596674
-0.989225
-1.37392
-1.74763
-2.10746
-2.45101
-2.77703
-3.08638
-3.3837
-3.67983
-3.99518
-4.36141
-4.80445
-5.20506
-0.216571
-0.648041
-1.07444
-1.49226
-1.89781
-2.28729
-2.65703
-3.00384
-3.3258
-3.62328
-3.90022
-4.16455
-4.42456
-4.6716
-4.83458
-0.234894
-0.702935
-1.16564
-1.61915
-2.05916
-2.48088
-2.87901
-3.24797
-3.58227
-3.87722
-4.12946
-4.33702
-4.49684
-4.59728
-4.60104
-0.254432
-0.761543
-1.26324
-1.75542
-2.23325
-2.69088
-3.1213
-3.5162
-3.86614
-4.16087
-4.38983
-4.54273
-4.61049
-4.59023
-4.5084
-0.275191
-0.823917
-1.36747
-1.90169
-2.42139
-2.91982
-3.38829
-3.81571
-4.18842
-4.49026
-4.7031
-4.80767
-4.78536
-4.62607
-4.3685
-0.297104
-0.889895
-1.47818
-2.05807
-2.62432
-3.1696
-3.68382
-4.15325
-4.55996
-4.88153
-5.09161
-5.16082
-5.05544
-4.73027
-4.18042
-0.320003
-0.959011
-1.59473
-2.22394
-2.84182
-3.44099
-4.01048
-4.5344
-4.99068
-5.35029
-5.578
-5.63528
-5.47823
-4.99059
-3.47992
-0.343599
-1.03042
-1.7158
-2.39771
-3.07233
-3.73302
-4.36881
-4.96255
-5.48856
-5.91069
-6.1828
-6.25865
-6.13065
-5.96143
-6.56362
-0.36746
-1.10284
-1.8393
-2.57654
-3.31255
-4.04236
-4.75639
-5.43776
-6.05863
-6.57531
-6.92395
-7.02364
-6.81175
-6.39662
-6.63755
-0.391005
-1.17451
-1.96225
-2.75626
-3.55708
-4.36269
-5.16665
-5.95502
-6.70108
-7.35665
-7.838
-8.00504
-7.63403
-6.37628
-3.5535
-0.413517
-1.24323
-2.08087
-2.93125
-3.79829
-4.68417
-5.58777
-6.50168
-7.40641
-8.25901
-8.97036
-9.36013
-9.07214
-7.44279
-3.44462
-0.434167
-1.30646
-2.19065
-3.09468
-4.02643
-4.99337
-6.00175
-7.05472
-8.14794
-9.25949
-10.3261
-11.1859
-11.4418
-10.1544
-5.34341
-0.452068
-1.36143
-2.28665
-3.23887
-4.23014
-5.27379
-6.38478
-7.57984
-8.87677
-10.2912
-11.8254
-13.4311
-14.8831
-15.3128
-11.3227
-0.466341
-1.4054
-2.36391
-3.35596
-4.3975
-5.50747
-6.70944
-8.03422
-9.52401
-11.2398
-13.275
-15.783
-19.0345
-23.5405
-30.257
-11.8454
-27.6066
-26.1047
-22.2797
-18.7287
-15.7559
-13.27
-11.1455
-9.28244
-7.60844
-6.07137
-4.6329
-3.26382
-1.94078
-0.644071
-120.309
-62.5327
-40.243
-29.2577
-22.7248
-18.2939
-14.9986
-12.3781
-10.186
-8.27873
-6.5665
-4.9893
-3.50458
-2.08011
-0.689694
-133.77
-72.8154
-46.5311
-33.1437
-25.2613
-20.0433
-16.2587
-13.3132
-10.8917
-8.81363
-6.96787
-5.2815
-3.70351
-2.19579
-0.727664
-73.1298
-59.0219
-43.8631
-33.2069
-25.9476
-20.7974
-16.9362
-13.8843
-11.3589
-9.18724
-7.2586
-5.49844
-3.85365
-2.28398
-0.75675
-51.4238
-45.9584
-38.0683
-30.9113
-25.1693
-20.6563
-17.0517
-14.0899
-11.5806
-9.3921
-7.43234
-5.63529
-3.95164
-2.34272
-0.776304
-32.5024
-34.5789
-31.7644
-27.6331
-23.5375
-19.8846
-16.721
-13.9813
-11.5796
-9.43814
-7.49311
-5.6934
-3.99776
-2.37193
-0.786274
-23.9046
-26.5959
-26.3751
-24.3301
-21.5984
-18.7731
-16.0958
-13.6379
-11.3979
-9.34781
-7.453
-5.67928
-3.99541
-2.37327
-0.787143
-13.2621
-20.6351
-22.2528
-21.5039
-19.7246
-17.5587
-15.3185
-13.1433
-11.0842
-9.14971
-7.32882
-5.60277
-3.95022
-2.34959
-0.779794
-15.919
-18.6713