/*--------------------------------*- C++ -*----------------------------------*\
| =========                 |                                                 |
| \\      /  F ield         | OpenFOAM: The Open Source CFD Toolbox           |
|  \\    /   O peration     | Version:  5.x                                   |
|   \\  /    A nd           | Web:      www.OpenFOAM.org                      |
|    \\/     M anipulation  |                                                 |
\*---------------------------------------------------------------------------*/
FoamFile
{
    version     2.0;
    format      ascii;
    class       volScalarField;
    location    "0.5";
    object      T;
}
// * * * * * * * * * * * * * * * * * * * * * * * * * * * * * * * * * * * * * //

dimensions      [0 0 0 1 0 0 0];

internalField   nonuniform List<scalar> 
6300
(
322.851
322.553
322.253
321.952
321.649
321.342
321.033
320.719
320.401
320.078
319.749
319.416
319.076
318.732
318.381
322.851
322.554
322.255
321.954
321.652
321.346
321.037
320.723
320.406
320.083
319.755
319.421
319.082
318.737
318.387
322.852
322.556
322.258
321.959
321.657
321.353
321.045
320.732
320.415
320.093
319.766
319.433
319.093
318.748
318.397
322.853
322.559
322.263
321.966
321.666
321.363
321.057
320.746
320.43
320.109
319.783
319.45
319.111
318.765
318.414
322.854
322.563
322.27
321.975
321.678
321.378
321.074
320.765
320.451
320.131
319.805
319.473
319.134
318.788
318.436
322.856
322.568
322.278
321.987
321.693
321.396
321.095
320.789
320.477
320.159
319.835
319.503
319.164
318.818
318.464
322.858
322.574
322.289
322.002
321.712
321.419
321.121
320.818
320.509
320.194
319.871
319.541
319.202
318.855
318.499
322.861
322.582
322.301
322.019
321.734
321.445
321.152
320.853
320.548
320.236
319.916
319.586
319.248
318.9
318.542
322.864
322.59
322.316
322.039
321.76
321.477
321.189
320.895
320.595
320.286
319.969
319.642
319.304
318.954
318.593
322.867
322.6
322.332
322.062
321.789
321.513
321.231
320.944
320.649
320.345
320.032
319.708
319.371
319.02
318.655
322.871
322.611
322.351
322.088
321.823
321.554
321.279
320.999
320.711
320.415
320.107
319.786
319.451
319.099
318.73
322.875
322.623
322.371
322.117
321.86
321.599
321.334
321.062
320.783
320.495
320.194
319.88
319.548
319.197
318.823
322.879
322.637
322.393
322.148
321.901
321.65
321.395
321.133
320.865
320.587
320.296
319.99
319.665
319.316
318.94
322.884
322.651
322.417
322.182
321.945
321.705
321.461
321.212
320.956
320.691
320.414
320.12
319.806
319.464
319.091
322.889
322.666
322.443
322.219
321.992
321.764
321.532
321.297
321.056
320.807
320.547
320.272
319.973
319.642
319.275
318.055
317.756
317.452
317.146
316.837
316.525
316.211
315.894
315.575
315.254
314.932
314.608
314.283
313.957
313.629
313.302
312.973
312.645
312.316
311.987
311.659
311.33
311.002
310.674
310.346
310.018
309.69
309.363
309.035
308.708
308.381
308.055
307.729
307.403
307.077
306.752
306.428
306.103
305.779
305.455
305.131
304.807
304.484
304.16
303.836
303.513
303.189
302.866
302.542
302.219
301.896
301.573
301.251
300.928
300.605
300.281
299.958
299.634
299.31
298.986
298.662
298.338
298.014
297.689
297.365
297.04
296.716
296.391
296.067
295.742
295.417
295.092
294.767
294.441
294.116
293.79
293.465
293.139
292.813
292.488
292.162
291.836
291.51
291.183
290.856
290.528
290.198
289.868
289.536
289.203
318.061
317.76
317.457
317.15
316.841
316.529
316.214
315.897
315.578
315.257
314.934
314.61
314.284
313.958
313.63
313.302
312.974
312.645
312.316
311.987
311.659
311.33
311.002
310.674
310.346
310.018
309.69
309.363
309.035
308.708
308.381
308.054
307.728
307.402
307.077
306.752
306.427
306.103
305.779
305.455
305.131
304.807
304.484
304.16
303.836
303.512
303.189
302.866
302.542
302.219
301.896
301.573
301.251
300.928
300.605
300.282
299.958
299.635
299.311
298.987
298.662
298.338
298.014
297.689
297.365
297.04
296.716
296.392
296.067
295.742
295.417
295.092
294.767
294.442
294.116
293.79
293.465
293.139
292.813
292.488
292.162
291.837
291.511
291.184
290.857
290.529
290.2
289.869
289.538
289.205
318.071
317.77
317.466
317.159
316.849
316.536
316.221
315.903
315.584
315.262
314.939
314.614
314.288
313.96
313.632
313.304
312.975
312.645
312.316
311.987
311.658
311.33
311.002
310.673
310.346
310.018
309.69
309.362
309.035
308.707
308.38
308.053
307.727
307.401
307.076
306.751
306.427
306.102
305.779
305.455
305.131
304.807
304.484
304.16
303.836
303.512
303.189
302.865
302.542
302.219
301.896
301.573
301.251
300.928
300.605
300.282
299.959
299.635
299.311
298.987
298.663
298.338
298.014
297.689
297.365
297.04
296.716
296.392
296.067
295.743
295.418
295.093
294.767
294.442
294.116
293.79
293.465
293.139
292.813
292.488
292.163
291.838
291.512
291.186
290.86
290.532
290.203
289.873
289.541
289.208
318.086
317.785
317.48
317.172
316.861
316.547
316.231
315.912
315.592
315.27
314.945
314.62
314.293
313.964
313.635
313.306
312.976
312.646
312.316
311.987
311.658
311.329
311.001
310.673
310.345
310.017
309.69
309.362
309.034
308.706
308.379
308.052
307.725
307.399
307.074
306.749
306.425
306.102
305.778
305.455
305.131
304.808
304.484
304.16
303.836
303.512
303.188
302.864
302.541
302.218
301.896
301.573
301.251
300.929
300.606
300.283
299.96
299.636
299.312
298.988
298.663
298.338
298.014
297.689
297.365
297.04
296.716
296.392
296.068
295.744
295.419
295.094
294.768
294.442
294.116
293.79
293.464
293.138
292.813
292.488
292.163
291.839
291.514
291.189
290.863
290.537
290.209
289.879
289.547
289.214
318.107
317.805
317.498
317.189
316.876
316.561
316.244
315.925
315.603
315.28
314.954
314.627
314.299
313.969
313.639
313.308
312.977
312.646
312.315
311.986
311.657
311.328
311
310.672
310.345
310.017
309.689
309.361
309.033
308.705
308.377
308.05
307.723
307.397
307.072
306.747
306.424
306.1
305.777
305.454
305.131
304.808
304.484
304.16
303.836
303.511
303.187
302.863
302.54
302.217
301.895
301.573
301.251
300.93
300.608
300.285
299.962
299.638
299.313
298.989
298.663
298.338
298.013
297.688
297.364
297.04
296.716
296.393
296.069
295.745
295.42
295.095
294.769
294.443
294.116
293.79
293.463
293.138
292.812
292.488
292.164
291.84
291.517
291.193
290.869
290.543
290.216
289.887
289.556
289.222
318.134
317.83
317.521
317.21
316.896
316.579
316.26
315.94
315.617
315.293
314.966
314.638
314.307
313.976
313.643
313.31
312.978
312.645
312.314
311.984
311.654
311.326
310.999
310.672
310.345
310.017
309.689
309.361
309.032
308.703
308.375
308.046
307.719
307.393
307.068
306.744
306.421
306.099
305.777
305.455
305.132
304.809
304.485
304.16
303.835
303.51
303.186
302.861
302.538
302.215
301.894
301.573
301.252
300.931
300.61
300.288
299.964
299.64
299.316
298.99
298.664
298.338
298.012
297.687
297.363
297.04
296.717
296.394
296.07
295.747
295.423
295.097
294.771
294.444
294.117
293.789
293.462
293.136
292.81
292.486
292.163
291.841
291.52
291.198
290.876
290.552
290.227
289.899
289.567
289.233
318.167
317.86
317.549
317.235
316.919
316.6
316.28
315.958
315.634
315.308
314.98
314.65
314.318
313.984
313.649
313.313
312.978
312.644
312.311
311.98
311.651
311.324
310.997
310.671
310.345
310.018
309.69
309.361
309.032
308.702
308.371
308.042
307.714
307.387
307.063
306.739
306.418
306.097
305.776
305.455
305.134
304.811
304.487
304.161
303.835
303.509
303.183
302.858
302.535
302.212
301.891
301.572
301.252
300.933
300.613
300.291
299.969
299.644
299.319
298.992
298.664
298.337
298.011
297.685
297.361
297.038
296.716
296.395
296.073
295.75
295.426
295.101
294.774
294.446
294.117
293.788
293.459
293.132
292.807
292.483
292.161
291.842
291.523
291.204
290.885
290.564
290.241
289.914
289.584
289.249
318.206
317.896
317.581
317.264
316.944
316.624
316.302
315.979
315.654
315.327
314.998
314.666
314.331
313.993
313.654
313.315
312.977
312.64
312.306
311.974
311.646
311.319
310.995
310.671
310.346
310.02
309.693
309.363
309.032
308.7
308.367
308.036
307.706
307.379
307.055
306.733
306.413
306.095
305.776
305.457
305.137
304.815
304.49
304.163
303.836
303.507
303.18
302.853
302.529
302.207
301.888
301.57
301.253
300.936
300.618
300.297
299.975
299.65
299.323
298.994
298.665
298.336
298.008
297.682
297.358
297.036
296.715
296.396
296.076
295.755
295.432
295.106
294.779
294.449
294.117
293.786
293.455
293.126
292.8
292.477
292.157
291.84
291.525
291.211
290.896
290.58
290.26
289.936
289.606
289.27
318.253
317.938
317.618
317.296
316.972
316.649
316.325
316.002
315.677
315.35
315.02
314.685
314.347
314.005
313.661
313.316
312.973
312.632
312.296
311.964
311.637
311.313
310.992
310.671
310.349
310.025
309.698
309.367
309.034
308.698
308.362
308.027
307.695
307.367
307.044
306.724
306.407
306.092
305.778
305.462
305.143
304.822
304.496
304.167
303.836
303.505
303.174
302.845
302.521
302.199
301.882
301.567
301.254
300.94
300.625
300.307
299.985
299.659
299.33
298.998
298.664
298.332
298.002
297.675
297.351
297.031
296.714
296.397
296.081
295.762
295.441
295.116
294.786
294.454
294.118
293.783
293.448
293.116
292.789
292.467
292.149
291.836
291.526
291.218
290.91
290.6
290.285
289.965
289.637
289.3
318.309
317.986
317.659
317.329
317
316.673
316.349
316.027
315.703
315.378
315.047
314.711
314.369
314.02
313.668
313.315
312.965
312.619
312.28
311.948
311.623
311.304
310.988
310.672
310.355
310.034
309.708
309.376
309.038
308.697
308.355
308.015
307.679
307.349
307.027
306.71
306.398
306.089
305.78
305.47
305.155
304.834
304.507
304.175
303.839
303.501
303.165
302.833
302.506
302.186
301.872
301.562
301.255
300.947
300.637
300.322
300.001
299.674
299.34
299.003
298.663
298.325
297.991
297.662
297.34
297.023
296.71
296.399
296.088
295.774
295.455
295.131
294.799
294.462
294.12
293.777
293.436
293.1
292.771
292.449
292.135
291.827
291.525
291.225
290.926
290.625
290.319
290.005
289.68
289.342
318.376
318.042
317.702
317.361
317.025
316.695
316.371
316.052
315.734
315.412
315.083
314.746
314.398
314.041
313.677
313.311
312.949
312.596
312.253
311.922
311.602
311.29
310.983
310.676
310.367
310.051
309.726
309.392
309.048
308.698
308.345
307.995
307.653
307.322
307.001
306.689
306.385
306.086
305.786
305.484
305.174
304.855
304.526
304.188
303.843
303.495
303.149
302.811
302.483
302.165
301.856
301.554
301.256
300.957
300.655
300.345
300.026
299.697
299.357
299.01
298.66
298.313
297.972
297.641
297.32
297.008
296.703
296.401
296.099
295.793
295.479
295.155
294.821
294.476
294.124
293.769
293.418
293.074
292.742
292.421
292.111
291.811
291.519
291.232
290.946
290.658
290.365
290.061
289.741
289.401
318.458
318.108
317.747
317.388
317.04
316.707
316.387
316.077
315.769
315.456
315.132
314.795
314.442
314.072
313.69
313.302
312.922
312.556
312.21
311.881
311.569
311.269
310.976
310.685
310.388
310.081
309.759
309.422
309.068
308.702
308.33
307.965
307.613
307.279
306.961
306.658
306.366
306.082
305.798
305.507
305.206
304.891
304.559
304.211
303.851
303.484
303.124
302.776
302.445
302.13
301.83
301.54
301.257
300.974
300.684
300.383
300.066
299.734
299.385
299.022
298.653
298.29
297.94
297.606
297.288
296.984
296.691
296.404
296.117
295.822
295.516
295.195
294.857
294.501
294.132
293.757
293.388
293.033
292.695
292.376
292.073
291.785
291.507
291.236
290.968
290.7
290.427
290.141
289.83
289.488
318.565
318.192
317.788
317.399
317.034
316.7
316.389
316.098
315.811
315.514
315.202
314.867
314.509
314.12
313.71
313.281
312.873
312.491
312.141
311.816
311.518
311.236
310.969
310.703
310.425
310.131
309.814
309.475
309.106
308.715
308.306
307.916
307.549
307.212
306.899
306.61
306.338
306.078
305.818
305.546
305.259
304.949
304.616
304.253
303.868
303.465
303.08
302.717
302.385
302.075
301.788
301.517
301.259
301
300.728
300.441
300.13
299.796
299.431
299.043
298.638
298.25
297.884
297.548
297.234
296.945
296.67
296.408
296.145
295.869
295.576
295.259
294.917
294.545
294.149
293.734
293.338
292.965
292.623
292.306
292.015
291.742
291.486
291.237
290.988
290.748
290.509
290.255
289.966
289.623
318.719
318.318
317.807
317.377
316.982
316.659
316.364
316.113
315.869
315.593
315.306
314.972
314.62
314.201
313.755
313.232
312.789
312.378
312.035
311.714
311.441
311.184
310.96
310.737
310.483
310.216
309.903
309.571
309.175
308.753
308.255
307.833
307.44
307.111
306.802
306.54
306.291
306.073
305.856
305.608
305.347
305.04
304.715
304.326
303.91
303.42
303.004
302.616
302.291
301.985
301.724
301.477
301.26
301.044
300.796
300.534
300.227
299.901
299.51
299.091
298.597
298.178
297.785
297.457
297.147
296.883
296.632
296.412
296.191
295.939
295.672
295.357
295.023
294.622
294.193
293.686
293.255
292.853
292.516
292.199
291.93
291.675
291.454
291.236
290.996
290.795
290.612
290.418
290.179
289.847
318.962
318.605
317.711
317.302
316.826
316.58
316.273
316.119
315.971
315.688
315.478
315.103
314.827
314.321
313.913
313.065
312.66
312.165
311.899
311.541
311.344
311.084
310.95
310.816
310.559
310.366
310.018
309.759
309.284
308.899
308.094
307.71
307.238
306.982
306.639
306.449
306.198
306.068
305.938
305.688
305.499
305.158
304.905
304.439
304.06
303.268
302.889
302.423
302.17
301.83
301.641
301.392
301.262
301.133
300.883
300.694
300.352
300.098
299.629
299.247
298.448
298.066
297.595
297.339
296.994
296.803
296.549
296.417
296.285
296.029
295.835
295.485
295.224
294.741
294.349
293.526
293.132
292.645
292.381
292.023
291.825
291.558
291.418
291.268
290.948
290.815
290.731
290.648
290.525
290.276
288.835
288.433
288.029
287.624
287.219
286.814
286.409
286.005
285.601
285.199
284.797
284.397
283.997
283.598
283.199
288.837
288.434
288.03
287.625
287.219
286.814
286.408
286.004
285.6
285.198
284.796
284.396
283.996
283.598
283.199
288.84
288.437
288.032
287.626
287.219
286.813
286.407
286.002
285.598
285.196
284.794
284.394
283.995
283.597
283.199
288.845
288.441
288.034
287.627
287.219
286.812
286.405
285.999
285.595
285.192
284.791
284.391
283.993
283.595
283.198
288.852
288.446
288.038
287.629
287.219
286.81
286.401
285.995
285.59
285.187
284.787
284.388
283.99
283.594
283.198
288.863
288.454
288.043
287.631
287.218
286.806
286.396
285.988
285.583
285.18
284.78
284.382
283.986
283.591
283.197
288.876
288.465
288.05
287.633
287.217
286.802
286.389
285.98
285.574
285.171
284.772
284.375
283.98
283.588
283.196
288.895
288.479
288.058
287.635
287.214
286.794
286.379
285.967
285.561
285.159
284.76
284.365
283.973
283.583
283.194
288.921
288.497
288.068
287.637
287.208
286.783
286.364
285.951
285.543
285.142
284.746
284.353
283.964
283.578
283.192
288.956
288.522
288.08
287.637
287.198
286.766
286.343
285.928
285.52
285.121
284.727
284.338
283.953
283.571
283.19
289.005
288.553
288.092
287.633
287.181
286.741
286.313
285.897
285.49
285.093
284.703
284.319
283.939
283.562
283.187
289.075
288.593
288.103
287.62
287.153
286.704
286.272
285.855
285.451
285.058
284.673
284.295
283.922
283.552
283.184
289.177
288.642
288.106
287.592
287.107
286.65
286.216
285.801
285.402
285.015
284.637
284.266
283.901
283.539
283.179
289.327
288.692
288.087
287.535
287.034
286.572
286.14
285.732
285.34
284.962
284.593
284.232
283.877
283.525
283.175
289.543
288.713
288.014
287.429
286.92
286.464
286.042
285.645
285.265
284.899
284.542
284.193
283.849
283.508
283.169
322.894
322.681
322.467
322.253
322.038
321.821
321.602
321.38
321.154
320.923
320.684
320.432
320.157
319.837
319.422
322.898
322.694
322.49
322.286
322.08
321.874
321.667
321.458
321.248
321.034
320.817
320.593
320.356
320.08
319.666
322.903
322.708
322.513
322.318
322.123
321.928
321.733
321.538
321.343
321.148
320.955
320.765
320.581
320.419
320.362
322.907
322.722
322.536
322.351
322.167
321.982
321.799
321.617
321.438
321.262
321.091
320.931
320.79
320.686
320.646
322.912
322.735
322.559
322.384
322.209
322.036
321.864
321.695
321.53
321.371
321.221
321.085
320.974
320.908
320.927
322.916
322.749
322.582
322.416
322.251
322.088
321.928
321.771
321.619
321.474
321.34
321.221
321.127
321.07
321.057
322.921
322.762
322.604
322.447
322.292
322.139
321.989
321.843
321.702
321.569
321.447
321.341
321.256
321.201
321.196
322.925
322.775
322.626
322.478
322.331
322.187
322.047
321.911
321.78
321.658
321.545
321.445
321.362
321.299
321.259
322.929
322.787
322.646
322.507
322.369
322.234
322.102
321.975
321.853
321.739
321.633
321.538
321.454
321.382
321.31
322.933
322.799
322.666
322.534
322.404
322.278
322.154
322.035
321.921
321.814
321.714
321.623
321.539
321.464
321.397
322.937
322.81
322.685
322.56
322.438
322.319
322.203
322.091
321.985
321.884
321.789
321.701
321.619
321.54
321.455
322.94
322.821
322.702
322.585
322.47
322.358
322.249
322.144
322.044
321.949
321.86
321.776
321.697
321.62
321.549
322.944
322.831
322.719
322.609
322.5
322.395
322.292
322.194
322.1
322.011
321.927
321.848
321.773
321.697
321.611
322.947
322.84
322.735
322.631
322.529
322.429
322.333
322.24
322.152
322.069
321.991
321.918
321.848
321.781
321.715
322.95
322.849
322.749
322.651
322.555
322.461
322.371
322.284
322.202
322.124
322.052
321.985
321.923
321.863
321.792
322.952
322.857
322.763
322.67
322.58
322.491
322.406
322.325
322.247
322.175
322.108
322.048
321.996
321.954
321.94
322.955
322.865
322.776
322.688
322.603
322.519
322.439
322.362
322.29
322.222
322.161
322.106
322.06
322.027
322.007
322.957
322.872
322.788
322.705
322.624
322.545
322.469
322.397
322.328
322.265
322.208
322.158
322.117
322.089
322.082
322.96
322.879
322.799
322.72
322.643
322.569
322.497
322.428
322.364
322.304
322.25
322.203
322.165
322.137
322.119
322.962
322.885
322.809
322.734
322.661
322.591
322.522
322.457
322.396
322.339
322.288
322.243
322.206
322.178
322.164
322.963
322.891
322.819
322.748
322.678
322.611
322.546
322.484
322.425
322.371
322.321
322.277
322.24
322.21
322.187
322.965
322.896
322.827
322.759
322.693
322.629
322.567
322.507
322.451
322.399
322.351
322.307
322.269
322.237
322.214
322.967
322.901
322.835
322.77
322.707
322.646
322.586
322.529
322.475
322.424
322.377
322.333
322.294
322.258
322.227
322.968
322.905
322.842
322.78
322.72
322.661
322.604
322.549
322.496
322.447
322.4
322.357
322.316
322.277
322.238
322.97
322.909
322.849
322.79
322.731
322.675
322.62
322.567
322.516
322.468
322.422
322.378
322.336
322.296
322.258
322.971
322.913
322.855
322.798
322.742
322.687
322.634
322.583
322.534
322.487
322.441
322.398
322.356
322.315
322.271
322.972
322.916
322.861
322.806
322.752
322.699
322.648
322.598
322.55
322.504
322.46
322.417
322.375
322.334
322.294
322.973
322.919
322.866
322.813
322.761
322.71
322.66
322.612
322.566
322.521
322.477
322.435
322.394
322.353
322.309
322.974
322.922
322.87
322.819
322.769
322.72
322.672
322.625
322.58
322.536
322.494
322.453
322.413
322.374
322.335
322.975
322.925
322.875
322.825
322.777
322.729
322.682
322.637
322.593
322.55
322.509
322.47
322.432
322.394
322.354
322.976
322.927
322.879
322.831
322.783
322.737
322.692
322.648
322.605
322.564
322.524
322.486
322.45
322.417
322.391
322.976
322.929
322.882
322.836
322.79
322.745
322.701
322.658
322.616
322.576
322.537
322.501
322.466
322.435
322.407
322.977
322.931
322.885
322.84
322.795
322.752
322.709
322.667
322.626
322.587
322.549
322.514
322.481
322.451
322.426
322.978
322.933
322.888
322.844
322.801
322.758
322.716
322.675
322.635
322.597
322.56
322.525
322.493
322.463
322.436
322.978
322.934
322.891
322.848
322.805
322.764
322.722
322.682
322.643
322.606
322.57
322.535
322.503
322.473
322.447
322.979
322.936
322.893
322.851
322.81
322.769
322.728
322.689
322.651
322.614
322.578
322.544
322.511
322.481
322.452
322.979
322.937
322.896
322.854
322.813
322.773
322.734
322.695
322.657
322.621
322.585
322.551
322.519
322.488
322.459
322.979
322.938
322.898
322.857
322.817
322.777
322.738
322.7
322.663
322.627
322.592
322.558
322.525
322.493
322.462
322.98
322.939
322.899
322.859
322.82
322.781
322.743
322.705
322.668
322.632
322.597
322.563
322.53
322.497
322.465
322.98
322.94
322.901
322.862
322.823
322.784
322.746
322.709
322.673
322.637
322.602
322.568
322.535
322.502
322.47
322.98
322.941
322.902
322.864
322.825
322.787
322.75
322.713
322.677
322.641
322.607
322.572
322.539
322.506
322.473
322.981
322.942
322.903
322.865
322.827
322.79
322.753
322.716
322.68
322.645
322.61
322.577
322.543
322.51
322.478
322.981
322.943
322.905
322.867
322.829
322.792
322.755
322.719
322.683
322.648
322.614
322.58
322.547
322.514
322.481
322.981
322.943
322.905
322.868
322.831
322.794
322.757
322.722
322.686
322.651
322.617
322.584
322.551
322.518
322.486
322.981
322.944
322.906
322.869
322.832
322.795
322.759
322.724
322.689
322.654
322.62
322.587
322.554
322.522
322.489
322.981
322.944
322.907
322.87
322.833
322.797
322.761
322.725
322.691
322.656
322.622
322.589
322.557
322.525
322.495
322.981
322.944
322.907
322.871
322.834
322.798
322.762
322.727
322.692
322.658
322.624
322.592
322.559
322.528
322.498
322.982
322.945
322.908
322.871
322.835
322.799
322.763
322.728
322.693
322.659
322.626
322.593
322.561
322.53
322.5
322.982
322.945
322.908
322.871
322.835
322.799
322.764
322.729
322.694
322.66
322.627
322.594
322.563
322.532
322.501
322.982
322.945
322.908
322.872
322.835
322.8
322.764
322.729
322.695
322.661
322.628
322.595
322.563
322.532
322.502
322.982
322.945
322.908
322.872
322.835
322.8
322.764
322.729
322.695
322.661
322.628
322.595
322.564
322.533
322.502
322.982
322.945
322.908
322.871
322.835
322.799
322.764
322.729
322.694
322.661
322.627
322.595
322.563
322.533
322.502
322.981
322.945
322.908
322.871
322.835
322.799
322.763
322.728
322.694
322.66
322.627
322.594
322.563
322.532
322.502
322.981
322.944
322.907
322.87
322.834
322.798
322.762
322.727
322.692
322.659
322.625
322.593
322.562
322.531
322.501
322.981
322.944
322.907
322.87
322.833
322.797
322.761
322.726
322.691
322.657
322.624
322.591
322.56
322.529
322.5
322.981
322.944
322.906
322.869
322.832
322.795
322.759
322.724
322.689
322.655
322.621
322.589
322.558
322.527
322.498
322.981
322.943
322.905
322.868
322.83
322.793
322.757
322.721
322.686
322.652
322.618
322.586
322.554
322.524
322.495
322.981
322.942
322.904
322.866
322.828
322.791
322.755
322.719
322.683
322.649
322.615
322.582
322.551
322.52
322.492
322.981
322.942
322.903
322.865
322.826
322.789
322.752
322.715
322.68
322.645
322.611
322.578
322.546
322.515
322.486
322.98
322.941
322.902
322.863
322.824
322.786
322.748
322.712
322.676
322.64
322.606
322.572
322.54
322.509
322.48
322.98
322.94
322.9
322.86
322.821
322.783
322.745
322.707
322.671
322.635
322.6
322.566
322.533
322.501
322.467
322.98
322.939
322.898
322.858
322.818
322.779
322.741
322.703
322.666
322.63
322.594
322.56
322.526
322.493
322.46
322.979
322.938
322.896
322.855
322.815
322.775
322.736
322.697
322.66
322.623
322.588
322.553
322.519
322.485
322.451
322.979
322.936
322.894
322.852
322.811
322.77
322.731
322.692
322.654
322.617
322.581
322.546
322.512
322.478
322.445
322.978
322.935
322.892
322.849
322.807
322.765
322.725
322.685
322.647
322.609
322.573
322.538
322.504
322.47
322.436
322.978
322.933
322.889
322.845
322.802
322.76
322.718
322.678
322.639
322.601
322.564
322.529
322.495
322.463
322.431
322.977
322.931
322.886
322.841
322.797
322.753
322.711
322.67
322.63
322.592
322.555
322.52
322.487
322.455
322.422
322.976
322.929
322.882
322.836
322.791
322.746
322.703
322.661
322.62
322.581
322.545
322.51
322.477
322.446
322.418
322.976
322.927
322.879
322.831
322.784
322.738
322.694
322.651
322.609
322.57
322.533
322.498
322.466
322.437
322.412
322.975
322.924
322.875
322.825
322.777
322.729
322.684
322.639
322.597
322.557
322.519
322.484
322.453
322.425
322.4
322.974
322.922
322.87
322.819
322.769
322.72
322.672
322.627
322.583
322.542
322.503
322.468
322.437
322.41
322.39
322.973
322.919
322.865
322.812
322.76
322.709
322.66
322.613
322.568
322.525
322.486
322.45
322.418
322.392
322.37
322.972
322.915
322.859
322.804
322.75
322.697
322.646
322.597
322.55
322.506
322.465
322.428
322.396
322.369
322.353
322.97
322.912
322.853
322.796
322.739
322.684
322.631
322.58
322.531
322.485
322.443
322.403
322.369
322.34
322.319
322.969
322.908
322.847
322.786
322.727
322.67
322.615
322.561
322.51
322.462
322.417
322.376
322.338
322.306
322.288
322.968
322.903
322.839
322.776
322.715
322.655
322.597
322.541
322.488
322.437
322.39
322.345
322.303
322.263
322.217
322.966
322.898
322.831
322.765
322.701
322.638
322.577
322.519
322.463
322.41
322.36
322.312
322.267
322.223
322.181
322.964
322.893
322.823
322.753
322.686
322.619
322.556
322.494
322.436
322.381
322.328
322.278
322.231
322.183
322.131
322.962
322.888
322.813
322.74
322.669
322.6
322.533
322.468
322.407
322.349
322.295
322.243
322.194
322.146
322.101
322.96
322.882
322.803
322.726
322.651
322.578
322.508
322.44
322.376
322.316
322.259
322.206
322.156
322.106
322.054
322.958
322.875
322.792
322.711
322.632
322.555
322.481
322.41
322.343
322.28
322.222
322.167
322.117
322.069
322.025
322.956
322.868
322.781
322.695
322.611
322.529
322.451
322.377
322.307
322.241
322.181
322.126
322.076
322.029
321.981
322.953
322.86
322.768
322.677
322.588
322.502
322.419
322.341
322.267
322.199
322.137
322.081
322.032
321.99
321.956
322.951
322.852
322.754
322.658
322.563
322.472
322.384
322.301
322.223
322.152
322.088
322.032
321.985
321.946
321.923
322.948
322.843
322.739
322.637
322.537
322.44
322.346
322.258
322.175
322.1
322.034
321.977
321.93
321.891
321.846
322.944
322.833
322.723
322.615
322.508
322.405
322.305
322.211
322.122
322.042
321.973
321.915
321.871
321.839
321.813
322.941
322.823
322.706
322.591
322.478
322.367
322.26
322.159
322.064
321.978
321.903
321.844
321.803
321.785
321.787
322.937
322.813
322.689
322.566
322.445
322.327
322.212
322.102
321.999
321.905
321.823
321.759
321.72
321.715
321.755
322.934
322.802
322.67
322.539
322.41
322.284
322.16
322.041
321.928
321.823
321.731
321.657
321.612
321.615
321.698
322.93
322.79
322.651
322.512
322.374
322.239
322.106
321.976
321.851
321.733
321.626
321.535
321.472
321.46
321.566
289.771
288.61
287.844
287.26
286.769
286.332
285.929
285.549
285.185
284.833
284.489
284.152
283.82
283.491
283.163
289.367
288.243
287.564
287.042
286.595
286.189
285.81
285.45
285.103
284.766
284.436
284.112
283.792
283.474
283.158
287.765
287.568
287.174
286.773
286.391
286.027
285.679
285.342
285.015
284.695
284.38
284.069
283.762
283.456
283.152
287.137
287.03
286.788
286.49
286.174
285.855
285.539
285.228
284.922
284.619
284.32
284.024
283.73
283.437
283.146
286.547
286.584
286.443
286.219
285.958
285.681
285.397
285.111
284.826
284.542
284.259
283.978
283.697
283.418
283.139
286.28
286.264
286.154
285.975
285.754
285.511
285.255
284.993
284.729
284.463
284.196
283.93
283.664
283.398
283.133
286.005
286.008
285.913
285.759
285.566
285.349
285.118
284.878
284.633
284.384
284.134
283.883
283.631
283.379
283.126
285.882
285.82
285.714
285.569
285.394
285.198
284.987
284.766
284.539
284.307
284.072
283.836
283.598
283.359
283.12
285.784
285.664
285.542
285.4
285.237
285.057
284.863
284.659
284.448
284.232
284.012
283.789
283.565
283.339
283.113
285.616
285.509
285.385
285.246
285.092
284.925
284.745
284.557
284.361
284.159
283.953
283.744
283.533
283.32
283.107
285.507
285.367
285.237
285.102
284.957
284.801
284.634
284.46
284.277
284.089
283.897
283.701
283.502
283.302
283.101
285.329
285.216
285.093
284.965
284.829
284.684
284.53
284.367
284.198
284.023
283.843
283.659
283.473
283.284
283.095
285.213
285.073
284.953
284.833
284.707
284.573
284.431
284.28
284.123
283.96
283.791
283.619
283.444
283.267
283.089
285.016
284.916
284.812
284.705
284.591
284.468
284.337
284.198
284.052
283.9
283.743
283.581
283.417
283.251
283.084
284.874
284.762
284.674
284.582
284.48
284.369
284.249
284.121
283.985
283.843
283.696
283.546
283.392
283.236
283.079
284.595
284.593
284.539
284.465
284.377
284.277
284.167
284.048
283.922
283.79
283.653
283.512
283.368
283.222
283.074
284.47
284.458
284.419
284.358
284.281
284.191
284.09
283.981
283.864
283.741
283.613
283.481
283.345
283.208
283.07
284.332
284.342
284.314
284.263
284.194
284.112
284.02
283.918
283.81
283.695
283.575
283.451
283.324
283.195
283.065
284.262
284.253
284.226
284.179
284.116
284.041
283.955
283.861
283.76
283.652
283.54
283.424
283.305
283.184
283.061
284.179
284.177
284.15
284.106
284.047
283.977
283.897
283.809
283.714
283.613
283.508
283.399
283.287
283.173
283.058
284.136
284.118
284.088
284.043
283.987
283.92
283.844
283.761
283.672
283.577
283.478
283.375
283.27
283.163
283.054
284.086
284.068
284.034
283.988
283.933
283.869
283.797
283.718
283.634
283.544
283.451
283.354
283.255
283.154
283.051
284.062
284.029
283.989
283.941
283.885
283.823
283.754
283.679
283.599
283.514
283.426
283.334
283.241
283.145
283.048
284.042
283.994
283.948
283.898
283.843
283.782
283.715
283.643
283.567
283.487
283.403
283.316
283.228
283.137
283.046
284.005
283.959
283.911
283.859
283.804
283.744
283.68
283.611
283.538
283.462
283.382
283.3
283.216
283.13
283.043
283.98
283.926
283.875
283.823
283.768
283.71
283.647
283.581
283.512
283.439
283.363
283.285
283.205
283.123
283.041
283.939
283.891
283.84
283.789
283.735
283.678
283.618
283.554
283.487
283.418
283.345
283.271
283.195
283.117
283.039
283.912
283.857
283.806
283.756
283.703
283.648
283.59
283.529
283.465
283.399
283.329
283.258
283.186
283.112
283.037
283.866
283.82
283.772
283.724
283.674
283.621
283.565
283.506
283.445
283.381
283.315
283.247
283.177
283.107
283.036
283.832
283.783
283.739
283.694
283.646
283.595
283.542
283.485
283.426
283.365
283.302
283.236
283.17
283.102
283.034
283.766
283.743
283.707
283.665
283.62
283.572
283.52
283.466
283.409
283.35
283.289
283.227
283.163
283.098
283.033
283.737
283.711
283.678
283.639
283.597
283.55
283.501
283.449
283.394
283.337
283.278
283.218
283.157
283.094
283.032
283.704
283.683
283.653
283.617
283.576
283.531
283.483
283.433
283.38
283.325
283.269
283.21
283.151
283.091
283.03
283.688
283.663
283.632
283.597
283.557
283.514
283.468
283.419
283.368
283.314
283.26
283.203
283.146
283.088
283.029
283.669
283.645
283.615
283.58
283.541
283.499
283.454
283.406
283.357
283.305
283.252
283.197
283.142
283.085
283.028
283.66
283.632
283.601
283.566
283.527
283.486
283.442
283.395
283.347
283.296
283.245
283.192
283.138
283.083
283.028
283.649
283.621
283.589
283.554