/*--------------------------------*- C++ -*----------------------------------*\
| =========                 |                                                 |
| \\      /  F ield         | OpenFOAM: The Open Source CFD Toolbox           |
|  \\    /   O peration     | Version:  5.x                                   |
|   \\  /    A nd           | Web:      www.OpenFOAM.org                      |
|    \\/     M anipulation  |                                                 |
\*---------------------------------------------------------------------------*/
FoamFile
{
    version     2.0;
    format      ascii;
    class       volScalarField;
    location    "9.9";
    object      gradTy;
}
// * * * * * * * * * * * * * * * * * * * * * * * * * * * * * * * * * * * * * //

dimensions      [0 -1 0 1 0 0 0];

internalField   nonuniform List<scalar> 
6300
(
32284.1
32252.2
32220.2
32188.1
32155.7
32123
32089.9
32056.4
32022.4
31987.9
31952.8
31917.2
31880.9
31844
31806.6
0.0534266
0.159781
0.264605
0.366766
0.464972
0.557728
0.643322
0.719838
0.785222
0.837409
0.874509
0.895056
0.898295
0.884461
0.854968
0.0895996
0.268006
0.443974
0.61568
0.781016
0.937513
1.0823
1.2121
1.32336
1.41243
1.47588
1.51096
1.51609
1.49146
1.43942
0.126565
0.37867
0.627605
0.870961
1.1059
1.32901
1.53625
1.72289
1.88369
2.01307
2.10563
2.15679
2.16364
2.12587
2.04665
0.164557
0.492502
0.816814
1.13466
1.4426
1.73638
2.01079
2.25954
2.47543
2.65052
2.77678
2.84695
2.8558
2.80174
2.68831
0.203718
0.609965
1.01249
1.40826
1.79346
2.16314
2.51097
2.82906
3.10796
3.3368
3.50402
3.5984
3.61089
3.53696
3.37946
0.244065
0.731153
1.21491
1.69244
2.15984
2.61173
3.04088
3.43779
3.79052
4.08471
4.30408
4.43175
4.45239
4.35574
4.14132
0.285456
0.85567
1.42355
1.98676
2.54172
3.08307
3.60301
4.09069
4.53164
4.90742
5.19585
5.37211
5.41118
5.29229
5.00606
0.327547
0.982517
1.63687
2.28932
2.93722
3.57581
4.1974
4.79033
5.33792
5.81747
6.1998
6.44967
6.52792
6.39619
6.02555
0.369759
1.10998
1.85208
2.59643
3.34201
4.08556
4.82045
5.53531
6.21222
6.82475
7.33622
7.69885
7.8547
7.73904
7.28657
0.411266
1.23558
2.06503
2.90231
3.74885
4.60395
5.46353
6.31824
7.15089
7.93309
8.62151
9.15487
9.45311
9.41893
8.93421
0.450993
1.35604
2.27015
3.19892
4.14711
5.11786
6.11147
7.12322
8.14001
9.13521
10.0619
10.8462
11.3844
11.5503
11.1918
0.487657
1.46743
2.46061
3.47613
4.5228
5.60892
6.74125
7.92316
9.15073
10.4059
11.6449
12.7838
13.6891
14.2088
14.2894
0.519858
1.56542
2.62872
3.72217
4.85906
6.05374
7.32146
8.67745
10.1339
11.6926
13.3283
14.9559
16.3819
17.3143
17.8794
0.546211
1.64568
2.76668
3.92477
5.13753
6.42551
7.81341
9.33127
11.0148
12.9023
15.02
17.3308
19.5733
20.8054
18.4204
31771.7
31739.7
31707.3
31674.5
31641.4
31608.1
31574.4
31540.6
31506.5
31472.1
31437.7
31403
31368.2
31333.3
31298.4
31263.3
31228.2
31193.1
31158
31123
31087.9
31052.9
31017.9
30983
30948.1
30913.3
30878.5
30843.8
30809.1
30774.5
30740
30705.5
30671.2
30636.9
30602.7
30568.7
30534.8
30500.9
30467.2
30433.6
30400
30366.5
30333.2
30299.9
30266.7
30233.6
30200.6
30167.7
30135
30102.3
30069.8
30037.4
30005.1
29972.9
29940.8
29908.7
29876.8
29845
29813.2
29781.5
29749.9
29718.4
29687.1
29655.8
29624.6
29593.5
29562.6
29531.7
29500.9
29470.2
29439.5
29408.9
29378.4
29348
29317.6
29287.2
29257
29226.8
29196.6
29166.5
29136.4
29106.4
29076.4
29046.4
29016.3
28986.2
28956
28925.7
28895.3
28864.9
0.815971
0.773722
0.726953
0.67788
0.628353
0.579612
0.532155
0.485756
0.439645
0.392795
0.344268
0.293543
0.240749
0.186767
0.133162
0.0819671
0.0353478
-0.00477658
-0.0370805
-0.0610801
-0.0772359
-0.0868947
-0.0920859
-0.0952059
-0.0986459
-0.10442
-0.113857
-0.127398
-0.14455
-0.163994
-0.183834
-0.201956
-0.216414
-0.225791
-0.229443
-0.227615
-0.22139
-0.212506
-0.203057
-0.195143
-0.190523
-0.190316
-0.19482
-0.203458
-0.214887
-0.227231
-0.238422
-0.246564
-0.250265
-0.248882
-0.242616
-0.232467
-0.22006
-0.207356
-0.196328
-0.18862
-0.185275
-0.186552
-0.191887
-0.199982
-0.209038
-0.217071
-0.222258
-0.223259
-0.219434
-0.210946
-0.19871
-0.184219
-0.169277
-0.155671
-0.144851
-0.137654
-0.134131
-0.133495
-0.134207
-0.134201
-0.131192
-0.123039
-0.108081
-0.0854191
-0.055083
-0.0180883
0.0236239
0.067349
0.109867
0.147758
0.177759
0.197131
0.204
0.197598
1.37082
1.29678
1.21531
1.13057
1.04606
0.964026
0.885278
0.809162
0.733929
0.657322
0.577264
0.492508
0.403115
0.310654
0.218084
0.129321
0.048576
-0.0204013
-0.075008
-0.114275
-0.139061
-0.151935
-0.156779
-0.15818
-0.160713
-0.168227
-0.183249
-0.206599
-0.237282
-0.272695
-0.309118
-0.342406
-0.368758
-0.385406
-0.391105
-0.386336
-0.373204
-0.355071
-0.335986
-0.320006
-0.310526
-0.309709
-0.318127
-0.334658
-0.356682
-0.380542
-0.402204
-0.417978
-0.425172
-0.422548
-0.410514
-0.391023
-0.367225
-0.342923
-0.321929
-0.307428
-0.301438
-0.304466
-0.315414
-0.331763
-0.350008
-0.366287
-0.377063
-0.379744
-0.373115
-0.357517
-0.334751
-0.307739
-0.279998
-0.255022
-0.235659
-0.223587
-0.21897
-0.220353
-0.224827
-0.228446
-0.226835
-0.21588
-0.192378
-0.154557
-0.102376
-0.0376247
0.0362042
0.114207
0.190517
0.258863
0.313219
0.34849
0.361157
0.349767
1.94248
1.83053
1.70836
1.58296
1.46017
1.34371
1.23461
1.13129
1.03019
0.926815
0.817021
0.698147
0.569893
0.434693
0.29752
0.165127
0.0448539
-0.0567235
-0.135029
-0.188326
-0.218042
-0.228541
-0.226433
-0.219527
-0.215609
-0.221224
-0.240654
-0.275244
-0.323204
-0.379945
-0.43892
-0.492849
-0.535077
-0.560789
-0.567845
-0.557103
-0.532221
-0.49901
-0.464445
-0.435512
-0.418055
-0.415807
-0.429755
-0.457952
-0.495834
-0.53702
-0.574466
-0.60175
-0.614219
-0.609769
-0.589152
-0.555783
-0.51512
-0.473728
-0.438185
-0.413984
-0.404618
-0.410978
-0.431169
-0.460815
-0.493813
-0.523432
-0.543529
-0.549639
-0.539714
-0.514411
-0.47691
-0.432311
-0.386741
-0.346293
-0.315971
-0.298789
-0.295173
-0.302764
-0.31668
-0.330225
-0.335937
-0.32679
-0.297301
-0.244374
-0.167775
-0.0702352
0.0427707
0.163501
0.282632
0.39011
0.476158
0.532397
0.552953
0.535362
2.53896
2.379
2.20605
2.03157
1.86517
1.71279
1.57561
1.45022
1.3297
1.20555
1.06985
0.917291
0.746671
0.561571
0.370073
0.183475
0.014209
-0.126559
-0.231062
-0.296337
-0.324696
-0.323303
-0.302998
-0.276573
-0.256778
-0.254329
-0.276228
-0.324635
-0.396484
-0.483979
-0.575989
-0.660141
-0.725178
-0.763038
-0.770216
-0.74823
-0.703233
-0.644898
-0.584795
-0.534493
-0.503684
-0.498584
-0.520865
-0.567301
-0.63023
-0.698885
-0.761361
-0.806857
-0.827629
-0.82027
-0.786153
-0.731047
-0.664064
-0.596113
-0.538107
-0.499175
-0.485154
-0.497573
-0.533309
-0.585039
-0.642483
-0.694287
-0.730137
-0.742624
-0.728455
-0.688873
-0.62929
-0.558282
-0.486108
-0.422984
-0.37736
-0.354454
-0.355237
-0.376068
-0.409069
-0.443281
-0.466436
-0.466992
-0.435973
-0.368279
-0.263329
-0.125116
0.038214
0.215099
0.391528
0.552216
0.682024
0.767687
0.799683
0.773891
3.17028
2.94618
2.70595
2.46853
2.25
2.05996
1.89964
1.76214
1.63445
1.50092
1.34695
1.16244
0.944296
0.697658
0.43557
0.176863
-0.0574749
-0.248617
-0.383587
-0.457507
-0.474192
-0.445301
-0.388375
-0.324074
-0.272971
-0.252373
-0.273633
-0.340272
-0.447233
-0.581511
-0.724376
-0.854958
-0.954414
-1.00947
-1.01458
-0.972495
-0.893453
-0.793334
-0.691029
-0.605407
-0.552294
-0.54193
-0.577195
-0.652897
-0.756383
-0.869646
-0.972708
-1.04757
-1.08155
-1.0693
-1.01338
-0.923415
-0.814401
-0.704177
-0.610562
-0.548495
-0.527617
-0.550589
-0.612419
-0.701034
-0.799276
-0.888114
-0.950389
-0.973993
-0.953792
-0.892133
-0.798122
-0.685932
-0.572442
-0.474471
-0.406037
-0.376005
-0.386431
-0.431846
-0.499713
-0.57226
-0.629477
-0.652659
-0.627458
-0.54583
-0.406782
-0.216165
0.0141395
0.267353
0.523093
0.758788
0.951462
1.08026
1.12963
1.0925
3.85045
3.53657
3.20179
2.87831
2.59379
2.36431
2.19083
2.0599
1.94762
1.82571
1.66802
1.45602
1.18295
0.85599
0.496194
0.135159
-0.191363
-0.451566
-0.624024
-0.7011
-0.689318
-0.60767
-0.484374
-0.352571
-0.245236
-0.190143
-0.205691
-0.297847
-0.458646
-0.666677
-0.890452
-1.0946
-1.24758
-1.32783
-1.32692
-1.24997
-1.11402
-0.944917
-0.773242
-0.629506
-0.539345
-0.519574
-0.575294
-0.698483
-0.86846
-1.0551
-1.22466
-1.34715
-1.40202
-1.38124
-1.28962
-1.14322
-0.966479
-0.788323
-0.637589
-0.538504
-0.506935
-0.547648
-0.652957
-0.803168
-0.96961
-1.12019
-1.22633
-1.26844
-1.23883
-1.14198
-0.993128
-0.815454
-0.636426
-0.483427
-0.379413
-0.339295
-0.367243
-0.45529
-0.583619
-0.723313
-0.841527
-0.907999
-0.900195
-0.806067
-0.624494
-0.364362
-0.0429233
0.315971
0.683523
1.02731
1.31289
1.50719
1.58414
1.53089
4.60182
4.15705
3.68138
3.23197
2.85831
2.58801
2.42075
2.33082
2.27465
2.20203
2.06729
1.83756
1.4992
1.0616
0.558598
0.0437533
-0.42075
-0.780872
-1.00181
-1.07265
-1.00505
-0.830015
-0.592626
-0.345833
-0.142273
-0.0261924
-0.027433
-0.156577
-0.402047
-0.729171
-1.08479
-1.40791
-1.64551
-1.76304
-1.74874
-1.61243
-1.38235
-1.1002
-0.815225
-0.576459
-0.425037
-0.388509
-0.476241
-0.676693
-0.95655
-1.26512
-1.54442
-1.74411
-1.83142
-1.7952
-1.64473
-1.40671
-1.1206
-0.832981
-0.590241
-0.43129
-0.382168
-0.451688
-0.628835
-0.881929
-1.16279
-1.41626
-1.59446
-1.66617
-1.62068
-1.46672
-1.22964
-0.946925
-0.662929
-0.421842
-0.260777
-0.204568
-0.26151
-0.420726
-0.651156
-0.905296
-1.12809
-1.27029
-1.29724
-1.19222
-0.95533
-0.60084
-0.153921
0.352123
0.878174
1.37966
1.80574
2.10314
2.22612
2.14974
5.46446
4.82202
4.1231
3.47658
2.974
2.66332
2.53931
2.5531
2.62534
2.66782
2.60334
2.3755
1.95833
1.36141
0.638047
-0.120147
-0.800448
-1.3106
-1.59576
-1.64354
-1.4755
-1.14215
-0.714423
-0.27684
0.0866585
0.3067
0.335004
0.152204
-0.227869
-0.750627
-1.32594
-1.84437
-2.21634
-2.38808
-2.34626
-2.10991
-1.72564
-1.25954
-0.790673
-0.397637
-0.145282
-0.0785089
-0.214873
-0.540562
-1.00329
-1.51731
-1.9788
-2.30289
-2.43871
-2.37369
-2.12591
-1.73945
-1.27688
-0.813016
-0.422238
-0.16592
-0.0865565
-0.200746
-0.495347
-0.920712
-1.39539
-1.82071
-2.11596
-2.23266
-2.15871
-1.91116
-1.53184
-1.08025
-0.627642
-0.245023
0.00885291
0.0930983
-0.00850313
-0.283611
-0.684552
-1.13242
-1.53068
-1.79857
-1.88429
-1.76829
-1.4555
-0.970413
-0.350057
0.359465
1.1082
1.8406
2.48389
2.95024
3.15519
3.0462
6.51772
5.56819
4.48928
3.51389
2.81343
2.46985
2.45943
2.69121
3.0189
3.2876
3.37464
3.18608
2.67632
1.84328
0.76765
-0.396214
-1.42517
-2.1643
-2.53155
-2.5252
-2.184
-1.59017
-0.850419
-0.101164
0.522167
0.915692
1.00143
0.745055
0.151775
-0.696396
-1.64902
-2.49174
-3.0755
-3.32065
-3.22388
-2.82042
-2.18678
-1.42288
-0.656919
-0.0162383
0.401711
0.524008
0.31912
-0.207095
-0.976161
-1.84516
-2.61104
-3.13277
-3.3352
-3.21538
-2.80676
-2.1818
-1.43504
-0.687801
-0.060615
0.354266
0.487771
0.309992
-0.173561
-0.888477
-1.69908
-2.41248
-2.89455
-3.07367
-2.94675
-2.54533
-1.93813
-1.21503
-0.49157
0.117185
0.522753
0.658386
0.494356
0.0347022
-0.650369
-1.43097
-2.12101
-2.58919
-2.7618
-2.62773
-2.20379
-1.53477
-0.674592
0.310346
1.36175
2.42984
3.41684
4.17377
4.53633
4.38499
7.93214
6.50057
4.70592
3.15489
2.13913
1.79677
2.0308
2.69121
3.49738
4.16895
4.54282
4.45916
3.85983
2.6745
1.0243
-0.866553
-2.46723
-3.55351
-4.00535
-3.88902
-3.25631
-2.24833
-1.0001
0.255839
1.2886
1.9679
2.1605
1.82305
0.898463
-0.491759
-2.13034
-3.51204
-4.42224
-4.7456
-4.54314
-3.86237
-2.8355
-1.58918
-0.342765
0.685893
1.37444
1.59767
1.31582
0.476075
-0.805127
-2.32151
-3.59485
-4.42243
-4.69574
-4.47293
-3.79915
-2.79955
-1.59387
-0.389711
0.606728
1.27963
1.51035
1.26104
0.481391
-0.718451
-2.14275
-3.33734
-4.10941
-4.35539
-4.13006
-3.47582
-2.51132
-1.35031
-0.190326
0.771986
1.42536
1.65519
1.42291
0.67762
-0.478619
-1.85993
-3.03083
-3.8054
-4.08094
-3.90459
-3.30501
-2.37438
-1.17878
0.165516
1.59127
3.13586
4.6811
5.9652
6.65748
6.46776
10.0986
7.95705
4.57074
2.02288
0.494764
0.293928
0.988346
2.48137
4.16972
5.47901
6.36982
6.47483
5.88716
4.17511
1.6275
-1.75475
-4.25003
-5.85633
-6.29729
-5.99644
-4.869
-3.25246
-1.16087
0.934222
2.564
3.72094
4.08286
3.7465
2.31567
0.0705117
-2.98157
-5.21129
-6.61403
-6.92774
-6.55118
-5.40269
-3.80022
-1.75562
0.284958
1.87778
3.01722
3.39865
3.1159
1.79494
-0.295439
-3.14782
-5.22057
-6.51024
-6.77069
-6.37987
-5.26074
-3.71403
-1.75053
0.2075
1.73996
2.84176
3.22415
2.9758
1.74142
-0.225206
-2.9172
-4.87062
-6.08183
-6.31581
-5.93099
-4.85307
-3.36749
-1.48411
0.395569
1.87166
2.93788
3.31743
3.09022
1.9123
0.0172399
-2.59189
-4.51137
-5.74022
-6.05079
-5.79091
-4.88293
-3.59553
-1.8971
-0.0966083
1.64967
3.84094
6.32142
8.60883
10.0487
9.91033
13.93
11.2192
3.2333
-0.584231
-3.06459
-2.49906
-1.20431
1.99024
5.38788
7.39169
9.32836
9.48796
9.53358
6.87893
3.43258
-3.92016
-7.31298
-9.83724
-9.65745
-9.29413
-7.18601
-4.94065
-1.32668
2.28265
4.52031
6.61879
7.01075
7.24598
4.90551
1.79476
-5.01702
-8.10137
-10.3741
-10.1038
-9.67082
-7.59675
-5.40162
-1.91628
1.55745
3.72255
5.75154
6.15603
6.411
4.22176
1.31154
-5.09683
-7.9739
-10.0802
-9.78344
-9.33559
-7.33804
-5.2287
-1.89931
1.41753
3.49334
5.43982
5.84624
6.11042
4.05587
1.31257
-4.75518
-7.47271
-9.46145
-9.1673
-8.72997
-6.81737
-4.79647
-1.6126
1.56264
3.56154
5.4392
5.8534
6.12654
4.17967
1.54136
-4.31693
-6.9864
-8.99736
-8.84208
-8.61049
-7.00722
-5.40854
-2.76241
-0.280653
1.06727
4.12955
8.23978
12.4729
15.7127
16.1827
21.243
22.1585
-4.03345
-5.10451
-11.0109
-6.34266
-6.13285
1.2066
8.61315
9.40103
14.8459
12.6652
17.0684
10.7228
10.8629
-11.7879
-11.6267
-17.712
-13.2819
-15.1043
-9.70066
-8.59964
-1.48582
5.60629
6.67702
11.9741
10.1643
14.4545
8.60453
8.84848
-12.42
-12.1603
-17.7958
-13.5144
-15.1536
-9.96512
-8.86094
-2.06023
4.71437
5.76332
10.8251
9.12872
13.2258
7.68681
7.95585
-12.1309
-11.8372
-17.1104
-13.0138
-14.5229
-9.57632
-8.50022
-2.03003
4.41466
5.43297
10.2556
8.67314
12.584
7.36214
7.63755
-11.4175
-11.1242
-16.1284
-12.225
-13.6533
-8.93761
-7.90013
-1.72867
4.42366
5.426
10.0479
8.5925
12.3597
7.44273
7.70224
-10.6339
-10.4097
-15.3739
-11.7433
-13.4053
-9.12488
-8.7299
-3.39102
1.16803
-1.98382
2.90914
9.98121
17.7673
25.365
29.6158
30.7344
71.1288
-47.4164
-2.60447
-34.1831
-3.76672
-21.3279
0.326362
21.3693
4.70434
31.3441
6.36188
40.0814
5.22746
51.1119
-52.5047
-6.94532
-40.7288
-7.90256
-31.3202
-6.01941
-20.917
-1.61367
17.6008
2.74789
27.5631
4.53398
36.2649
3.52833
46.8801
-50.8234
-7.72996
-39.4981
-8.39916
-30.4681
-6.45212
-20.5232
-2.16654
16.1163
2.02558
25.6306
3.75888
33.9163
2.7884
43.9125
-48.5128
-7.68411
-37.6329
-8.17206
-29.0062
-6.24106
-19.5392
-2.12398
15.2259
1.89448
24.2946
3.58975
32.2089
2.75237
41.7984
-45.9412
-7.14733
-35.6224
-7.60463
-27.4241
-5.76107
-18.3966
-1.81712
14.7008
2.07836
23.4081
3.81113
31.0981
3.25179
40.6409
-43.6775
-6.36162
-34.1269
-7.02299
-26.757
-5.64746
-19.1704
-2.89657
13.7205
-16.6194
-1.44912
10.6945
23.3332
39.8371
66.3908
28831.3
28794.5
28757.6
28720.7
28683.7
28646.8
28609.9
28573.1
28536.4
28499.8
28463.3
28426.9
28390.6
28354.3
28318.1
0.176455
0.137487
0.0873206
0.0317104
-0.02349
-0.073123
-0.113239
-0.141304
-0.15616
-0.157836
-0.147281
-0.126106
-0.096358
-0.0603505
-0.0205414
0.311704
0.241557
0.151586
0.052425
-0.0452886
-0.132391
-0.202067
-0.250134
-0.274875
-0.276623
-0.257249
-0.219689
-0.167546
-0.104805
-0.0356504
0.475575
0.365449
0.225038
0.071691
-0.0776997
-0.209087
-0.312507
-0.382291
-0.416585
-0.416531
-0.385404
-0.327856
-0.24933
-0.155674
-0.0529052
0.684348
0.519628
0.311427
0.0870011
-0.128115
-0.313749
-0.456581
-0.54994
-0.592642
-0.58751
-0.539982
-0.457001
-0.346245
-0.215657
-0.0732013
0.96016
0.717288
0.41404
0.0930017
-0.20801
-0.461212
-0.650128
-0.768245
-0.816533
-0.800886
-0.730011
-0.613919
-0.462994
-0.287506
-0.0974444
1.33447
0.975325
0.534444
0.0789768
-0.335716
-0.67296
-0.914474
-1.05638
-1.10436
-1.06949
-0.965257
-0.80567
-0.604305
-0.373929
-0.126514
1.85366
1.31509
0.669437
0.0241777
-0.540868
-0.980439
-1.27843
-1.43844
-1.47503
-1.40746
-1.25585
-1.0392
-0.774628
-0.47739
-0.161199
2.58841
1.76196
0.804034
-0.110835
-0.871495
-1.4295
-1.78037
-1.94391
-1.94985
-1.82948
-1.6115
-1.32064
-0.97762
-0.599803
-0.20209
3.65021
2.3403
0.895573
-0.400054
-1.40478
-2.08568
-2.46964
-2.60697
-2.551
-2.3491
-2.04002
-1.65424
-1.21541
-0.74211
-0.249449
5.22033
3.05348
0.83801
-0.980172
-2.26189
-3.0388
-3.40555
-3.46333
-3.29808
-2.9759
-2.54525
-2.04088
-1.48767
-0.903778
-0.303046
7.59648
3.81526
0.383162
-2.09675
-3.62381
-4.40208
-4.65042
-4.54272
-4.20208
-3.71118
-3.1242
-2.47636
-1.79062
-1.08228
-0.362003
11.2296
4.22794
-1.02387
-4.16618
-5.73452
-6.29527
-6.25135
-5.85505
-5.25634
-4.54253
-3.76401
-2.94972
-2.11618
-1.27273
-0.424685
16.4612
2.89075
-4.54041
-7.80958
-8.85283
-8.79313
-8.20466
-7.36977
-6.4257
-5.43859
-4.43959
-3.44234
-2.45165
-1.46777
-0.48869
20.9126
-4.58571
-12.2189
-13.6789
-13.0741
-11.8197
-10.4044
-8.99369
-7.63809
-6.34654
-5.1134
-3.92841
-2.7803
-1.65802
-0.550993
0.564481
1.7013
2.8622
4.06495
5.33022
6.68331
8.15675
9.79402
11.6552
13.8248
16.4191
19.5752
23.3244
26.8351
24.1869
0.575106
1.73353
2.91717
4.14481
5.4386
6.82627
8.34463
10.0453
12.0051
14.346
17.2774
21.2002
27.005
37.1215
59.9225
0.580026
1.74825
2.94158
4.17872
5.48177
6.87848
8.4059
10.1166
12.0903
14.4568
17.4467
21.5153
27.6849
38.6167
62.4252
0.579266
1.74555
2.93557
4.16687
5.45991
6.83992
8.33988
10.0054
11.9028
14.1348
16.8666
20.3685
25.0408
31.1099
35.9407
0.573125
1.72636
2.90088
4.11216
5.37764
6.71805
8.15891
9.73294
11.4831
13.466
15.7522
18.4095
21.42
24.4021
26.0766
0.562136
1.69237
2.84068
4.01978
5.24336
6.52641
7.88546
9.33821
10.9017
12.5865
14.3806
16.2074
17.8242
18.5936
16.9515
0.547008
1.64583
2.7591
3.89653
5.06776
6.28199
7.54695
8.86657
10.236
11.631
12.9861
14.1514
14.8195
14.4607
12.6593
0.52854
1.58925
2.66075
3.7498
4.8623
6.00234
7.17047
8.36035
9.55257
10.7032
11.7232
12.4405
12.5287
11.3298
7.12766
0.507552
1.52519
2.5502
3.58678
4.63771
5.70319
6.7789
7.8525
8.89798
9.86623
10.6705
11.1664
11.1317
10.2847
8.5774
0.484806
1.45599
2.43163
3.41381
4.403
5.39694
6.38877
7.36418
8.29703
9.14307
9.83202
10.2608
10.2988
9.8369
8.94688
0.46097
1.38369
2.30852
3.23595
4.165
5.09216
6.01005
6.90541
7.75635
8.529
9.17417
9.62655
9.81306
9.68644
9.31678
0.436589
1.30994
2.18359
3.05698
3.9283
4.7938
5.64698
6.47748
7.27004
8.00346
8.65021
9.1769
9.54476
9.70476
9.56866
0.412086
1.23598
2.05885
2.87945
3.69563
4.50401
5.29964
6.0759
6.82479
7.53809
8.20961
8.83755
9.42081
9.92867
10.2146
0.38778
1.16272
1.93568
2.70498
3.46838
4.22307
4.96576
5.69332
6.40425
7.10173
7.79926
8.52922
9.34921
10.3067
11.1241
0.363903
1.09083
1.81507
2.5346
3.24718
3.95045
4.64238
5.32229
5.99304
6.66532
7.36639
8.15836
9.1821
10.782
13.9297
0.340635
1.02082
1.69772
2.36904
3.03243
3.68571
4.32735
4.95763
5.58075
6.20892
6.87039
7.62654
8.61488
10.1823
13.3982
0.318119
0.953091
1.58424
2.20898
2.82471
3.42904
4.0202
4.59793
5.16494
5.72939
6.30862
6.93346
7.64548
8.43802
8.83861
0.296481
0.88801
1.47522
2.05518
2.62491
3.18151
3.72238
4.24568
4.75091
5.23958
5.71518
6.17982
6.62014
6.96587
7.03699
0.275836
0.825927
1.37124
1.90848
2.43423
2.94489
3.43676
3.90597
4.34837
4.75885
5.12933
5.44307
5.66049
5.6844
5.26227
0.25629
0.767161
1.27286
1.76977
2.25401
2.72133
3.16687
3.58487
3.96798
4.3059
4.58288
4.7732
4.83521
4.71266
4.3979
0.237929
0.711987
1.18058
1.63984
2.08554
2.51288
2.9161
3.28801
3.61896
3.89526
4.09661
4.19242
4.13808
3.87439
3.31793
0.220819
0.660608
1.09478
1.51933
1.92983
2.32116
2.68708
3.01959
3.30788
3.53666
3.68364
3.71589
3.58633
3.23942
2.69501
0.204991
0.613129
1.01566
1.40857
1.78744
2.14709
2.48126
2.78187
3.03811
3.23487
3.35033
3.35171
3.18552
2.74161
1.67235
0.190445
0.569546
0.943208
1.30757
1.65837
1.99073
2.29873
2.57496
2.80965
2.98954
3.09622
3.10391
2.97756
2.67805
2.22984
0.177142
0.529739
0.877216
1.21598
1.54212
1.85126
2.13826
2.39688
2.61923
2.79506
2.91085
2.94918
2.88986
2.71774
2.44368
0.165012
0.493486
0.817276
1.13315
1.43768
1.72717
1.99751
2.24399
2.46112
2.64226
2.77926
2.86225
2.88048
2.82823
2.73182
0.153957
0.460484
0.762835
1.05819
1.34368
1.61637
1.8733
2.11149
2.328
2.5201
2.68517
2.82029
2.92004
2.96938
2.92082
0.143867
0.430381
0.71325
0.990081
1.25856
1.51653
1.76212
1.99402
2.21184
2.4167
2.61187
2.80289
2.99461
3.17851
3.30639
0.134622
0.402809
0.667858
0.927771
1.18074
1.42526
1.66044
1.88634
2.10468
2.32002
2.54144
2.785
3.0746
3.42652
3.72721
0.12611
0.377417
0.62603
0.870286
1.10877
1.3405
1.56521
1.78388
1.99961
2.21911
2.45564
2.73514
3.11131
3.71011
4.88772
0.11823
0.353897
0.587226
0.816808
1.0415
1.26059
1.47416
1.68348
1.89192
2.10636
2.33998
2.61815
2.99341
3.59174
4.78712
0.110901
0.331999
0.551022
0.766727
0.978102
1.18454
1.38605
1.58368
1.78006
1.9803
2.19338
2.43372
2.72059
3.05876
3.298
0.104061
0.311541
0.517123
0.71965
0.918139
1.11189
1.30064
1.48476
1.66551
1.84532
2.02785
2.21697
2.41214
2.59446
2.70788
0.0976671
0.2924
0.485346
0.675377
0.861464
1.04272
1.21845
1.38817
1.5516
1.70845
1.85775
1.99602
2.11261
2.17801
2.10979
0.0916909
0.274499
0.455592
0.633843
0.808142
0.977384
1.14042
1.29594
1.44227
1.57683
1.6953
1.79011
1.84863
1.85436
1.8109
0.0861128
0.257789
0.427811
0.595052
0.758333
0.916358
1.0676
1.21011
1.3411
1.45637
1.54928
1.60941
1.62131
1.56485
1.41331
0.0809161
0.242227
0.401961
0.559012
0.712172
0.860038
1.00086
1.13227
1.25085
1.35144
1.42603
1.4622
1.44146
1.34136
1.17197
0.0760813
0.227761
0.377974
0.525674
0.669687
0.808611
0.94065
1.06334
1.1731
1.26457
1.32946
1.35451
1.31672
1.16599
0.739281
0.0715815
0.214313
0.355733
0.494895
0.630735
0.761966
0.886935
1.00338
1.10805
1.19617
1.26054
1.29045
1.27042
1.18227
1.03705
0.0673813
0.201777
0.335058
0.466425
0.594984
0.719671
0.83914
0.951592
1.0545
1.14425
1.21557
1.26108
1.27142
1.2382
1.16141
0.0634359
0.190016
0.315712
0.439905
0.561922
0.680999
0.79622
0.906431
1.0101
1.10512
1.18852
1.25612
1.30269
1.32438
1.33262
0.059693
0.178868
0.29741
0.414897
0.530903
0.645005
0.75678
0.865813
0.971708
1.07407
1.17243
1.26578
1.35124
1.4199
1.44395
0.0560968
0.168161
0.279843
0.390917
0.501208
0.610629
0.719245
0.827377
0.935768
1.04581
1.15982
1.28093
1.41144
1.54641
1.66101
0.0525908
0.157718
0.262697
0.367482
0.472118
0.576813
0.682047
0.788764
0.898679
1.01481
1.14229
1.28954
1.46857
1.68705
1.8855
0.0491226
0.147379
0.245688
0.344151
0.442988
0.542623
0.643823
0.747931
0.857278
0.975915
1.11104
1.27608
1.49831
1.84162
2.4874
0.0456467
0.137004
0.228572
0.320561
0.413306
0.507349
0.60358
0.703464
0.80943
0.925575
1.05903
1.22291
1.44398
1.78615
2.43947
0.0421268
0.126483
0.211164
0.296449
0.382724
0.470558
0.560803
0.654775
0.754516
0.863221
0.985878
1.13005
1.30555
1.5146
1.68038
0.0385361
0.115737
0.193337
0.271649
0.351063
0.432093
0.515441
0.602084
0.693382
0.791181
0.897795
1.01543
1.14382
1.27313
1.37527
0.0348561
0.104714
0.175017
0.246085
0.318281
0.392021
0.467793
0.546163
0.627736
0.713025
0.80206
0.893367
0.981447
1.05053
1.05623
0.0310752
0.0933833
0.156166
0.219741
0.284429
0.350539
0.418345
0.488021
0.559514
0.632273
0.704752
0.773545
0.832278
0.871948
0.893469
0.027185
0.0817239
0.136765
0.192625
0.249591
0.307882
0.3676
0.428621
0.490416
0.55172
0.61001
0.660716
0.696352
0.70598
0.67193
0.0231777
0.0697164
0.116796
0.164744
0.213834
0.264237
0.315952
0.368689
0.421662
0.473266
0.520538
0.558357
0.578492
0.570351
0.538097
0.0190436
0.0573342
0.0962241
0.136072
0.177168
0.219683
0.263599
0.308595
0.353863
0.397823
0.437637
0.468282
0.480276
0.451471
0.307338
0.0147682
0.0445366
0.0749883
0.106535
0.139518
0.174159
0.2105
0.248315
0.286976
0.325266
0.361107
0.391167
0.410397
0.412685
0.403347
0.0103321
0.0312653
0.0529929
0.0760036
0.100719
0.127456
0.156381
0.187452
0.220351
0.254413
0.288597
0.321576
0.352289
0.381978
0.420222
0.00570959
0.0174429
0.0301079
0.0442899
0.0605176
0.0792356
0.100775
0.125324
0.152922
0.183481
0.216929
0.253565
0.294899
0.345337
0.414447
0.000869193
0.00297421
0.00617056
0.0111573
0.0185894
0.0290593
0.0430808
0.0610841
0.0834402
0.110548
0.143052
0.182297
0.231192
0.295735
0.38806
-0.00422553
-0.0122516
-0.0190088
-0.0236717
-0.0254459
-0.0235804
-0.0173748
-0.00617501
0.0106632
0.0338733
0.0645004
0.104333
0.156626
0.226847
0.320534
-0.00961513
-0.0283578
-0.0456413
-0.0605049
-0.0720066
-0.0792311
-0.0812953
-0.0773456
-0.0665341
-0.0479471
-0.0204384
0.0177245
0.0696175
0.141671
0.252162
-0.0153431
-0.0454765
-0.073953
-0.099671
-0.121535
-0.138462
-0.149389
-0.153277
-0.149126
-0.135958
-0.11277
-0.0784123
-0.0313833
0.0298138
0.0996526
-0.0214545
-0.0637452
-0.104179
-0.141511
-0.17449
-0.201858
-0.222365
-0.234788
-0.237976
-0.23092
-0.212851
-0.183341
-0.142214
-0.0880347
-0.00676572
-0.027995
-0.0833027
-0.136558
-0.186373
-0.231339
-0.270017
-0.300952
-0.322708
-0.333936
-0.333526
-0.320871
-0.29633
-0.262101
-0.224684
-0.20696
-0.0350092
-0.104285
-0.171323
-0.234602
-0.292551
-0.343548
-0.385911
-0.417935
-0.437972
-0.444629
-0.43714
-0.416039
-0.384194
-0.347646
-0.310843
-0.0425388
-0.12682
-0.208699
-0.286528
-0.35859
-0.423072
-0.478047
-0.521481
-0.551295
-0.565551
-0.562856
-0.543204
-0.509545
-0.470776
-0.449453
-0.050621
-0.151023
-0.248886
-0.342458
-0.429891
-0.509196
-0.578195
-0.634481
-0.67542
-0.698238
-0.700341
-0.680088
-0.638438
-0.581783
-0.522821
-0.0592865
-0.176987
-0.292052
-0.40265
-0.506835
-0.602474
-0.687167
-0.758137
-0.812124
-0.845306
-0.853347
-0.831826
-0.777746
-0.694386
-0.606707
-0.0685574
-0.204783
-0.338318
-0.467293
-0.58971
-0.703352
-0.805666
-0.893582
-0.963272
-1.00983
-1.02688
-1.00617
-0.937383
-0.809983
-0.631751
-0.0784457
-0.234445
-0.387749
-0.53649
-0.678676
-0.812094
-0.93416
-1.04168
-1.13048
-1.19484
-1.22663
-1.21389
-1.13772
-0.960875
-0.56985
-0.0889533
-0.265979
-0.440348
-0.610238
-0.77373
-0.928717
-1.07275
-1.20278
-1.31466
-1.40246
-1.45729
-1.46567
-1.40796
-1.2605
-1.02786
-0.100072
-0.299357
-0.496056
-0.688428
-0.874687
-1.05294
-1.22107
-1.37646
-1.51555
-1.63299
-1.7202
-1.76333
-1.74053
-1.61927
-1.34371
-0.111789
-0.33453
-0.554767
-0.77086
-0.981201
-1.1842
-1.37824
-1.56147
-1.73149
-1.88449
-2.01373
-2.10676
-2.14147
-2.08519
-1.92629
-0.124087
-0.371441
-0.616356
-0.857286
-1.09281
-1.32168
-1.5429
-1.75565
-1.95923
-2.15248
-2.3324
-2.4907
-2.60558
-2.62237
-2.39943
-0.136955
-0.410044
-0.680711
-0.947465
-1.20903
-1.46449
-1.71343
-1.9562
-2.19415
-2.42973
-2.66609
-2.90478
-3.1378
-3.32603
-3.37577
-0.150391
-0.45033
-0.747781
-1.04124
-1.3295
-1.61181
-1.88823
-2.1601
-2.43072
-2.70643
-2.99814
-3.32281
-3.70113
-4.12586
-4.34336
-0.164414
-0.492343
-0.817621
-1.13864
-1.45409
-1.76322
-2.06621
-2.36487
-2.66374
-2.97203
-3.30731
-3.70356
-4.23221
-5.0696
-6.76257
-0.17906
-0.536196
-0.890416
-1.2399
-1.58308
-1.91889
-2.24718
-2.56948
-2.89021
-3.21888
-3.57413
-3.99237
-4.54888
-5.41918
-7.08773
-0.194388
-0.582074
-0.9665
-1.34554
-1.71718
-2.07977
-2.43231
-2.77518
-3.11118
-3.44726
-3.7972
-4.18517
-4.64762
-5.21441
-5.75354
-0.210472
-0.630215
-1.04633
-1.4563
-1.85758
-2.24762
-2.62416
-2.98566
-3.33209
-3.66601
-3.99385
-4.32623
-4.67391
-5.02886
-5.31653
-0.227391
-0.680878
-1.13041
-1.57311
-2.00578
-2.42485
-2.82645
-3.2066
-3.56168
-3.88899
-4.18734
-4.45666
-4.69515
-4.89001
-4.99513
-0.245207
-0.734288
-1.21924
-1.69688
-2.16342
-2.61422
-3.04362
-3.44494
-3.81054
-4.13209
-4.40097
-4.60851
-4.74668
-4.81348
-4.84149
-0.26395
-0.790564
-1.31314
-1.82837
-2.332
-2.81843
-3.2803
-3.7081
-4.08999
-4.41177
-4.6572
-4.80853
-4.84776
-4.76389
-4.58865
-0.283585
-0.849645
-1.41214
-1.96791
-2.51252
-3.03971
-3.54062
-4.00314
-4.41118
-4.74447
-4.97877
-5.08641
-5.03433
-4.77774
-4.32106
-0.303992
-0.911201
-1.51582
-2.11518
-2.70514
-3.27922
-3.82762
-4.336
-4.78428
-5.1459
-5.3883
-5.47519
-5.36291
-4.93055
-3.47161
-0.324936
-0.974557
-1.62314
-2.26899
-2.90879
-3.53658
-4.1424
-4.71058
-5.21757
-5.63013
-5.90582
-6.00228
-5.91376
-5.79625
-6.4307
-0.346056
-1.03863
-1.73235
-2.42701
-3.12079
-3.80918
-4.48333
-5.12766
-5.71645
-6.20939
-6.54779
-6.65784
-6.48475
-6.13975
-6.46208
-0.36685
-1.10192
-1.84091
-2.58562
-3.33653
-4.09167
-4.84496
-5.58331
-6.28187
-6.89598
-7.34834
-7.51002
-7.17513
-6.01982
-3.39255
-0.386691
-1.1625
-1.94548
-2.73994
-3.54933
-4.37545
-5.21695
-6.0666
-6.90595
-7.69489
-8.35075
-8.70703
-8.43525
-6.92209
-3.21039
-0.404845
-1.2181
-2.04207
-2.88388
-3.75052
-4.64855
-5.58328
-6.55703
-7.56504
-8.58621
-9.56121
-10.3402
-10.5574
-9.35113
-4.90953
-0.420519
-1.26627
-2.12628
-3.01058
-3.92992
-4.89616
-5.92252
-7.02367
-8.21499
-9.50958
-10.9078
-12.3634
-13.6682
-14.0269
-10.343
-0.432925
-1.30452
-2.19363
-3.11294
-4.07674
-5.10201
-6.20983
-7.42768
-8.79323
-10.361
-12.2145
-14.4915
-17.4359
-21.51
-27.5835
-11.3092
-25.8077
-24.3888
-20.8285
-17.522
-14.7504
-12.4295
-10.4436
-8.70029
-7.13268
-5.6925
-4.34419
-3.0606
-1.82
-0.603999
-111.197
-57.9795
-37.4191
-27.2638
-21.2097
-17.0937
-14.0262
-11.5824
-9.53522
-7.75214
-6.15009
-4.67356
-3.28309
-1.94875
-0.646158
-123.629
-67.473
-43.2237
-30.851
-23.5514
-18.709
-15.1897
-12.4458
-10.1868
-8.24589
-6.52051
-4.94317
-3.46661
-2.05546
-0.681179
-67.9148
-54.809
-40.7805
-30.9154
-24.1867
-19.4053
-15.8148
-12.9724
-10.6173
-8.58999
-6.78813
-5.14278
-3.60471
-2.13655
-0.707921
-47.9411
-42.7859
-35.4462
-28.8016
-23.4696
-19.2748
-15.9203
-13.1607
-10.8203
-8.7775
-6.94706
-5.26789
-3.69425
-2.19021
-0.725779
-30.4453
-32.2798
-29.6291
-25.7764
-21.9627
-18.5607
-15.6126
-13.0578
-10.8167
-8.81749
-7.00095
-5.31971
-3.73547
-2.21634
-0.734702
-22.4594
-24.8885
-24.6468
-22.7241
-20.1699
-17.5314
-15.0319
-12.737
-10.6452
-8.73061
-6.96086
-5.30418
-3.73146
-2.21645
-0.735125
-12.479
-19.3518
-20.8317
-20.1104
-18.4357
-16.4056
-14.3092
-12.2752
-10.3506
-8.54314
-6.84226
-5.23034
-3.68739
-2.19316
-0.727859
-15.0577
-17.5603
-18.5453
-18.1588
-16.9482
-15.3258
-13.5431
-11.7373
-9.9748
-8.28161
-6.66188
-5.10861
-3.60947
-2.14978
-0.713937
-15.7168
-16.8228
-17.2111
-16.7795
-15.7468
-14.3572
-12.793
-11.1693
-9.55084
-7.96907
-6.43533
-4.94928
-3.50417
-2.08984
-0.694482
-16.3415
-16.5838
-16.4464
-15.8176
-14.7932
-13.51
-12.0842
-10.5977