/*--------------------------------*- C++ -*----------------------------------*\
| =========                 |                                                 |
| \\      /  F ield         | OpenFOAM: The Open Source CFD Toolbox           |
|  \\    /   O peration     | Version:  5.x                                   |
|   \\  /    A nd           | Web:      www.OpenFOAM.org                      |
|    \\/     M anipulation  |                                                 |
\*---------------------------------------------------------------------------*/
FoamFile
{
    version     2.0;
    format      ascii;
    class       volScalarField;
    location    "0.9";
    object      gradTy;
}
// * * * * * * * * * * * * * * * * * * * * * * * * * * * * * * * * * * * * * //

dimensions      [0 -1 0 1 0 0 0];

internalField   nonuniform List<scalar> 
6300
(
32285.3
32255.9
32226.4
32196.8
32166.9
32136.7
32106.1
32075.2
32043.8
32011.9
31979.4
31946.4
31912.9
31878.7
31844
0.0506831
0.151585
0.251056
0.348032
0.441301
0.529466
0.610925
0.68389
0.746445
0.796667
0.832799
0.853483
0.858032
0.846683
0.820777
0.0850054
0.254273
0.421255
0.58424
0.741254
0.889986
1.02775
1.15149
1.25789
1.34355
1.40528
1.44052
1.44784
1.42744
1.38155
0.120068
0.359242
0.595441
0.826405
1.04947
1.26146
1.45857
1.63641
1.79005
1.91433
2.00421
2.05544
2.06533
2.03365
1.96342
0.156095
0.467185
0.774863
1.07647
1.36878
1.64781
1.90867
2.14552
2.35159
2.51952
2.6418
2.7117
2.72439
2.67843
2.57722
0.19322
0.578541
0.960358
1.33583
1.70136
2.05232
2.38279
2.6854
2.95129
3.17035
3.33178
3.42517
3.44211
3.37846
3.23698
0.231463
0.693403
1.1522
1.60513
2.04852
2.47733
2.88479
3.262
3.59782
3.87881
4.08982
4.2151
4.24043
4.15632
3.96246
0.270692
0.811409
1.34991
1.88399
2.41027
2.92371
3.41702
3.88002
4.29918
4.65727
4.93359
5.105
5.14821
5.04396
4.78367
0.310587
0.931632
1.55205
2.17063
2.78485
3.39024
3.97956
4.54189
5.06161
5.5175
5.8823
6.12311
6.20346
6.08767
5.74901
0.350611
1.05248
1.75605
2.46164
3.16827
3.87283
4.5691
5.24638
5.88787
6.46885
6.95501
7.3017
7.4549
7.35433
6.93942
0.389992
1.17163
1.95801
2.75163
3.55377
4.36373
5.17763
5.98666
6.77467
7.51504
8.16721
8.67385
8.96017
8.93542
8.48991
0.427725
1.28602
2.15275
3.03309
3.93145
4.8507
5.79104
6.74798
7.70912
8.64946
9.525
10.2664
10.7766
10.9373
10.6071
0.462612
1.392
2.33387
3.29655
4.28824
5.31659
6.38788
7.50509
8.66441
9.84872
11.017
12.0902
12.9424
13.4298
13.5
0.493341
1.48548
2.49418
3.53101
4.60836
5.73957
6.93879
8.22011
9.59472
11.0641
12.6042
14.1348
15.4729
16.3385
16.8326
0.51861
1.56243
2.62636
3.72497
4.87465
6.09453
7.40763
8.84185
10.4303
12.2086
14.201
16.3721
18.4751
19.6164
17.3051
31811.7
31782
31751.9
31721.5
31690.8
31659.8
31628.5
31597
31565.3
31533.3
31501.2
31468.9
31436.4
31403.8
31371.1
31338.4
31305.5
31272.7
31239.7
31206.8
31173.9
31140.9
31108
31075
31042
31009.1
30976.1
30943.1
30910.1
30877.2
30844.2
30811.3
30778.3
30745.5
30712.6
30679.8
30646.9
30614.2
30581.4
30548.6
30515.9
30483.1
30450.3
30417.6
30384.8
30352
30319.3
30286.6
30253.9
30221.2
30188.5
30155.8
30123.2
30090.5
30057.9
30025.2
29992.5
29959.9
29927.2
29894.5
29861.8
29829.1
29796.4
29763.7
29731.1
29698.5
29665.8
29633.3
29600.7
29568.1
29535.5
29502.9
29470.3
29437.8
29405.2
29372.6
29340.1
29307.6
29275.1
29242.6
29210.1
29177.6
29145.1
29112.6
29080
29047.3
29014.6
28981.7
28948.7
28915.6
0.785946
0.74802
0.705979
0.661906
0.617548
0.574082
0.531992
0.491087
0.450663
0.409778
0.367563
0.323536
0.277812
0.231202
0.185148
0.141526
0.102329
0.0693212
0.0437118
0.0259267
0.0155131
0.0111934
0.0110565
0.012851
0.0143344
0.0136196
0.00946488
0.00145977
-0.00992799
-0.0234548
-0.03734
-0.0496012
-0.0584234
-0.0624945
-0.0612438
-0.0549464
-0.0446777
-0.0321331
-0.0193448
-0.00834362
-0.000821044
0.0021542
0.000317192
-0.00574706
-0.0147047
-0.0247086
-0.033728
-0.039913
-0.0419245
-0.0391685
-0.0318976
-0.0211641
-0.00863894
0.00367182
0.0137646
0.0199761
0.0212667
0.0174013
0.00899571
-0.00258502
-0.0154619
-0.0275726
-0.0370355
-0.0424792
-0.043276
-0.0396396
-0.0325744
-0.0236878
-0.0148988
-0.0080909
-0.0047642
-0.00574157
-0.0109787
-0.0195112
-0.0295542
-0.0387431
-0.0444792
-0.0443238
-0.0363748
-0.01957
0.00612305
0.039645
0.0789091
0.120979
0.162339
0.199242
0.228097
0.245877
0.250482
0.241017
1.32013
1.25352
1.18014
1.10391
1.02811
0.954901
0.885049
0.817982
0.7521
0.685323
0.615728
0.542156
0.464656
0.384675
0.304941
0.229067
0.160935
0.103997
0.0606335
0.031705
0.0163709
0.0121989
0.015537
0.0220799
0.0275385
0.0283069
0.0220217
0.00792355
-0.0130449
-0.0384316
-0.0647371
-0.0880705
-0.104875
-0.112585
-0.110083
-0.0978996
-0.0781128
-0.0539983
-0.02948
-0.00847958
0.00573405
0.0110922
0.00708046
-0.00516529
-0.0230482
-0.0429656
-0.0609552
-0.0734101
-0.0777252
-0.0727505
-0.0589803
-0.0384562
-0.0144127
0.00927003
0.0287161
0.040704
0.0432134
0.0357798
0.0195903
-0.0027056
-0.0274519
-0.0506332
-0.0685909
-0.0786683
-0.0796638
-0.0720143
-0.0576916
-0.0398371
-0.0222009
-0.0084753
-0.00162622
-0.00332727
-0.0135878
-0.0306426
-0.0511341
-0.070572
-0.0839997
-0.0867535
-0.0751818
-0.0472109
-0.00268796
0.0565189
0.126649
0.202376
0.277293
0.344526
0.397451
0.430436
0.439554
0.423123
1.86977
1.76872
1.65836
1.54526
1.43491
1.33084
1.23405
1.14312
1.05478
0.964882
0.869572
0.766385
0.65503
0.537748
0.419132
0.305416
0.203381
0.119086
0.056731
0.0178715
0.00112102
0.00235772
0.0153727
0.0328424
0.047471
0.0531283
0.0458086
0.0242626
-0.00981488
-0.0520977
-0.0964235
-0.135948
-0.164428
-0.17738
-0.172862
-0.151794
-0.11777
-0.076431
-0.0345317
0.00117871
0.025066
0.0335516
0.0257329
0.00356977
-0.0284226
-0.0639562
-0.0961061
-0.118579
-0.126851
-0.118942
-0.0957295
-0.0607542
-0.0196018
0.0210372
0.0544785
0.0751545
0.0795543
0.0668449
0.0390584
0.000784746
-0.0416116
-0.0811305
-0.111407
-0.127848
-0.128411
-0.113908
-0.0878039
-0.0555806
-0.0237799
0.00113488
0.0139166
0.0115056
-0.00632035
-0.0367323
-0.0741387
-0.110964
-0.138799
-0.149721
-0.137514
-0.0985983
-0.0325567
0.0577482
0.166414
0.285022
0.403388
0.510492
0.595591
0.649433
0.665484
0.640907
2.44232
2.29735
2.14054
1.98264
1.8327
1.69629
1.57463
1.46456
1.35973
1.25225
1.13478
1.00239
0.853953
0.69276
0.526282
0.364964
0.2203
0.102601
0.0190143
-0.0277796
-0.0400106
-0.0244244
0.00881312
0.0477153
0.0803414
0.0966547
0.0900993
0.0586639
0.00524658
-0.0628069
-0.135011
-0.199714
-0.246333
-0.26732
-0.259463
-0.22434
-0.167951
-0.0996652
-0.0306665
0.0278663
0.0665791
0.0794907
0.0650415
0.0264575
-0.0287009
-0.0898239
-0.145197
-0.184208
-0.199284
-0.187182
-0.149429
-0.0919603
-0.0240661
0.0431536
0.0986067
0.133025
0.140514
0.119602
0.0736072
0.01019
-0.0599379
-0.124961
-0.174171
-0.199915
-0.19888
-0.172536
-0.126754
-0.0707425
-0.0154694
0.0281905
0.0513115
0.048511
0.019047
-0.0327728
-0.0980025
-0.16432
-0.217973
-0.246013
-0.238324
-0.189063
-0.0973799
0.0325236
0.191848
0.368006
0.545685
0.708136
0.838728
0.92284
0.949907
0.91523
3.04707
2.84302
2.62428
2.40858
2.21099
2.04055
1.89851
1.77849
1.66851
1.55402
1.42149
1.26154
1.07127
0.855409
0.626029
0.400558
0.198418
0.0370219
-0.0716553
-0.123172
-0.12117
-0.0765955
-0.00587489
0.071654
0.136729
0.173139
0.170242
0.124743
0.0414066
-0.0675183
-0.184381
-0.289505
-0.365131
-0.398781
-0.385316
-0.327498
-0.235255
-0.123919
-0.011725
0.0830983
0.145248
0.164829
0.139102
0.0732077
-0.0203969
-0.12398
-0.217863
-0.284315
-0.310871
-0.292378
-0.23154
-0.138201
-0.0275832
0.0821883
0.172997
0.229646
0.24234
0.208445
0.133211
0.0292236
-0.0856519
-0.1916
-0.270765
-0.310585
-0.305838
-0.259194
-0.180476
-0.0848843
0.00952191
0.0847802
0.125992
0.123872
0.0765679
-0.00954038
-0.120335
-0.235949
-0.334062
-0.393785
-0.399026
-0.340642
-0.217267
-0.0350917
0.193018
0.448776
0.709892
0.951633
1.14878
1.27837
1.32322
1.27534
3.69702
3.40988
3.10366
2.80846
2.55019
2.34393
2.19068
2.07801
1.98379
1.88179
1.74773
1.56439
1.32546
1.03756
0.720182
0.402587
0.117897
-0.104436
-0.2446
-0.295597
-0.263597
-0.166381
-0.030331
0.113561
0.234431
0.306256
0.311766
0.245337
0.114442
-0.0607735
-0.250632
-0.421753
-0.544358
-0.598071
-0.575022
-0.480215
-0.330045
-0.149397
0.0322366
0.185385
0.285219
0.315411
0.271002
0.159855
0.00226771
-0.172116
-0.330047
-0.441888
-0.487352
-0.458571
-0.360481
-0.20935
-0.0299118
0.148497
0.296546
0.389526
0.411219
0.356774
0.234181
0.0638917
-0.124267
-0.296855
-0.424065
-0.485482
-0.473179
-0.392092
-0.25855
-0.0973722
0.0620331
0.190344
0.26302
0.264248
0.189919
0.0491939
-0.135772
-0.332824
-0.505471
-0.620048
-0.651382
-0.585845
-0.421855
-0.168883
0.154346
0.521802
0.90197
1.25932
1.55608
1.75591
1.83005
1.76418
4.41299
4.00425
3.56716
3.15517
2.8145
2.57097
2.42441
2.35099
2.3103
2.25576
2.14495
1.94733
1.6502
1.26221
0.814684
0.357275
-0.0523746
-0.364177
-0.545903
-0.587491
-0.499894
-0.312044
-0.0660362
0.188661
0.4028
0.534906
0.556919
0.4588
0.251331
-0.0329116
-0.343837
-0.623838
-0.822766
-0.907881
-0.868043
-0.712641
-0.468711
-0.176285
0.117225
0.364451
0.525478
0.57342
0.499002
0.313371
0.049109
-0.243958
-0.508617
-0.695068
-0.770768
-0.724599
-0.565832
-0.321297
-0.0307935
0.258487
0.499352
0.652018
0.689692
0.603189
0.403783
0.12424
-0.185359
-0.467513
-0.672165
-0.766599
-0.73963
-0.600591
-0.376485
-0.107372
0.159256
0.375961
0.502869
0.513365
0.398821
0.17158
-0.133859
-0.464891
-0.76055
-0.966225
-1.04327
-0.97286
-0.754616
-0.403881
0.0519563
0.576488
1.12687
1.65425
2.10291
2.4144
2.53849
2.44752
5.23234
4.63953
3.99461
3.39926
2.93896
2.65841
2.55282
2.57683
2.65679
2.7108
2.66722
2.47361
2.10582
1.57264
0.923463
0.243238
-0.363499
-0.811178
-1.04896
-1.06536
-0.880502
-0.541403
-0.114203
0.322214
0.689347
0.922139
0.975108
0.829768
0.498814
0.0334099
-0.481542
-0.942641
-1.26504
-1.3976
-1.32746
-1.07253
-0.677198
-0.204721
0.268874
0.667652
0.928583
1.00763
0.887145
0.58011
0.137418
-0.356724
-0.799829
-1.10775
-1.22971
-1.1528
-0.894726
-0.499479
-0.029955
0.438148
0.829121
1.08005
1.14693
1.01213
0.688724
0.227809
-0.286034
-0.74984
-1.07905
-1.22261
-1.16754
-0.931662
-0.559304
-0.113869
0.32829
0.690811
0.910279
0.942468
0.769937
0.406507
-0.0951569
-0.647953
-1.14526
-1.49767
-1.64756
-1.5728
-1.2782
-0.790265
-0.149392
0.593914
1.38485
2.16252
2.8472
3.34273
3.55657
3.43091
6.22909
5.34999
4.35084
3.44902
2.80474
2.49399
2.49464
2.72214
3.04064
3.30641
3.40555
3.25077
2.79965
2.05014
1.07701
0.0234306
-0.903609
-1.56038
-1.87073
-1.833
-1.48316
-0.897571
-0.175582
0.555595
1.1694
1.56837
1.67892
1.46807
0.93995
0.171122
-0.69676
-1.46114
-1.98065
-2.17921
-2.05292
-1.6346
-0.996754
-0.234755
0.528271
1.16936
1.59361
1.72917
1.54392
1.04219
0.299806
-0.543004
-1.28573
-1.78827
-1.97505
-1.84193
-1.42119
-0.784668
-0.0271182
0.728828
1.36051
1.77305
1.89452
1.69262
1.17161
0.407528
-0.458836
-1.22606
-1.75337
-1.96471
-1.8559
-1.45935
-0.84744
-0.115739
0.611918
1.21157
1.58729
1.66628
1.41587
0.840415
0.0171053
-0.910986
-1.73868
-2.32081
-2.5754
-2.48933
-2.08026
-1.39692
-0.498285
0.542709
1.66191
2.80463
3.86385
4.67666
5.06349
4.89346
7.56197
6.23352
4.56715
3.12826
2.1905
1.88133
2.10994
2.73645
3.50048
4.14202
4.50956
4.45471
3.9232
2.84972
1.34646
-0.378534
-1.83285
-2.80837
-3.19366
-3.05002
-2.42521
-1.4501
-0.250126
0.958056
1.95889
2.63
2.8456
2.5633
1.72776
0.45152
-1.06098
-2.33222
-3.15841
-3.42857
-3.1989
-2.51277
-1.49507
-0.266251
0.963268
1.98335
2.67434
2.9127
2.65643
1.85081
0.606794
-0.87343
-2.11751
-2.92353
-3.18108
-2.94527
-2.25844
-1.24418
-0.0220281
1.1984
2.20738
2.88515
3.10771
2.83256
2.00445
0.73446
-0.774479
-2.04785
-2.88275
-3.16794
-2.95868
-2.29728
-1.30817
-0.111884
1.07977
2.05469
2.69149
2.86436
2.52977
1.63115
0.280172
-1.31867
-2.68576
-3.61568
-3.99387
-3.87101
-3.27732
-2.31362
-1.05222
0.37884
1.90506
3.56697
5.23525
6.62397
7.37223
7.16332
9.59282
7.60341
4.45578
2.08602
0.671408
0.494527
1.1524
2.55285
4.13675
5.37225
6.22185
6.34511
5.82726
4.26822
1.93529
-1.17022
-3.45146
-4.90624
-5.27818
-4.95985
-3.87162
-2.32634
-0.336422
1.65917
3.22327
4.34763
4.72933
4.45525
3.15025
1.07218
-1.77256
-3.84416
-5.13681
-5.39765
-5.00217
-3.8684
-2.29738
-0.298734
1.69987
3.27124
4.40691
4.8085
4.56001
3.29071
1.25392
-1.54393
-3.58014
-4.84861
-5.09759
-4.69815
-3.56725
-2.00313
-0.014509
1.9724
3.53116
4.65268
5.03754
4.7687
3.47351
1.40541
-1.42942
-3.50115
-4.80381
-5.0833
-4.71266
-3.60723
-2.06735
-0.101474
1.85963
3.38458
4.46365
4.79306
4.45578
3.07319
0.900069
-2.06014
-4.26244
-5.70512
-6.13389
-5.93073
-5.00724
-3.65906
-1.85052
0.0779051
1.95279
4.32007
7.00921
9.49347
11.0593
10.9105
13.159
10.6392
3.22277
-0.332234
-2.63001
-2.09417
-0.874346
2.10514
5.27476
7.15823
8.98011
9.15874
9.23068
6.80119
3.63669
-3.14882
-6.26014
-8.56334
-8.35662
-7.9783
-5.9761
-3.84281
-0.43083
2.98172
5.12092
7.13476
7.55744
7.8318
5.68601
2.7969
-3.59742
-6.47779
-8.60099
-8.31182
-7.86857
-5.85363
-3.71548
-0.331138
3.05172
5.18656
7.19656
7.64044
7.93358
5.83579
2.99697
-3.31119
-6.14833
-8.24182
-7.94788
-7.50436
-5.49996
-3.37341
-0.0045634
3.36291
5.48451
7.48096
7.90866
8.18276
6.0555
3.18039
-3.18329
-6.06199
-8.19832
-7.93493
-7.52481
-5.54286
-3.44004
-0.0842799
3.26747
5.35647
7.31522
7.68173
7.88696
5.65352
2.65332
-3.89307
-6.93301
-9.2546
-9.18392
-9.02774
-7.34874
-5.66743
-2.82147
-0.145927
1.29147
4.6097
9.07823
13.6856
17.2152
17.7341
19.9028
20.7202
-3.57514
-4.56192
-10.012
-5.66775
-5.43489
1.38368
8.2649
9.03297
14.1047
12.1261
16.2363
10.3926
10.5524
-10.4182
-10.2324
-15.8346
-11.6821
-13.335
-8.26927
-7.20048
-0.525952
6.13798
7.19922
12.2133
10.5992
14.6935
9.29224
9.56918
-10.4823
-10.2017
-15.539
-11.4479
-12.9982
-8.01629
-6.92807
-0.361397
6.20077
7.28167
12.2415
10.6895
14.7501
9.448
9.73586
-10.0768
-9.78745
-15.073
-11.0137
-12.5583
-7.60866
-6.5327
0.00728144
6.54737
7.61804
12.5682
11.0009
15.0547
9.71433
9.9788
-9.95567
-9.69198
-15.0486
-10.998
-12.6006
-7.65272
-6.61714
-0.0614721
6.49352
7.51575
12.4595
10.8025
14.8297
9.33784
9.51297
-10.7754
-10.6381
-16.249
-12.3571
-14.3177
-9.69359
-9.35297
-3.54706
1.41313
-2.07828
3.24292
10.9473
19.4297
27.7067
32.3442
29.5061
66.9875
-43.9413
-2.36823
-31.4994
-3.32271
-19.4804
0.570489
20.0565
4.70874
29.3802
6.32381
37.5736
5.33747
47.8942
-48.1544
-5.87182
-37.1544
-6.6493
-28.3685
-4.80845
-18.632
-0.607424
17.3605
3.58398
26.8347
5.41978
35.2273
4.72074
45.6132
-46.646
-5.83669
-36.0543
-6.46061
-27.5346
-4.57225
-18.0297
-0.385204
17.2428
3.79128
26.6636
5.65661
35.0495
5.01128
45.4202
-45.7879
-5.39743
-35.3594
-6.00803
-26.9623
-4.13738
-17.5582
0.020974
17.6098
4.16733
27.0425
6.00124
35.4565
5.30479
45.8663
-45.8105
-5.22584
-35.442
-5.9176
-27.1056
-4.12572
-17.7399
-0.0344421
17.69
4.03137
27.1119
5.7414
35.483
4.86492
45.8432
-47.0679
-6.06286
-36.9247
-7.10012
-29.087
-5.86768
-20.906
-3.05239
15.145
-18.1362
-1.5537
11.6981
25.4715
43.4409
72.337
28879
28839
28798.9
28758.7
28718.4
28678.2
28638
28597.9
28557.9
28517.9
28478.1
28438.4
28398.8
28359.3
28319.7
0.215611
0.170962
0.114408
0.0521268
-0.00957919
-0.0651481
-0.110319
-0.142359
-0.160025
-0.163353
-0.153382
-0.131863
-0.101024
-0.0633761
-0.0215891
0.377842
0.2979
0.196831
0.0860731
-0.0229111
-0.120233
-0.198535
-0.253305
-0.282697
-0.287083
-0.268505
-0.230155
-0.175949
-0.110222
-0.0375187
0.570674
0.446016
0.288993
0.118291
-0.0478642
-0.194299
-0.310251
-0.3896
-0.43035
-0.433756
-0.403385
-0.34429
-0.26239
-0.164041
-0.0557824
0.811539
0.626489
0.394828
0.145955
-0.0925419
-0.298854
-0.458575
-0.564496
-0.615349
-0.61421
-0.566989
-0.481232
-0.365282
-0.227769
-0.0773534
1.12432
0.853561
0.517861
0.163232
-0.169416
-0.450008
-0.660708
-0.794467
-0.852347
-0.840752
-0.769135
-0.64837
-0.489738
-0.304401
-0.103217
1.5431
1.14555
0.659805
0.158513
-0.298358
-0.671068
-0.939793
-1.10032
-1.15883
-1.12732
-1.02043
-0.853378
-0.640904
-0.396881
-0.134329
2.11824
1.52572
0.817274
0.109357
-0.511479
-0.996125
-1.32708
-1.50822
-1.55533
-1.48928
-1.3319
-1.10381
-0.82362
-0.507894
-0.171549
2.92663
2.0218
0.974186
-0.0269
-0.860809
-1.47489
-1.8642
-2.05016
-2.06499
-1.94258
-1.71409
-1.40635
-1.04187
-0.639527
-0.215523
4.0897
2.66064
1.08454
-0.330358
-1.42999
-2.17843
-2.6047
-2.76325
-2.7119
-2.50198
-2.17553
-1.76564
-1.298
-0.792818
-0.266539
5.80497
3.44647
1.03366
-0.94911
-2.35038
-3.20416
-3.61292
-3.68627
-3.51737
-3.1779
-2.72043
-2.18267
-1.59168
-0.96721
-0.324355
8.39685
4.28657
0.552682
-2.1494
-3.81829
-4.67495
-4.95655
-4.85156
-4.49344
-3.97185
-3.34561
-2.65294
-1.91885
-1.15999
-0.388026
12.3568
4.75028
-0.960132
-4.38291
-6.09846
-6.72081
-6.68681
-6.26998
-5.63297
-4.87048
-4.03721
-3.16465
-2.27078
-1.36587
-0.455789
18.0573
3.31782
-4.76057
-8.32369
-9.47187
-9.42304
-8.79991
-7.90861
-6.898
-5.83989
-4.76813
-3.69765
-2.63377
-1.57692
-0.52505
22.9118
-4.7758
-13.0763
-14.6794
-14.0423
-12.6996
-11.1812
-9.66657
-8.21056
-6.82296
-5.49779
-4.22407
-2.98974
-1.783
-0.592541
0.536273
1.61618
2.71863
3.86025
5.06036
6.34256
7.73716
9.28466
11.041
13.0849
15.5246
18.4882
22.0047
25.2871
22.7132
0.546731
1.6479
2.77271
3.93877
5.1668
6.48271
7.92082
9.52928
11.3797
13.5856
16.3427
20.0252
25.4687
34.9566
56.3277
0.551838
1.6632
2.79815
3.97426
5.21222
6.53799
7.98619
9.60589
11.4714
13.7038
16.5181
20.3395
26.1243
36.3742
58.7412
0.551607
1.66213
2.79502
3.9668
5.19666
6.50826
7.93246
9.5118
11.3084
13.4178
15.9944
19.2906
23.6802
29.3817
33.9933
0.546303
1.64552
2.76489
3.91901
5.12435
6.40036
7.771
9.26686
10.928
12.8074
14.9711
17.4826
20.3263
23.1499
24.7871
0.53641
1.61491
2.71063
3.83566
5.00297
6.22676
7.5226
8.9071
10.3962
11.9996
13.706
15.4439
16.987
17.7428
16.2697
0.522574
1.57235
2.63603
3.72295
4.84238
6.00315
7.21266
8.47474
9.78486
11.1202
12.419
13.5402
14.1945
13.8837
12.2311
0.505526
1.52013
2.5453
3.58768
4.6531
5.7457
6.86625
8.00905
9.15607
10.2661
11.2552
11.9606
12.0719
10.9563
6.93794
0.48601
1.46058
2.44262
3.43642
4.44496
5.46885
6.5044
7.54047
8.55298
9.4961
10.2884
10.7935
10.8012
10.0445
8.49025
0.464722
1.39585
2.33179
3.27493
4.22618
5.18391
6.14222
7.08827
7.99813
8.83087
9.521
9.972
10.0613
9.6867
8.91716
0.442269
1.32778
2.21596
3.10781
4.00291
4.89859
5.78859
6.66123
7.49687
8.26473
8.91973
9.40172
9.64347
9.60323
9.35656
0.419143
1.25785
2.09761
2.93844
3.77925
4.61722
5.44702
6.25991
7.04272
7.777
8.43864
8.99832
9.42158
9.66317
9.63626
0.395729
1.18719
1.97851
2.76909
3.55758
4.34154
5.11722
5.87951
6.62231
7.33974
8.02841
8.6897
9.32591
9.90964
10.2973
0.372314
1.11663
1.85993
2.60122
3.33907
4.07163
4.79674
5.51267
6.21954
6.92249
7.63723
8.39856
9.26672
10.2923
11.203
0.349115
1.04679
1.74276
2.43573
3.12426
3.8069
4.48267
5.15213
5.81952
6.49709
7.21374
8.03327
9.09827
10.7547
13.9743
0.3263
0.978143
1.62769
2.27334
2.91354
3.54695
4.17301
4.79306
5.41246
6.04459
6.71884
7.49758
8.51913
10.1318
13.4117
0.304014
0.911093
1.51532
2.11476
2.70756
3.29212
3.86755
4.43448
4.99658
5.56288
6.15143
6.79331
7.52956
8.35113
8.77595
0.282388
0.846033
1.40627
1.9608
2.50732
3.04366
3.568
4.07928
4.57781
5.06577
5.54703
6.02354
6.48081
6.84606
6.93741
0.261549
0.783342
1.3012
1.81241
2.31417
2.80355
3.27753
3.73297
4.16641
4.57334
4.94595
5.2672
5.496
5.53125
5.11096
0.241616
0.723391
1.20075
1.6706
2.12962
2.57415
2.99996
3.40196
3.77345
4.10477
4.38059
4.57511
4.64563
4.53285
4.2239
0.222697
0.66651
1.10552
1.53632
1.95516
2.35776
2.73895
3.09216
3.40841
3.67478
3.87171
3.96917
3.9226
3.67073
3.12152
0.204879
0.612971
1.016
1.41034
1.79199
2.15625
2.4974
2.80803
3.07804
3.29305
3.43192
3.4633
3.34217
3.01512
2.49833
0.188218
0.562953
0.932515
1.2932
1.6409
1.97081
2.27707
2.55213
2.78589
2.96422
3.06682
3.06336
2.90477
2.49131
1.51126
0.17274
0.516533
0.855199
1.18509
1.50218
1.80182
2.07841
2.32494
2.53225
2.68802
2.77539
2.77117
2.64439
2.36099
1.94258
0.158434
0.473676
0.783983
1.08588
1.37558
1.64883
1.90065
2.12501
2.31442
2.45933
2.54758
2.56413
2.49279
2.32444
2.08076
0.145259
0.434249
0.718614
0.995145
1.26043
1.51075
1.74197
1.94937
2.1275
2.27002
2.36959
2.41817
2.40856
2.34025
2.23906
0.133147
0.398036
0.658692
0.912229
1.15568
1.38595
1.59984
1.79407
1.96534
2.11055
2.22702
2.31263
2.36514
2.3789
2.33275
0.122012
0.364767
0.603718
0.836328
1.06008
1.27253
1.47139
1.65472
1.8213
1.97107
2.10592
2.23008
2.34867
2.45917
2.53018
0.111758
0.334144
0.553152
0.766584
0.972349
1.16856
1.35372
1.52704
1.68893
1.84197
1.99226
2.15144
2.33782
2.56691
2.77127
0.102291
0.305869
0.506464
0.702173
0.891259
1.07228
1.2443
1.40729
1.56274
1.7148
1.87246
2.05391
2.29736
2.69184
3.48346
0.0935206
0.27967
0.463172
0.642367
0.815779
0.982252
1.14117
1.2928
1.43891
1.58377
1.73614
1.91337
2.15202
2.54103
3.35046
0.0853708
0.255311
0.422877
0.586584
0.745126
0.897483
1.0431
1.18216
1.31596
1.44755
1.58257
1.7302
1.90229
2.09829
2.19991
0.0777784
0.232605
0.385264
0.534395
0.678775
0.817403
0.949606
1.07518
1.19456
1.30896
1.42026
1.53007
1.63599
1.72113
1.74147
0.0706941
0.211406
0.350106
0.48551
0.616426
0.741793
0.860721
0.972516
1.07664
1.17254
1.259
1.33265
1.38413
1.38898
1.28199
0.0640801
0.191607
0.31724
0.439748
0.557938
0.670663
0.7768
0.875186
0.964456
1.04268
1.10665
1.15065
1.16469
1.13451
1.05731
0.0579072
0.173124
0.286548
0.396989
0.503252
0.604115
0.698269
0.784198
0.859951
0.922726
0.968188
0.989456
0.975966
0.912716
0.776071
0.0521503
0.155888
0.257931
0.357135
0.452322
0.542233
0.625458
0.700287
0.76447
0.81481
0.846539
0.852416
0.821812
0.741901
0.61683
0.0467853
0.13983
0.231288
0.320077
0.40506
0.485001
0.558485
0.623778
0.67861
0.71983
0.742854
0.740722
0.70191
0.602458
0.366455
0.0417863
0.124875
0.206502
0.285665
0.361303
0.43226
0.497207
0.554541
0.602212
0.637494
0.656649
0.654511
0.624129
0.557851
0.461159
0.0371242
0.110936
0.183431
0.253704
0.320803
0.383697
0.441224
0.49202
0.534426
0.566367
0.585239
0.587924
0.571285
0.534372
0.484877
0.0327657
0.0979135
0.161905
0.22395
0.283227
0.338867
0.38992
0.435333
0.473916
0.504322
0.52508
0.534764
0.532528
0.519639
0.503325
0.0286742
0.0856954
0.141732
0.19612
0.248182
0.297225
0.342538
0.383396
0.41909
0.448984
0.47262
0.489889
0.50118
0.507292
0.508499
0.0248104
0.0741621
0.122706
0.169908
0.215237
0.258179
0.298254
0.33505
0.3683
0.397998
0.42459
0.449173
0.473435
0.498362
0.519752
0.021134
0.0631904
0.104615
0.144999
0.183953
0.221128
0.25625
0.289172
0.319981
0.349177
0.377963
0.408688
0.445239
0.491896
0.54172
0.0176048
0.0526583
0.0872485
0.121084
0.153906
0.185508
0.215778
0.244766
0.272789
0.300645
0.329996
0.364165
0.410032
0.483241
0.624659
0.0141842
0.0424486
0.070407
0.097876
0.124708
0.150814
0.176202
0.201032
0.225717
0.251082
0.278688
0.311525
0.355847
0.427229
0.575388
0.0108361
0.0324522
0.0539064
0.0751117
0.0960156
0.116621
0.137014
0.157404
0.178176
0.199967
0.223754
0.250918
0.282879
0.317911
0.330159
0.00752696
0.0225687
0.0375796
0.0525578
0.0675323
0.0825777
0.097832
0.113514
0.129932
0.147469
0.16648
0.186985
0.207784
0.224427
0.227885
0.00422643
0.0127071
0.0212759
0.0300074
0.0390008
0.0483905
0.0583543
0.0691141
0.0809145
0.0939497
0.108173
0.122851
0.135582
0.140105
0.120414
0.000906681
0.00278456
0.00485959
0.00727548
0.0101947
0.0138054
0.0183249
0.023993
0.031041
0.039608
0.049552
0.0600741
0.069084
0.0726038
0.0671748
-0.00245784
-0.00727486
-0.0117934
-0.0158059
-0.0190914
-0.0214105
-0.0225018
-0.0220859
-0.0198865
-0.0156887
-0.00946844
-0.00165052
0.00640116
0.0113204
0.00412909
-0.00589091
-0.0175417
-0.028798
-0.0393924
-0.0490492
-0.0574796
-0.0643756
-0.0694035
-0.0722019
-0.0723898
-0.0695979
-0.0635366
-0.0541051
-0.0415509
-0.0270573
-0.00941507
-0.0280827
-0.0462629
-0.0636308
-0.0798594
-0.0946153
-0.107548
-0.118271
-0.126331
-0.131161
-0.131999
-0.127764
-0.11678
-0.0957685
-0.0546407
-0.0130523
-0.0389627
-0.0642927
-0.0886614
-0.111694
-0.133019
-0.152256
-0.168989
-0.182707
-0.192707
-0.197924
-0.196679
-0.18642
-0.163957
-0.129554
-0.0168245
-0.0502464
-0.0829914
-0.114621
-0.144717
-0.172875
-0.198707
-0.221803
-0.241667
-0.257579
-0.268341
-0.271857
-0.264539
-0.240439
-0.187924
-0.0207546
-0.062001
-0.102466
-0.14165
-0.179086
-0.214351
-0.247062
-0.276866
-0.303377
-0.326033
-0.343794
-0.354563
-0.354318
-0.336657
-0.298246
-0.0248676
-0.0742996
-0.122831
-0.169894
-0.214968
-0.257603
-0.297441
-0.334221
-0.36777
-0.397894
-0.424108
-0.444924
-0.456197
-0.447293
-0.390672
-0.0291915
-0.0872246
-0.144219
-0.199523
-0.252547
-0.302804
-0.349947
-0.393828
-0.434547
-0.472478
-0.50818
-0.541922
-0.572097
-0.591073
-0.580928
-0.033759
-0.100872
-0.166784
-0.230738
-0.292053
-0.350172
-0.404726
-0.455639
-0.503269
-0.548619
-0.593623
-0.641409
-0.695786
-0.755088
-0.770457
-0.0386081
-0.115356
-0.190711
-0.26379
-0.333785
-0.400022
-0.462042
-0.519739
-0.573584
-0.625012
-0.677147
-0.736333
-0.81607
-0.949629
-1.24022
-0.0437832
-0.130809
-0.216223
-0.298987
-0.378132
-0.452807
-0.522368
-0.586523
-0.645588
-0.700928
-0.755789
-0.817
-0.898994
-1.03514
-1.31523
-0.0493345
-0.147383
-0.243578
-0.336704
-0.425591
-0.509153
-0.586458
-0.656855
-0.720192
-0.77719
-0.830038
-0.883254
-0.944331
-1.02072
-1.09241
-0.0553172
-0.165248
-0.273067
-0.377369
-0.476756
-0.569854
-0.655356
-0.732101
-0.799213
-0.85635
-0.90405
-0.944067
-0.979054
-1.00959
-1.02522
-0.0617896
-0.184582
-0.305004
-0.421455
-0.532295
-0.635839
-0.730348
-0.814049
-0.885176
-0.94208
-0.983417
-1.00839
-1.01689
-1.00885
-0.981417
-0.0688097
-0.205563
-0.339705
-0.469444
-0.592911
-0.708108
-0.81286
-0.904745
-0.981033
-1.03864
-1.07417
-1.08419
-1.06623
-1.0216
-0.963066
-0.0764321
-0.228362
-0.377468
-0.521798
-0.659279
-0.787643
-0.90432
-1.00629
-1.08988
-1.15055
-1.18265
-1.17944
-1.13411
-1.04402
-0.923087
-0.0847046
-0.253125
-0.418554
-0.578915
-0.731988
-0.875307
-1.00601
-1.12061
-1.21467
-1.28233
-1.31567
-1.30397
-1.23311
-1.08788
-0.878309
-0.0936652
-0.279968
-0.463165
-0.641103
-0.811482
-0.971745
-1.1189
-1.24922
-1.35782
-1.43796
-1.47999
-1.4696
-1.38378
-1.17646
-0.704983
-0.103341
-0.308972
-0.511434
-0.708548
-0.898014
-1.07731
-1.24349
-1.39292
-1.52075
-1.62008
-1.68076
-1.68763
-1.61887
-1.44851
-1.1834
-0.113748
-0.340182
-0.563424
-0.781315
-0.991624
-1.19198
-1.37973
-1.55166
-1.70349
-1.82907
-1.91891
-1.95821
-1.92454
-1.78639
-1.49498
-0.124893
-0.373613
-0.619139
-0.859355
-1.09216
-1.31543
-1.52698
-1.72436
-1.9045
-2.06291
-2.19221
-2.2795
-2.30279
-2.23075
-2.05421
-0.13678
-0.409265
-0.678547
-0.942556
-1.19932
-1.44704
-1.6841
-1.90907
-2.12062
-2.31699
-2.49471
-2.64527
-2.74729
-2.74772
-2.50998
-0.149414
-0.447147
-0.741626
-1.03079
-1.31279
-1.58608
-1.84962
-2.10313
-2.34732
-2.58407
-2.8161
-3.04481
-3.26239
-3.43015
-3.45282
-0.162811
-0.487294
-0.808401
-1.12403
-1.43232
-1.73189
-2.02213
-2.30369
-2.57922
-2.85445
-3.13984
-3.45212
-3.81214
-4.21338
-4.40421
-0.176999
-0.529789
-0.878993
-1.22236
-1.55792
-1.88421
-2.2007
-2.50848
-2.81134
-3.11783
-3.44495
-3.82632
-4.33334
-5.14282
-6.80232
-0.192028
-0.574781
-0.953645
-1.32613
-1.68997
-2.04334
-2.38535
-2.7167
-3.04099
-3.36693
-3.71244
-4.11334
-4.64455
-5.48205
-7.11406
-0.207965
-0.622477
-1.03274
-1.43592
-1.82929
-2.2104
-2.57742
-2.92984
-3.26952
-3.60247
-3.94151
-4.30992
-4.74315
-5.26963
-5.75334
-0.224888
-0.673133
-1.11675
-1.55253
-1.97715
-2.38725
-2.77966
-3.15187
-3.50277
-3.83381
-4.15025
-4.46153
-4.77706
-5.08701
-5.31364
-0.242875
-0.727009
-1.20621
-1.67689
-2.1351
-2.57641
-2.99596
-3.38871
-3.74983
-4.07533
-4.36262
-4.61024
-4.81491
-4.96234
-5.00572
-0.261986
-0.784318
-1.30159
-1.80994
-2.30481
-2.78068
-3.23089
-3.64755
-4.02167
-4.34341
-4.60257
-4.78884
-4.89257
-4.91
-4.87029
-0.282236
-0.845146
-1.40317
-1.95235
-2.48773
-3.0028
-3.48914
-3.93596
-4.32989
-4.655
-4.89317
-5.0248
-5.0302
-4.89739
-4.66151
-0.303573
-0.909373
-1.51088
-2.10437
-2.68475
-3.24488
-3.77484
-4.26112
-4.68594
-5.02699
-5.2578
-5.34847
-5.26386
-4.95641
-4.42418
-0.325845
-0.976584
-1.62417
-2.26551
-2.89584
-3.50793
-4.0909
-4.62898
-5.10019
-5.47555
-5.71977
-5.79388
-5.65231
-5.17158
-3.62288
-0.34878
-1.04598
-1.74181
-2.43428
-3.11962
-3.79121
-4.43814
-5.04328
-5.58101
-6.01522
-6.29989
-6.3891
-6.27631
-6.12842
-6.77791
-0.371963
-1.11634
-1.86179
-2.60801
-3.35295
-4.09163
-4.81441
-5.50441
-6.13374
-6.65874
-7.01578
-7.12462
-6.92472
-6.53155
-6.83212
-0.394831
-1.18596
-1.98124
-2.78264
-3.59063
-4.40309
-5.21346
-6.00768
-6.75892
-7.41892
-7.90403
-8.07456
-7.70738
-6.45298
-3.61846
-0.416683
-1.25268
-2.09645
-2.9527
-3.82521
-4.71599
-5.62374
-6.54081
-7.44747
-8.30054
-9.01077
-9.39791
-9.10618
-7.47174
-3.46204
-0.436707
-1.31401
-2.203
-3.11146
-4.04709
-5.01713
-6.02755
-7.08118
-8.17324
-9.28137
-10.3419
-11.1927
-11.4374
-10.14
-5.32951
-0.454029
-1.36723
-2.29602
-3.25137
-4.24508
-5.29021
-6.40137
-7.59484
-8.88785
-10.2953
-11.8185
-13.4084
-14.8397
-15.2478
-11.2585
-0.467779
-1.40962
-2.37061
-3.36463
-4.40737
-5.51745
-6.71804
-8.03939
-9.523
-11.2288
-13.2489
-15.7342
-18.9525
-23.4093
-30.0538
-12.0625
-27.7877
-26.2661
-22.4254
-18.8602
-15.8737
-13.3746
-11.2371
-9.36136
-7.67488
-6.1255
-4.67486
-3.29371
-1.95868
-0.650033
-120.374
-62.6654
-40.3876
-29.3977
-22.8551
-18.4125
-15.1048
-12.4716
-10.2668
-8.34697
-6.62218
-5.0325
-3.53538
-2.09856
-0.695842
-133.823
-72.9382
-46.6703
-33.2817
-25.3916
-20.163
-16.3666
-13.4086
-10.9744
-8.8836
-7.02504
-5.32588
-3.73517
-2.21476
-0.733985
-73.2961
-59.1712
-44.0089
-33.3474
-26.0797
-20.9191
-17.0462
-13.9818
-11.4436
-9.25892
-7.3172
-5.54396
-3.88613
-2.30345
-0.763236
-51.6197
-46.1246
-38.2221
-31.0562
-25.3046
-20.7808
-17.1643
-14.1897
-11.6673
-9.46551
-7.49236
-5.68191
-3.9849
-2.36265
-0.782946
-32.6954
-34.7499
-31.9237
-27.7828
-23.677
-20.0126
-16.8365
-14.0837
-11.6685
-9.51331
-7.55453
-5.74109
-4.03177
-2.39231
-0.793062
-24.0821
-26.7646
-26.5383
-24.485
-21.7429
-18.9053
-16.2149
-13.7431
-11.489
-9.42475
-7.51578
-5.72797
-4.03011
-2.39405
-0.794065
-13.3804
-20.7993
-22.4216
-21.6657
-19.875
-17.6958
-15.4414
-13.2515
-11.1776
-9.22838
-7.3929
-5.65239
-3.98555
-2.37074
-0.786835
-16.1107
-18.8593
-19.9564