/*--------------------------------*- C++ -*----------------------------------*\
| =========                 |                                                 |
| \\      /  F ield         | OpenFOAM: The Open Source CFD Toolbox           |
|  \\    /   O peration     | Version:  5.x                                   |
|   \\  /    A nd           | Web:      www.OpenFOAM.org                      |
|    \\/     M anipulation  |                                                 |
\*---------------------------------------------------------------------------*/
FoamFile
{
    version     2.0;
    format      ascii;
    class       volScalarField;
    location    "4.4";
    object      gradTx;
}
// * * * * * * * * * * * * * * * * * * * * * * * * * * * * * * * * * * * * * //

dimensions      [0 -1 0 1 0 0 0];

internalField   nonuniform List<scalar> 
3200
(
45.2092
3.71224
1.64881
1.54025
0.814915
0.771321
0.466629
0.44717
0.293713
0.282608
0.17075
0.166608
0.180602
0.180752
0.173073
0.172232
0.159472
0.158357
0.144256
0.143075
0.128809
0.127641
0.113854
0.11276
0.100232
0.0993458
0.090182
0.0901773
0.0951289
0.164863
0.0825643
0.0553215
0.0534933
0.0417501
0.0409233
0.0333313
0.0327729
0.0270609
0.0266316
0.0220766
0.0217302
0.0179923
0.0177046
0.014555
0.0143075
0.011534
0.0113063
0.00863337
0.0083934
0.00525073
0.00511939
0.00512531
0.00507787
0.00401081
0.00389744
0.00224153
0.00207558
-0.000237614
-0.000475584
-0.00384007
-0.00420296
-0.00947508
-0.0100806
-0.0191556
-0.0203034
-0.0381546
-0.0408252
-0.0839831
-0.0928985
-0.238598
-0.616942
-0.43597
-0.681259
-0.71261
-1.26767
-1.24206
-0.0557714
-0.00752616
-0.0015248
-52.9503
47.8939
3.10552
1.57738
1.35456
0.774036
0.680965
0.436234
0.394627
0.271686
0.248094
0.160254
0.151411
0.160903
0.161111
0.155142
0.153371
0.143306
0.140946
0.129786
0.127283
0.115986
0.11351
0.102594
0.100278
0.0903823
0.0885209
0.0814582
0.0816121
0.0884159
0.137459
0.0766598
0.0516747
0.0476034
0.0380751
0.0363021
0.0302496
0.029062
0.0245254
0.023614
0.0199998
0.0192647
0.0162996
0.0156892
0.0131905
0.0126653
0.0104639
0.00998035
0.00785723
0.00735075
0.00489818
0.00461912
0.00457875
0.00447507
0.0036328
0.00339254
0.0020794
0.00172704
-0.000111055
-0.000616894
-0.00329406
-0.00406629
-0.00826899
-0.00955996
-0.0168196
-0.0192776
-0.0336728
-0.0394581
-0.0750118
-0.094917
-0.226954
-0.517421
-0.414615
-0.601735
-0.666284
-1.08456
-1.03095
-0.121792
-0.0208887
-0.00438459
-54.746
50.5619
2.57668
1.45374
1.18318
0.713658
0.596676
0.397715
0.345337
0.245686
0.216151
0.146598
0.13548
0.141575
0.141718
0.137044
0.134842
0.126832
0.123886
0.11497
0.111843
0.10281
0.0997163
0.0909905
0.0880986
0.0802114
0.0779041
0.0724458
0.0727809
0.0800134
0.114449
0.0693229
0.0471914
0.0419318
0.0340898
0.0318521
0.0269734
0.025485
0.0218448
0.0207045
0.0178079
0.0168885
0.0145127
0.0137493
0.011747
0.01109
0.00932502
0.00871997
0.00701641
0.00638593
0.00445869
0.00410929
0.0040347
0.00390181
0.00323071
0.00293056
0.00187883
0.00143792
-3.77885e-05
-0.000671353
-0.00282424
-0.0037924
-0.00717937
-0.00880062
-0.0146756
-0.0177743
-0.0295355
-0.0369003
-0.0666665
-0.0924502
-0.208973
-0.43363
-0.381664
-0.527114
-0.605809
-0.920329
-0.854049
-0.155483
-0.0308753
-0.00672843
-56.5415
53.2091
2.11341
1.296
1.01977
0.639178
0.515667
0.353333
0.297939
0.21688
0.185809
0.130605
0.118861
0.122486
0.122517
0.118847
0.116546
0.110155
0.107066
0.099922
0.0966397
0.0893964
0.0861482
0.0791536
0.0761196
0.0698173
0.0674133
0.0632017
0.0636739
0.0705228
0.0946212
0.0610662
0.0420332
0.0363635
0.0298804
0.0275077
0.0235615
0.0219941
0.0190643
0.0178652
0.0155368
0.0145704
0.0126613
0.0118589
0.0102497
0.00955908
0.00813974
0.00750353
0.00613266
0.00547298
0.00395607
0.00358846
0.00349299
0.00335007
0.00281378
0.00249863
0.00165382
0.00119019
1.78936e-06
-0.000665043
-0.00240182
-0.00342176
-0.00616038
-0.00787114
-0.0126426
-0.0159245
-0.025574
-0.0334464
-0.0584805
-0.0863538
-0.186667
-0.360904
-0.340815
-0.455164
-0.535901
-0.771329
-0.702444
-0.166216
-0.0368434
-0.00832724
-58.3369
55.835
1.70427
1.11662
0.860522
0.554416
0.43621
0.304673
0.251567
0.186076
0.156432
0.112874
0.101627
0.10354
0.103465
0.100595
0.0984128
0.0933454
0.0904071
0.0847199
0.0815947
0.0758231
0.07273
0.0671584
0.0642712
0.0592674
0.0569949
0.0537702
0.0543118
0.0603422
0.0770998
0.0522286
0.0363405
0.0308277
0.0255066
0.0232262
0.0200544
0.0185576
0.0162145
0.0150711
0.0132113
0.01229
0.0107656
0.0100008
0.00871569
0.00805727
0.00692312
0.00631645
0.00522045
0.0045943
0.00340747
0.00305675
0.00295317
0.00281406
0.00238799
0.00208788
0.00141356
0.000971443
2.05022e-05
-0.000615937
-0.00200807
-0.00298237
-0.0051825
-0.00681923
-0.0106692
-0.0138201
-0.0216837
-0.0293061
-0.0501809
-0.0773599
-0.161403
-0.295952
-0.294589
-0.384558
-0.459806
-0.634502
-0.569533
-0.160675
-0.0387773
-0.00905811
-60.1319
58.4407
1.33881
0.923978
0.703278
0.462137
0.357287
0.252876
0.20569
0.153837
0.127611
0.0938503
0.0838672
0.0846742
0.0845242
0.0823154
0.0803953
0.0764511
0.0738586
0.0694153
0.0666555
0.0621428
0.059411
0.0550559
0.0525076
0.0486082
0.0466146
0.0441881
0.0447302
0.0497325
0.0612435
0.0430317
0.0302328
0.0252842
0.0210111
0.0189804
0.0164803
0.0151551
0.0133167
0.0123056
0.0108481
0.0100338
0.00883951
0.00816343
0.00715657
0.00657447
0.00568539
0.00514894
0.00428944
0.00373804
0.00282542
0.00251514
0.00241476
0.00228952
0.00195717
0.0016921
0.00116401
0.000773049
2.66328e-05
-0.000536605
-0.00163104
-0.00249396
-0.00422717
-0.00567879
-0.00872385
-0.0115271
-0.0178029
-0.0246356
-0.0416291
-0.0660914
-0.13412
-0.236436
-0.244711
-0.314541
-0.379733
-0.507261
-0.450378
-0.143655
-0.0370241
-0.00889615
-61.9266
61.0287
1.00757
0.723568
0.546851
0.364407
0.278345
0.19879
0.160001
0.120573
0.0990921
0.0738755
0.0656755
0.0658464
0.0656659
0.0640245
0.0624588
0.0595028
0.0573843
0.0540435
0.0517864
0.0483912
0.0461569
0.042881
0.040798
0.0378727
0.0362517
0.0344872
0.0349702
0.0388625
0.0465762
0.0336183
0.0238111
0.0197137
0.0164259
0.0147533
0.0128593
0.011773
0.0103858
0.00955795
0.0084593
0.00779273
0.00689268
0.00633931
0.00558044
0.00510394
0.00443355
0.00399434
0.00334609
0.00289623
0.00221927
0.00196513
0.00187735
0.00177326
0.00152365
0.00130684
0.000908979
0.000588872
2.54345e-05
-0.000436027
-0.00126327
-0.00197073
-0.0032831
-0.00447461
-0.00678813
-0.00909522
-0.0138999
-0.0195587
-0.0327787
-0.0530803
-0.105465
-0.180681
-0.192369
-0.24471
-0.297167
-0.387397
-0.341216
-0.118632
-0.0321307
-0.00789906
-63.7211
63.6025
0.701999
0.518867
0.390654
0.262822
0.199144
0.143073
0.114337
0.086592
0.0707225
0.05322
0.047149
0.0470327
0.046866
0.0457306
0.0445779
0.042521
0.0409588
0.0386283
0.0369629
0.0345931
0.0329445
0.0306585
0.0291222
0.0270852
0.0258945
0.0246965
0.0250738
0.0278397
0.0327357
0.0240788
0.0171609
0.0141109
0.0117761
0.0105351
0.00920587
0.00840293
0.00743248
0.00682112
0.00605315
0.00556099
0.00493197
0.0045234
0.003993
0.00364117
0.00317245
0.0028481
0.0023948
0.0020635
0.00159621
0.00140847
0.00134059
0.00126283
0.00108881
0.000928825
0.000650832
0.000414427
2.01558e-05
-0.000320819
-0.000900291
-0.00142331
-0.00234387
-0.00322556
-0.00485267
-0.00656344
-0.00996277
-0.0141794
-0.0236449
-0.0387858
-0.075897
-0.127468
-0.138402
-0.174874
-0.213089
-0.27299
-0.239111
-0.0881651
-0.0247466
-0.0061897
-65.5153
66.1657
0.414227
0.311969
0.234441
0.158671
0.119639
0.0862628
0.0686329
0.0521355
0.0424181
0.0321073
0.0283843
0.028221
0.0281049
0.0274373
0.0267332
0.0255194
0.0245641
0.0231865
0.0221676
0.0207663
0.0197576
0.018406
0.0174663
0.0162638
0.0155376
0.0148428
0.0150818
0.0167317
0.0194374
0.0144698
0.0103561
0.00847938
0.00708256
0.00632036
0.00553142
0.00503957
0.00446482
0.00409055
0.00363597
0.00333472
0.00296243
0.00271235
0.00239842
0.00218306
0.00190556
0.00170701
0.00143863
0.0012362
0.000961965
0.000847006
0.000804215
0.000756238
0.000653415
0.000555525
0.000391021
0.000246296
1.27443e-05
-0.000196072
-0.000539573
-0.000859992
-0.00140619
-0.00194669
-0.00291386
-0.00396411
-0.00599292
-0.00859018
-0.0142842
-0.0236126
-0.0457504
-0.0758807
-0.0834136
-0.104968
-0.128145
-0.162333
-0.141688
-0.0541973
-0.015568
-0.00393913
-67.3092
68.7226
0.136924
0.104082
0.0781578
0.0530498
0.039907
0.0288229
0.0228838
0.0174079
0.0141376
0.0107311
0.00947721
0.00940736
0.00936593
0.00914555
0.00890886
0.00850754
0.00818622
0.00773033
0.00738758
0.00692376
0.00658442
0.0061371
0.00582102
0.0054233
0.0051794
0.00495172
0.0050335
0.00558146
0.00644602
0.00482667
0.00346179
0.0028287
0.00236363
0.00210672
0.00184509
0.00167953
0.00148913
0.00136319
0.00121265
0.00111128
0.000987998
0.000903853
0.000799895
0.000727426
0.000635523
0.000568709
0.000479822
0.000411768
0.000321345
0.000282657
0.000268051
0.000251842
0.00021782
0.000184888
0.000130417
8.17163e-05
4.34274e-06
-6.5938e-05
-0.000179778
-0.00028764
-0.000468742
-0.000650748
-0.000971725
-0.00132565
-0.00200033
-0.00287705
-0.00477803
-0.00792697
-0.0152842
-0.025197
-0.0278641
-0.0349978
-0.0427596
-0.0538706
-0.0469397
-0.0182751
-0.00530945
-0.00135121
-69.1031
68.7169
0.150845
0.128407
0.10746
0.0852098
0.0726961
0.060735
0.0533303
0.0448704
0.0387487
0.0309898
0.0281762
0.028285
0.0281803
0.0273429
0.0264426
0.0249241
0.0237357
0.0220898
0.0208952
0.0193378
0.0182417
0.0168543
0.0159082
0.0147628
0.0140854
0.0134934
0.0137869
0.0154541
0.0180256
0.0136641
0.0100195
0.00834564
0.00713787
0.00647332
0.00579644
0.00536446
0.00486159
0.0045243
0.00411441
0.00383404
0.00348691
0.0032459
0.00294233
0.00272616
0.00244522
0.00223399
0.00194258
0.00170891
0.0013896
0.00127766
0.00129449
0.00129573
0.00126271
0.00122414
0.00115659
0.00110271
0.00102682
0.000970507
0.000895079
0.000838606
0.000760928
0.000695665
0.000592713
0.000478511
0.000251915
-9.27408e-05
-0.000913171
-0.00245787
-0.00625862
-0.0118449
-0.0151256
-0.0221116
-0.0295474
-0.0404913
-0.0360937
-0.0141055
-0.00410274
-0.00104447
-69.8074
66.1482
0.455904
0.385162
0.322432
0.25524
0.218066
0.182023
0.160033
0.134518
0.116312
0.0927717
0.0844117
0.0848636
0.0845702
0.0820313
0.0793525
0.0747592
0.0712255
0.0662515
0.0627002
0.0579949
0.0547367
0.0505453
0.0477327
0.0442697
0.0422527
0.0404449
0.0413058
0.046326
0.0543542
0.0409637
0.0299797
0.0250183
0.0213919
0.0194205
0.0173795
0.0160962
0.0145782
0.0135758
0.012338
0.0115048
0.0104565
0.0097402
0.00882351
0.00818108
0.00733289
0.00670518
0.00582545
0.00513017
0.00416052
0.00382783
0.0038841
0.00388856
0.00378836
0.00367358
0.00346922
0.00330901
0.00307967
0.00291229
0.00268449
0.00251667
0.00228229
0.00208851
0.00177859
0.00144003
0.000760473
-0.000259186
-0.00271054
-0.00728337
-0.0187044
-0.0356269
-0.0452285
-0.0663169
-0.088502
-0.122088
-0.108985
-0.041837
-0.0120304
-0.00304495
-69.4221
63.5721
0.771152
0.641596
0.537583
0.42407
0.363391
0.302748
0.266877
0.223873
0.194088
0.153946
0.140295
0.141472
0.14105
0.136725
0.132339
0.124552
0.118773
0.110356
0.104551
0.0965942
0.091269
0.0841811
0.0795832
0.0737189
0.0704116
0.0672896
0.0686583
0.0770777
0.0915396
0.0681671
0.0496991
0.0416376
0.0355797
0.0323704
0.0289323
0.0268374
0.0242741
0.0226368
0.0205455
0.0191842
0.0174128
0.0162425
0.0146937
0.0136443
0.0122118
0.0111865
0.00970095
0.00856242
0.00690598
0.00636246
0.0064758
0.00648559
0.00631461
0.00612663
0.0057801
0.0055181
0.00513006
0.00485651
0.00447151
0.00419742
0.00380205
0.00348601
0.00296564
0.00241521
0.00128265
-0.000368345
-0.00442302
-0.0118349
-0.0309301
-0.0597017
-0.0748719
-0.110478
-0.147
-0.205551
-0.184037
-0.0680748
-0.0191253
-0.00478485
-69.0367
60.9839
1.10366
0.897009
0.753113
0.590786
0.508714
0.422483
0.374006
0.312699
0.272279
0.214062
0.195585
0.198145
0.197686
0.191422
0.185462
0.174264
0.166426
0.154357
0.146489
0.135088
0.127872
0.117717
0.111484
0.103066
0.0985633
0.0939547
0.0957289
0.107588
0.130238
0.0951744
0.0690022
0.0581768
0.0496537
0.0453296
0.0404315
0.0375974
0.0339331
0.0317159
0.0287239
0.02688
0.0243451
0.0227601
0.0205441
0.0191228
0.0170744
0.0156862
0.0135626
0.0120154
0.00960695
0.00887084
0.00907167
0.00908988
0.00884157
0.00858605
0.00808762
0.00773225
0.00717591
0.00680521
0.00625412
0.00588304
0.00531866
0.00489172
0.00415391
0.0034137
0.0018256
-0.000381326
-0.00600118
-0.0159191
-0.0427687
-0.0843204
-0.103698
-0.154603
-0.204618
-0.292217
-0.262868
-0.091632
-0.0248358
-0.00610659
-68.6512
58.3793
1.46091
1.14991
0.969381
0.754292
0.654204
0.540708
0.481649
0.40069
0.351181
0.272587
0.250033
0.254938
0.254554
0.246106
0.238794
0.223843
0.214248
0.198189
0.188567
0.173415
0.164592
0.151097
0.143473
0.132256
0.126719
0.120365
0.122396
0.137666
0.171246
0.121826
0.0876916
0.074624
0.0635598
0.0583118
0.0518481
0.0483906
0.0435343
0.0408262
0.0368564
0.0346036
0.0312395
0.0293029
0.0263626
0.0246265
0.0219107
0.0202154
0.0174013
0.0155029
0.0122411
0.0113418
0.0116749
0.0117049
0.0113689
0.0110552
0.0103895
0.00995449
0.00921437
0.00876118
0.00802958
0.00757644
0.00682982
0.0063099
0.00534231
0.00444615
0.00239333
-0.000257744
-0.00740736
-0.0193259
-0.0540191
-0.109826
-0.131262
-0.198763
-0.260731
-0.383561
-0.347373
-0.111012
-0.0286235
-0.0068779
-68.2655
55.7543
1.85091
1.39759
1.18703
0.913198
0.800231
0.656755
0.590167
0.487422
0.431247
0.328871
0.303383
0.311943
0.311745
0.300746
0.292432
0.273206
0.262329
0.241764
0.230867
0.211489
0.2015
0.184242
0.175606
0.161219
0.154908
0.146439
0.148534
0.167013
0.215574
0.147867
0.105538
0.0909912
0.0772334
0.0713428
0.0631447
0.0592399
0.0530497
0.0499869
0.0449203
0.0423717
0.0380769
0.035886
0.0321331
0.0301694
0.0267062
0.0247895
0.0212034
0.019045
0.0147807
0.0137635
0.0142903
0.0143346
0.0138953
0.0135385
0.0126822
0.012189
0.0112414
0.0107283
0.00979395
0.00928163
0.00833196
0.00774604
0.00652792
0.00552492
0.00298506
4.58374e-05
-0.00862272
-0.0218216
-0.0644248
-0.136706
-0.156984
-0.243144
-0.31441
-0.481266
-0.439886
-0.124232
-0.0299856
-0.00700368
-67.8795
53.1061
2.28224
1.63557
1.40721
1.06567
0.947477
0.769726
0.700132
0.572292
0.513161
0.38208
0.355372
0.369298
0.369367
0.355277
0.346506
0.322237
0.310798
0.284952
0.273507
0.249187
0.238698
0.217042
0.207969
0.18986
0.183183
0.172092
0.174017
0.195156
0.264552
0.172892
0.122274
0.107327
0.0905924
0.0844662
0.0742696
0.0701808
0.06244
0.059228
0.0528835
0.0502097
0.0448303
0.0425316
0.0378322
0.0357725
0.0314399
0.0294304
0.0249484
0.0226714
0.0171906
0.0161235
0.016925
0.0169837
0.0164185
0.0160419
0.0149604
0.0144417
0.0132511
0.0127124
0.0115415
0.0110044
0.00981961
0.00920753
0.00770498
0.00666522
0.00359282
0.000578664
-0.00965678
-0.0231411
-0.0736432
-0.165666
-0.18007
-0.288121
-0.364265
-0.5873
-0.543369
-0.128596
-0.028497
-0.0064391
-67.4934
50.4333
2.76405
1.85681
1.63192
1.20921
1.09711
0.878372
0.812426
0.654414
0.597954
0.431113
0.405735
0.427208
0.427557
0.409597
0.401201
0.370754
0.359843
0.327565
0.316661
0.286332
0.276344
0.249338
0.240693
0.218043
0.211635
0.197223
0.198731
0.221369
0.319974
0.196276
0.137583
0.123734
0.103527
0.0977526
0.0851503
0.0812679
0.0716494
0.0685945
0.0607001
0.0581561
0.0514605
0.0492734
0.0434257
0.0414665
0.0360809
0.0341703
0.0286054
0.0264261
0.0194239
0.0184088
0.0195896
0.0196578
0.0189343
0.0185736
0.0172161
0.0167214
0.0152349
0.0147218
0.0132638
0.0127531
0.0112844
0.0107047
0.0088636
0.00788691
0.00419833
0.00140043
-0.0105608
-0.0229798
-0.0812006
-0.197731
-0.199411
-0.334373
-0.408244
-0.704011
-0.661686
-0.120373
-0.0238867
-0.0052032
-67.107
47.7368
3.30585
2.05076
1.86455
1.34032
1.251
0.980906
0.928404
0.732474
0.687161
0.474488
0.454224
0.485962
0.486479
0.463534
0.456777
0.41849
0.409743
0.369323
0.360593
0.322664
0.31467
0.280901
0.273978
0.245577
0.240408
0.221718
0.2226
0.244544
0.384288
0.217061
0.151099
0.140396
0.115885
0.111312
0.0956824
0.0925846
0.0805963
0.0781547
0.0683028
0.0662687
0.0579106
0.0561618
0.0488639
0.0472978
0.040583
0.0390565
0.032127
0.0303737
0.0214179
0.0206063
0.0222987
0.0223637
0.0214356
0.0211452
0.0194375
0.0190409
0.0171797
0.0167692
0.0149483
0.0145402
0.0127138
0.0122524
0.00998773
0.00921716
0.00476831
0.00258881
-0.0114464
-0.0209862
-0.0864254
-0.234389
-0.213419
-0.383069
-0.443347
-0.834247
-0.799962
-0.0943574
-0.0161643
-0.00339088
-66.7204
45.0211
3.91705
2.20195
2.11069
1.45404
1.41213
1.07474
1.05012
0.804509
0.783063
0.510168
0.500633
0.545966
0.546339
0.516823
0.513615
0.465044
0.46091
0.409813
0.405693
0.357799
0.354027
0.31139
0.308122
0.272181
0.269721
0.245431
0.245628
0.263007
0.460881
0.233795
0.162405
0.157611
0.127445
0.125314
0.105713
0.104257
0.0891616
0.0880116
0.075593
0.0746345
0.0640964
0.0632723
0.0540729
0.0533351
0.0448776
0.044159
0.0354417
0.0346096
0.0230862
0.0227038
0.0250731
0.0251094
0.0239116
0.0237736
0.0216065
0.0214191
0.0190667
0.018873
0.0165763
0.0163842
0.0140886
0.0138724
0.0110522
0.0106946
0.00524761
0.00425154
-0.0125116
-0.0167565
-0.088349
-0.277804
-0.219802
-0.43614
-0.465225
-0.981489
-0.96509
-0.0432448
-0.00582509
-0.00117926
-66.3338
45.0211
3.91704
2.20195
2.11069
1.45404
1.41213
1.07474
1.05012
0.80451
0.783064
0.510168
0.500633
0.545966
0.546339
0.516823
0.513616
0.465045
0.46091
0.409814
0.405694
0.357799
0.354028
0.311391
0.308122
0.272182
0.269721
0.245431
0.245628
0.263008
0.460882
0.233795
0.162405
0.157611
0.127446
0.125315
0.105714
0.104257
0.0891619
0.0880119
0.0755933
0.0746347
0.0640966
0.0632725
0.0540731
0.0533354
0.0448778
0.0441592
0.0354419
0.0346097
0.0230863
0.0227039
0.0250732
0.0251095
0.0239117
0.0237737
0.0216067
0.0214192
0.0190668
0.0188732
0.0165765
0.0163844
0.0140888
0.0138726
0.0110523
0.0106948
0.00524769
0.0042516
-0.0125119
-0.0167568
-0.0883509
-0.277811
-0.219808
-0.436151
-0.465237
-0.981515
-0.965116
-0.043246
-0.00582524
-0.00117932
-66.3337
47.7368
3.30585
2.05076
1.86454
1.34032
1.251
0.980906
0.928404
0.732475
0.687162
0.474489
0.454224
0.485963
0.486479
0.463534
0.456778
0.41849
0.409743
0.369323
0.360594
0.322665
0.314671
0.280902
0.273978
0.245577
0.240408
0.221719
0.222601
0.244545
0.384289
0.217061
0.1511
0.140397
0.115885
0.111313
0.0956828
0.0925849
0.0805966
0.078155
0.0683031
0.066269
0.0579108
0.056162
0.0488641
0.047298
0.0405832
0.0390567
0.0321272
0.0303739
0.021418
0.0206064
0.0222988
0.0223638
0.0214358
0.0211453
0.0194377
0.0190411
0.0171799
0.0167693
0.0149484
0.0145404
0.0127139
0.0122526
0.00998787
0.00921729
0.00476839
0.00258886
-0.0114466
-0.0209866
-0.0864273
-0.234394
-0.213424
-0.383079
-0.443359
-0.834269
-0.799983
-0.0943598
-0.0161647
-0.00339098
-66.7203
50.4333
2.76405
1.85681
1.63192
1.20921
1.09711
0.878372
0.812427
0.654415
0.597954
0.431114
0.405735
0.427208
0.427557
0.409597
0.401201
0.370754
0.359843
0.327565
0.316662
0.286333
0.276344
0.249339
0.240693
0.218043
0.211636
0.197224
0.198732
0.22137
0.319975
0.196277
0.137584
0.123735
0.103528
0.0977529
0.0851506
0.0812682
0.0716496
0.0685948
0.0607004
0.0581564
0.0514607
0.0492736
0.0434259
0.0414667
0.0360811
0.0341705
0.0286055
0.0264262
0.019424
0.0184089
0.0195897
0.0196579
0.0189344
0.0185737
0.0172163
0.0167216
0.015235
0.014722
0.0132639
0.0127532
0.0112846
0.0107049
0.00886372
0.00788703
0.00419841
0.00140045
-0.010561
-0.0229802
-0.0812025
-0.197735
-0.199415
-0.334382
-0.408255
-0.70403
-0.661703
-0.120377
-0.0238873
-0.00520331
-67.1069
53.1061
2.28223
1.63557
1.40721
1.06567
0.947477
0.769727
0.700132
0.572293
0.513162
0.38208
0.355372
0.369298
0.369368
0.355278
0.346506
0.322237
0.310798
0.284953
0.273507
0.249188
0.238699
0.217042
0.207969
0.18986
0.183184
0.172092
0.174017
0.195156
0.264553
0.172893
0.122275
0.107327
0.0905927
0.0844665
0.0742698
0.0701811
0.0624403
0.0592282
0.0528838
0.0502099
0.0448305
0.0425318
0.0378323
0.0357727
0.0314401
0.0294306
0.0249485
0.0226715
0.0171907
0.0161235
0.0169251
0.0169838
0.0164186
0.016042
0.0149605
0.0144419
0.0132513
0.0127125
0.0115416
0.0110045
0.00981973
0.00920765
0.00770509
0.00666532
0.00359288
0.000578668
-0.00965697
-0.0231416
-0.073645
-0.16567
-0.180075
-0.288128
-0.364275
-0.587315
-0.543384
-0.1286
-0.0284977
-0.00643921
-67.4933
55.7543
1.8509
1.39759
1.18703
0.913198
0.800231
0.656755
0.590167
0.487423
0.431248
0.328871
0.303383
0.311943
0.311745
0.300746
0.292432
0.273207
0.262329
0.241764
0.230868
0.211489
0.2015
0.184242
0.175606
0.16122
0.154908
0.14644
0.148534
0.167013
0.215574
0.147867
0.105539
0.0909915
0.0772336
0.0713431
0.0631449
0.0592402
0.0530499
0.0499871
0.0449204
0.0423719
0.0380771
0.0358861
0.0321333
0.0301696
0.0267063
0.0247896
0.0212035
0.0190451
0.0147808
0.0137635
0.0142904
0.0143346
0.0138954
0.0135386
0.0126823
0.0121891
0.0112415
0.0107284
0.00979405
0.00928173
0.00833206
0.00774614
0.00652801
0.005525
0.0029851
4.58276e-05
-0.0086229
-0.0218222
-0.0644264
-0.136709
-0.156988
-0.24315
-0.314418
-0.481279
-0.439898
-0.124235
-0.0299863
-0.00700377
-67.8795
58.3792
1.46091
1.14991
0.969381
0.754292
0.654204
0.540708
0.481649
0.40069
0.351182
0.272587
0.250033
0.254938
0.254554
0.246107
0.238794
0.223843
0.214248
0.198189
0.188568
0.173415
0.164593
0.151097
0.143473
0.132256
0.126719
0.120365
0.122396
0.137667
0.171246
0.121827
0.0876919
0.0746242
0.06356
0.0583121
0.0518483
0.0483908
0.0435345
0.0408263
0.0368565
0.0346037
0.0312397
0.029303
0.0263628
0.0246266
0.0219108
0.0202155
0.0174014
0.015503
0.0122411
0.0113418
0.0116749
0.0117049
0.0113689
0.0110553
0.0103896
0.00995457
0.00921445
0.00876126
0.00802966
0.00757652
0.0068299
0.00630998
0.00534239
0.00444622
0.00239337
-0.000257763
-0.00740753
-0.0193264
-0.0540204
-0.109829
-0.131266
-0.198768
-0.260738
-0.383572
-0.347383
-0.111014
-0.0286242
-0.00687797
-68.2654
60.9839
1.10366
0.897008
0.753113
0.590786
0.508715
0.422483
0.374006
0.312699
0.272279
0.214062
0.195585
0.198145
0.197686
0.191422
0.185462
0.174265
0.166426
0.154357
0.146489
0.135089
0.127872
0.117718
0.111485
0.103066
0.0985634
0.0939549
0.0957291
0.107588
0.130239
0.0951747
0.0690025
0.058177
0.0496539
0.0453298
0.0404316
0.0375975
0.0339333
0.0317161
0.028724
0.0268801
0.0243452
0.0227602
0.0205442
0.0191229
0.0170745
0.0156863
0.0135627
0.0120155
0.00960699
0.00887088
0.00907171
0.00908993
0.00884162
0.0085861
0.00808768
0.00773231
0.00717597
0.00680528
0.00625419
0.0058831
0.00531873
0.00489178
0.00415396
0.00341375
0.00182562
-0.000381348
-0.00600132
-0.0159195
-0.0427698
-0.0843225
-0.1037
-0.154607
-0.204623
-0.292225
-0.262875
-0.0916343
-0.0248363
-0.00610663
-68.6512
63.5721
0.77115
0.641595
0.537583
0.42407
0.363391
0.302748
0.266877
0.223873
0.194088
0.153947
0.140295
0.141472
0.14105
0.136726
0.132339
0.124552
0.118773
0.110356
0.104552
0.0965944
0.0912691
0.0841812
0.0795834
0.073719
0.0704118
0.0672897
0.0686585
0.0770779
0.0915398
0.0681673
0.0496992
0.0416377
0.0355799
0.0323706
0.0289324
0.0268375
0.0242742
0.0226369
0.0205456
0.0191843
0.0174129
0.0162426
0.0146938
0.0136443
0.0122118
0.0111865
0.009701
0.00856246
0.00690601
0.00636248
0.00647583
0.00648562
0.00631465
0.00612667
0.00578014
0.00551814
0.00513011
0.00485655
0.00447155
0.00419746
0.00380209
0.00348606
0.00296567
0.00241524
0.00128266
-0.000368367
-0.00442313
-0.0118352
-0.0309309
-0.0597031
-0.0748738
-0.110481
-0.147004
-0.205557
-0.184042
-0.0680765
-0.0191257
-0.00478487
-69.0367
66.1481
0.455903
0.385161
0.322432
0.25524
0.218066
0.182023
0.160033
0.134518
0.116312
0.0927718
0.0844117
0.0848637
0.0845702
0.0820314
0.0793526
0.0747593
0.0712256
0.0662516
0.0627003
0.057995
0.0547367
0.0505453
0.0477328
0.0442698
0.0422527
0.0404449
0.0413059
0.0463261
0.0543543
0.0409639
0.0299798
0.0250184
0.021392
0.0194205
0.0173796
0.0160963
0.0145782
0.0135759
0.0123381
0.0115048
0.0104565
0.00974024
0.00882355
0.00818112
0.00733293
0.00670522
0.00582548
0.0051302
0.00416054
0.00382784
0.00388412
0.00388857
0.00378838
0.00367361
0.00346924
0.00330904
0.00307969
0.00291232
0.00268451
0.0025167
0.00228232
0.00208853
0.00177861
0.00144005
0.000760479
-0.000259202
-0.00271061
-0.00728357
-0.0187049
-0.0356278
-0.0452297
-0.0663187
-0.0885043
-0.122091
-0.108987
-0.041838
-0.0120307
-0.00304496
-69.4221
68.7169
0.150845
0.128407
0.10746
0.0852098
0.0726961
0.060735
0.0533303
0.0448704
0.0387488
0.0309899
0.0281762
0.028285
0.0281803
0.027343
0.0264426
0.0249242
0.0237358
0.0220899
0.0208953
0.0193378
0.0182417
0.0168543
0.0159083
0.0147628
0.0140854
0.0134934
0.0137869
0.0154541
0.0180257
0.0136642
0.0100195
0.00834567
0.00713789
0.00647335
0.00579646
0.00536448
0.00486161
0.00452431
0.00411442
0.00383405
0.00348692
0.00324591
0.00294235
0.00272617
0.00244524
0.002234
0.00194259
0.00170892
0.00138961
0.00127766
0.0012945
0.00129573
0.00126272
0.00122415
0.00115659
0.00110272
0.00102682
0.000970515
0.000895087
0.000838614
0.000760936
0.000695673
0.000592719
0.000478516
0.000251916
-9.27472e-05
-0.000913197
-0.00245794
-0.00625878
-0.0118452
-0.015126
-0.0221122
-0.0295482
-0.0404924
-0.0360946
-0.0141058
-0.00410283
-0.00104447
-69.8074
68.7222
0.136757
0.103804
0.0777649
0.0524431
0.0390519
0.0274992
0.0210849
0.0149978
0.0125801
0.0119175
0.0115673
0.0110142
0.0105763
0.00996293
0.00951745
0.00893583
0.00851838
0.0079759
0.00758545
0.00707652
0.00671156
0.00623896
0.00590816
0.00549551
0.00524301
0.00500709
0.00508604
0.00563533
0.00650541
0.0048696
0.00349118
0.00285187
0.00238235
0.00212305
0.00185908
0.00169209
0.0015001
0.00137313
0.0012214
0.00111924
0.000995023
0.000910249
0.00080553
0.000732541
0.00063999
0.000572713
0.00048322
0.000414705
0.000323679
0.000284762
0.00027014
0.000253904
0.000219789
0.000186768
0.000132155
8.33451e-05
5.82409e-06
-6.45623e-05
-0.000178538
-0.000286496
-0.000467717
-0.000649805
-0.000970884
-0.00132488
-0.00199965
-0.00287641
-0.00477744
-0.0079264
-0.0152836
-0.0251962
-0.0278635
-0.0349974
-0.0427592
-0.0538702
-0.0469394
-0.018275
-0.0053094
-0.00135117
-69.1031
66.1645
0.413726
0.311136
0.233266
0.156852
0.117082
0.0822921
0.0632417
0.0448466
0.03767
0.0357402
0.03471
0.0330379
0.0317358
0.0298821
0.0285578
0.0268009
0.0255601
0.0239216
0.0227611
0.0212238
0.020139
0.0187112
0.0177278
0.0164801
0.0157284
0.0150087
0.0152393
0.0168932
0.0196165
0.0145985
0.010444
0.00854882
0.00713863
0.00636933
0.00557336
0.00507726
0.00449771
0.00412039
0.0036622
0.00335861
0.00298349
0.00273154
0.00241532
0.0021984
0.00191896
0.00171903
0.00144882
0.00124501
0.000968953
0.000853315
0.000810485
0.000762426
0.000659323
0.000561167
0.000396232
0.000251184
1.71867e-05
-0.000191943
-0.000535855
-0.000856556
-0.00140312
-0.00194386
-0.00291133
-0.0039618
-0.00599086
-0.00858827
-0.0142824
-0.0236109
-0.0457486
-0.0758785
-0.0834119
-0.104967
-0.128144
-0.162332
-0.141687
-0.0541969
-0.0155679
-0.003939
-67.3092
63.6004
0.701166
0.517479
0.388709
0.259795
0.194913
0.136455
0.105372
0.0742467
0.0625501
0.0595268
0.0578784
0.0550468
0.0529175
0.04978
0.0476154
0.0446454
0.0426178
0.0398482
0.0379518
0.035353
0.0335802
0.0311657
0.029558
0.0274449
0.0262125
0.0249722
0.0253356
0.0281082
0.0330372
0.0242929
0.0173064
0.0142264
0.0118693
0.0106167
0.00927564
0.00846576
0.00748722
0.00687088
0.00609682
0.00560083
0.00496703
0.0045554
0.00402113
0.00366676
0.00319474
0.00286815
0.00241176
0.00207821
0.00160781
0.00141895
0.00135104
0.00127315
0.00109866
0.000938236
0.000659513
0.000422579
2.75541e-05
-0.000313934
-0.000894101
-0.00141758
-0.00233875
-0.00322084
-0.00484847
-0.00655957
-0.00995934
-0.0141763
-0.023642
-0.038783
-0.0758939
-0.127465
-0.138399
-0.174872
-0.213087
-0.272988
-0.239109
-0.0881645
-0.0247464
-0.00618952
-65.5152
61.0258
1.00641
0.721625
0.544158
0.360177
0.272487
0.189524
0.147504
0.10287
0.0870832
0.0832584
0.0810942
0.0770277
0.0741394
0.0696391
0.0667053
0.0624522
0.0597052
0.0557399
0.0531707
0.0494492
0.047047
0.0435879
0.0414084
0.0383745
0.0366969
0.0348717
0.0353356
0.039237
0.0470048
0.0339169
0.0240126
0.019875
0.0165557
0.0148676
0.0129567
0.011861
0.0104622
0.00962767
0.00852031
0.00784856
0.00694167
0.00638416
0.00561974
0.00513983
0.0044647
0.00402246
0.00336979
0.00291688
0.0022354
0.00197975
0.00189199
0.00178773
0.00153743
0.00132004
0.000921122
0.000600298
3.57791e-05
-0.000426378
-0.00125461
-0.0019627
-0.00327595
-0.004468
-0.00678226
-0.00908981
-0.0138951
-0.0195543
-0.0327746
-0.0530763
-0.105461
-0.180676
-0.192366
-0.244707
-0.297164
-0.387394
-0.341214
-0.118631
-0.0321305
-0.00789886
-63.7211
58.437
1.33732
0.921479
0.699867
0.456707
0.349872
0.240954
0.189741
0.130339
0.111138
0.106924
0.104386
0.0989615
0.0954259
0.0894355
0.085848
0.0801988
0.0768413
0.0715758
0.0684356
0.0634926
0.0605561
0.055959
0.0532929
0.0492498
0.0471872
0.0446796
0.0451981
0.0502112
0.0618067
0.0434137
0.030488
0.0254909
0.0211769
0.0191274
0.0166051
0.0152684
0.0134147
0.0123954
0.0109264
0.0101057
0.00890232
0.00822119
0.00720696
0.00662069
0.00572534
0.00518518
0.00431981
0.00376469
0.00284595
0.00253383
0.00243359
0.00230816
0.00197488
0.00170909
0.0011796
0.000787763
3.99083e-05
-0.00052418
-0.00161994
-0.00248362
-0.00421799
-0.00567027
-0.00871633
-0.0115201
-0.0177968
-0.0246299
-0.041624
-0.0660863
-0.134115
-0.236429
-0.244706
-0.314537
-0.37973
-0.507258
-0.450375
-0.143654
-0.0370238
-0.00889594
-61.9266
55.8305
1.70248
1.11356
0.856438
0.547784
0.427341
0.290077
0.232306
0.1562
0.134593
0.130522
0.127793
0.12082
0.116811
0.109136
0.105073
0.0978537
0.0940538
0.0873267
0.0837727
0.0774558
0.0741317
0.0682528
0.0652326
0.0600459
0.0576954
0.0543664
0.0548808
0.0609221
0.0778081
0.0526917
0.0366464
0.0310795
0.0257076
0.023406
0.0202061
0.0186964
0.0163337
0.015181
0.0133065
0.0123781
0.0108421
0.0100715
0.00877705
0.0081139
0.00697176
0.00636089
0.00525742
0.00462704
0.00343223
0.00307944
0.00297621
0.00283689
0.00240963
0.0021087
0.00143258
0.000989466
3.66851e-05
-0.000600717
-0.00199454
-0.00296971
-0.00517132
-0.00680879
-0.0106601
-0.0138115
-0.0216762
-0.029299
-0.0501746
-0.0773537
-0.161397
-0.295943
-0.294584
-0.384553
-0.459802
-0.634497
-0.569529
-0.160674
-0.038777
-0.00905792
-60.1319
53.2039
2.11132
1.29238
1.01507
0.631333
0.505482
0.336019
0.275604
0.179881
0.157347
0.154066
0.151371
0.142559
0.138342
0.128692
0.124425
0.115372
0.111383
0.102951