/*--------------------------------*- C++ -*----------------------------------*\
| =========                 |                                                 |
| \\      /  F ield         | OpenFOAM: The Open Source CFD Toolbox           |
|  \\    /   O peration     | Version:  5.x                                   |
|   \\  /    A nd           | Web:      www.OpenFOAM.org                      |
|    \\/     M anipulation  |                                                 |
\*---------------------------------------------------------------------------*/
FoamFile
{
    version     2.0;
    format      ascii;
    class       volScalarField;
    location    "4.4";
    object      T;
}
// * * * * * * * * * * * * * * * * * * * * * * * * * * * * * * * * * * * * * //

dimensions      [0 0 0 1 0 0 0];

internalField   nonuniform List<scalar> 
3200
(
2.08486
2.43606
2.45609
2.60094
2.61011
2.68243
2.68725
2.72909
2.73196
2.75846
2.76022
2.77554
2.77688
2.7936
2.79496
2.81091
2.81218
2.82685
2.82802
2.84128
2.84233
2.85416
2.85509
2.86555
2.86637
2.87557
2.8763
2.88459
2.88532
2.8941
2.9018
2.90236
2.90734
2.90771
2.91151
2.9118
2.91484
2.91507
2.91755
2.91774
2.91976
2.91991
2.92156
2.92168
2.92301
2.92311
2.92417
2.92424
2.92503
2.92508
2.92555
2.92559
2.92607
2.9261
2.92647
2.92649
2.92669
2.9267
2.92667
2.92665
2.92628
2.92623
2.92534
2.92522
2.92342
2.92319
2.91961
2.91911
2.91121
2.90982
2.88735
2.84813
2.84375
2.78
2.77249
2.65323
2.64828
2.64766
2.64753
2.6475
2.26035
2.52904
2.5709
2.68678
2.70636
2.76419
2.77445
2.80781
2.81391
2.83498
2.83872
2.851
2.85386
2.86709
2.86998
2.88261
2.88531
2.89694
2.89941
2.90992
2.91214
2.92152
2.92349
2.93177
2.93351
2.94081
2.94237
2.94896
2.95053
2.9578
2.96427
2.96547
2.96944
2.97023
2.97325
2.97386
2.97627
2.97676
2.97873
2.97912
2.98073
2.98105
2.98236
2.98262
2.98368
2.98389
2.98472
2.98488
2.98551
2.98562
2.986
2.98608
2.98646
2.98653
2.98682
2.98687
2.98703
2.98704
2.98702
2.98698
2.98669
2.98657
2.98586
2.98562
2.98418
2.98369
2.98081
2.97974
2.97331
2.97025
2.95061
2.91851
2.90915
2.85834
2.84252
2.74988
2.73943
2.7377
2.73734
2.73726
2.42508
2.6311
2.68275
2.77648
2.80107
2.84784
2.86073
2.88762
2.89527
2.91218
2.91688
2.92684
2.93043
2.941
2.9446
2.95471
2.95809
2.96739
2.97048
2.97889
2.98166
2.98917
2.99163
2.99827
3.00044
3.00629
3.00823
3.01353
3.01551
3.02153
3.02696
3.02847
3.03167
3.03266
3.03508
3.03584
3.03778
3.03839
3.03997
3.04046
3.04175
3.04215
3.0432
3.04353
3.04437
3.04464
3.0453
3.04551
3.04601
3.04615
3.04645
3.04656
3.04686
3.04695
3.04718
3.04724
3.04737
3.04738
3.04736
3.04732
3.04708
3.04694
3.04636
3.04606
3.04489
3.04428
3.04194
3.04059
3.03527
3.03135
3.01438
2.98798
2.97621
2.93527
2.91563
2.84324
2.83023
2.82769
2.82714
2.82702
2.58157
2.73934
2.79291
2.86894
2.89489
2.93286
2.94646
2.96819
2.97625
2.98988
2.99483
3.00294
3.00672
3.01519
3.01897
3.02707
3.03063
3.03809
3.04133
3.04808
3.051
3.05702
3.05961
3.06494
3.06722
3.07192
3.07396
3.07824
3.08033
3.08529
3.08979
3.0914
3.094
3.09503
3.09698
3.09778
3.09934
3.09998
3.10125
3.10177
3.1028
3.10323
3.10407
3.10441
3.10509
3.10537
3.10591
3.10612
3.10652
3.10667
3.10691
3.10703
3.10726
3.10736
3.10755
3.10761
3.10771
3.10773
3.10771
3.10766
3.10747
3.10732
3.10685
3.10653
3.10559
3.10494
3.10303
3.1016
3.09719
3.09296
3.07852
3.05687
3.04444
3.01135
2.99085
2.93422
2.9206
2.9176
2.91692
2.91677
2.73176
2.85174
2.90218
2.96341
2.98823
3.01885
3.03186
3.04931
3.05701
3.06792
3.07266
3.07921
3.08282
3.08956
3.09316
3.09962
3.10301
3.10896
3.11205
3.11743
3.12021
3.12501
3.12748
3.13173
3.13391
3.13765
3.13961
3.14303
3.14504
3.14907
3.15275
3.15429
3.15638
3.15737
3.15893
3.15969
3.16094
3.16155
3.16256
3.16306
3.16388
3.16429
3.16496
3.16529
3.16583
3.16609
3.16652
3.16672
3.16704
3.16718
3.16738
3.16749
3.16768
3.16777
3.16792
3.16798
3.16806
3.16808
3.16806
3.16801
3.16786
3.16772
3.16734
3.16703
3.16627
3.16565
3.16411
3.16272
3.15909
3.15499
3.14295
3.12539
3.11349
3.08693
3.06751
3.02348
3.01055
3.00742
3.00668
3.00651
2.87714
2.96693
3.01102
3.05933
3.08135
3.10554
3.11708
3.13083
3.13764
3.14621
3.15041
3.1556
3.15879
3.16406
3.16724
3.1723
3.17528
3.17994
3.18267
3.18688
3.18934
3.1931
3.19528
3.1986
3.20053
3.20346
3.20519
3.20788
3.20966
3.21286
3.21579
3.21716
3.21881
3.21969
3.22091
3.22159
3.22256
3.2231
3.22389
3.22433
3.22498
3.22533
3.22586
3.22615
3.22657
3.22681
3.22714
3.22732
3.22757
3.2277
3.22785
3.22795
3.2281
3.22818
3.22829
3.22835
3.22841
3.22842
3.22841
3.22837
3.22825
3.22812
3.22783
3.22755
3.22695
3.2264
3.22517
3.22394
3.22101
3.21733
3.2076
3.19368
3.18313
3.16223
3.14515
3.1115
3.10012
3.09714
3.09641
3.09625
3.01893
3.08394
3.11969
3.1563
3.17437
3.19274
3.20221
3.21262
3.21821
3.22468
3.22812
3.23206
3.23468
3.23865
3.24125
3.24505
3.2475
3.251
3.25323
3.25641
3.25841
3.26124
3.26303
3.26553
3.26711
3.26932
3.27073
3.27277
3.27423
3.27666
3.27889
3.28002
3.28127
3.28199
3.28291
3.28346
3.2842
3.28464
3.28524
3.2856
3.28608
3.28638
3.28677
3.28701
3.28733
3.28752
3.28777
3.28792
3.28811
3.28821
3.28833
3.28841
3.28852
3.28858
3.28867
3.28871
3.28876
3.28877
3.28876
3.28873
3.28864
3.28853
3.28831
3.28808
3.28763
3.28718
3.28624
3.28522
3.28296
3.27991
3.27242
3.26184
3.25318
3.23737
3.22346
3.19863
3.18934
3.18677
3.18613
3.18598
3.15812
3.20213
3.22832
3.25401
3.26739
3.2803
3.2873
3.2946
3.29873
3.30326
3.30581
3.30858
3.31052
3.31329
3.31521
3.31786
3.31966
3.32211
3.32376
3.32598
3.32746
3.32943
3.33075
3.3325
3.33366
3.33521
3.33625
3.33768
3.33876
3.34046
3.34203
3.34287
3.34375
3.34428
3.34493
3.34534
3.34585
3.34618
3.34659
3.34686
3.3472
3.34741
3.34769
3.34787
3.34809
3.34823
3.34841
3.34852
3.34865
3.34872
3.34881
3.34886
3.34894
3.34899
3.34905
3.34908
3.34911
3.34912
3.34912
3.34909
3.34903
3.34895
3.34879
3.34863
3.34831
3.34797
3.34731
3.34655
3.34495
3.34267
3.33736
3.32993
3.32352
3.31244
3.30221
3.28514
3.2783
3.27632
3.27582
3.2757
3.29555
3.32102
3.33697
3.35222
3.36042
3.36809
3.37238
3.37671
3.37924
3.38193
3.38349
3.38514
3.38632
3.38796
3.38913
3.3907
3.39181
3.39326
3.39426
3.39557
3.39648
3.39765
3.39846
3.39949
3.4002
3.40112
3.40176
3.4026
3.40327
3.40428
3.40521
3.40572
3.40624
3.40657
3.40695
3.4072
3.40751
3.40771
3.40795
3.40812
3.40832
3.40845
3.40861
3.40872
3.40885
3.40894
3.40904
3.40911
3.40919
3.40923
3.40928
3.40932
3.40936
3.40939
3.40943
3.40945
3.40947
3.40947
3.40947
3.40945
3.40942
3.40937
3.40927
3.40917
3.40898
3.40878
3.40838
3.40792
3.40696
3.40556
3.40238
3.39797
3.39404
3.38747
3.38122
3.37124
3.36706
3.36582
3.3655
3.36542
3.43196
3.4403
3.44565
3.45071
3.45347
3.45601
3.45746
3.4589
3.45975
3.46064
3.46116
3.46171
3.46211
3.46265
3.46305
3.46357
3.46394
3.46442
3.46476
3.46519
3.46549
3.46588
3.46615
3.4665
3.46674
3.46704
3.46725
3.46753
3.46776
3.46809
3.4684
3.46857
3.46875
3.46886
3.46898
3.46907
3.46917
3.46924
3.46932
3.46937
3.46944
3.46948
3.46954
3.46957
3.46962
3.46965
3.46968
3.4697
3.46973
3.46974
3.46976
3.46977
3.46979
3.4698
3.46981
3.46982
3.46982
3.46982
3.46982
3.46982
3.46981
3.46979
3.46976
3.46972
3.46966
3.46959
3.46946
3.4693
3.46898
3.46851
3.46745
3.46599
3.46467
3.46249
3.46039
3.4571
3.4557
3.45528
3.45517
3.45514
3.43139
3.4403
3.44647
3.45314
3.45722
3.46166
3.46449
3.46773
3.46982
3.47222
3.4737
3.47532
3.47652
3.47815
3.47933
3.48088
3.48198
3.48337
3.48435
3.48558
3.48644
3.48752
3.48826
3.4892
3.48986
3.49068
3.49126
3.49203
3.49264
3.49357
3.49445
3.49494
3.49545
3.49577
3.49616
3.49642
3.49674
3.49696
3.49723
3.49741
3.49764
3.49779
3.49799
3.49812
3.49828
3.49839
3.49853
3.49861
3.49872
3.49879
3.49886
3.49891
3.49899
3.49904
3.49911
3.49917
3.49923
3.49928
3.49933
3.49937
3.49942
3.49946
3.4995
3.49953
3.49956
3.49957
3.49958
3.49956
3.49949
3.49932
3.49887
3.49813
3.49735
3.49592
3.4944
3.49187
3.49079
3.49046
3.49038
3.49036
3.29381
3.321
3.3394
3.35952
3.37165
3.38504
3.39345
3.40325
3.40946
3.4167
3.42109
3.42597
3.42953
3.43446
3.43798
3.44266
3.44592
3.45014
3.45304
3.45677
3.45931
3.46256
3.46479
3.46762
3.46956
3.47205
3.47378
3.47609
3.47792
3.48072
3.48335
3.48482
3.48635
3.48732
3.48849
3.48926
3.49023
3.49087
3.49168
3.49223
3.49292
3.49338
3.49396
3.49436
3.49485
3.49517
3.49558
3.49584
3.49616
3.49636
3.49658
3.49674
3.49697
3.49713
3.49734
3.4975
3.49769
3.49783
3.498
3.49812
3.49827
3.49837
3.4985
3.49858
3.49867
3.49872
3.49875
3.4987
3.49848
3.49797
3.49661
3.49441
3.49209
3.48777
3.48324
3.47557
3.47234
3.47138
3.47113
3.47108
3.15515
3.20206
3.23226
3.26622
3.28602
3.30863
3.32236
3.3389
3.34905
3.36129
3.36846
3.37668
3.38249
3.39083
3.39659
3.4045
3.40982
3.41696
3.4217
3.42799
3.43216
3.43765
3.44128
3.44607
3.44924
3.45344
3.45628
3.46017
3.46315
3.46788
3.4723
3.4747
3.47727
3.47886
3.48083
3.4821
3.48372
3.48478
3.48615
3.48704
3.48821
3.48896
3.48995
3.49059
3.49142
3.49195
3.49264
3.49307
3.49361
3.49393
3.4943
3.49456
3.49495
3.49521
3.49558
3.49582
3.49616
3.49638
3.49667
3.49686
3.49712
3.49728
3.4975
3.49763
3.49779
3.49787
3.49792
3.49783
3.49748
3.49665
3.49439
3.49068
3.4869
3.47963
3.4722
3.45908
3.45379
3.45227
3.45188
3.45179
3.01461
3.08378
3.12497
3.17349
3.20028
3.23256
3.25115
3.27481
3.28855
3.30608
3.31578
3.32749
3.33534
3.3473
3.35511
3.36645
3.37366
3.38387
3.3903
3.39931
3.40495
3.41282
3.41773
3.42459
3.42888
3.43489
3.43874
3.44429
3.44831
3.45505
3.46134
3.46457
3.46824
3.47038
3.4732
3.47492
3.47724
3.47868
3.48064
3.48185
3.48351
3.48454
3.48594
3.48681
3.488
3.48872
3.48971
3.49029
3.49106
3.49149
3.49202
3.49238
3.49293
3.49329
3.49382
3.49415
3.49462
3.49492
3.49534
3.4956
3.49597
3.49619
3.4965
3.49668
3.49691
3.49702
3.4971
3.49698
3.4965
3.49539
3.49222
3.48696
3.48185
3.4715
3.46139
3.44228
3.4351
3.43311
3.43262
3.4325
2.8713
2.96663
3.01739
3.08162
3.11433
3.15705
3.17975
3.21112
3.22791
3.25119
3.26303
3.27845
3.28803
3.30394
3.31349
3.32855
3.33737
3.35094
3.35879
3.37076
3.37765
3.3881
3.39411
3.40321
3.40846
3.41643
3.42113
3.42847
3.43337
3.44224
3.45049
3.45442
3.45926
3.46188
3.46562
3.46771
3.4708
3.47255
3.47515
3.47663
3.47884
3.48009
3.48196
3.48302
3.4846
3.48549
3.48679
3.48751
3.48853
3.48906
3.48976
3.49019
3.49092
3.49136
3.49206
3.49247
3.4931
3.49346
3.49402
3.49434
3.49482
3.4951
3.49551
3.49573
3.49604
3.49617
3.49628
3.49615
3.49554
3.49422
3.49014
3.48323
3.47701
3.46336
3.45094
3.425
3.4162
3.4139
3.41334
3.41321
2.72417
2.85126
2.90926
2.99102
3.02797
3.08234
3.10799
3.14801
3.16701
3.19675
3.21013
3.22964
3.24047
3.26083
3.27164
3.29091
3.30089
3.31823
3.32712
3.34241
3.35021
3.36356
3.37036
3.38198
3.38792
3.3981
3.40341
3.41275
3.41826
3.42945
3.43982
3.44423
3.45037
3.45333
3.4581
3.46047
3.46441
3.46639
3.46972
3.47139
3.47421
3.47563
3.47802
3.47922
3.48123
3.48223
3.4839
3.48471
3.48602
3.48662
3.4875
3.48799
3.48893
3.48943
3.49032
3.49078
3.49158
3.492
3.49271
3.49307
3.49369
3.494
3.49452
3.49477
3.49517
3.49533
3.49547
3.49533
3.49461
3.49315
3.48817
3.47948
3.47247
3.45516
3.44103
3.40704
3.39704
3.39461
3.39404
3.39391
2.57197
2.73865
2.80019
2.9022
2.94091
3.00877
3.03566
3.08574
3.10567
3.14297
3.15699
3.18118
3.19253
3.21811
3.22946
3.25364
3.26411
3.28586
3.29519
3.31436
3.32254
3.33927
3.34641
3.36098
3.36721
3.37996
3.38553
3.39717
3.40293
3.41669
3.42939
3.43398
3.44161
3.44471
3.45067
3.45316
3.4581
3.46018
3.46434
3.4661
3.46963
3.47112
3.47411
3.47537
3.4779
3.47895
3.48104
3.48189
3.48354
3.48416
3.48526
3.48577
3.48695
3.48747
3.48859
3.48908
3.49009
3.49052
3.49141
3.49179
3.49257
3.49289
3.49355
3.49381
3.49432
3.49448
3.49468
3.49454
3.49371
3.49222
3.48635
3.47566
3.46834
3.44684
3.43191
3.38811
3.37758
3.37525
3.37473
3.37461
2.41309
2.63024
2.6895
2.81592
2.85269
2.93684
2.9624
3.02468
3.04364
3.09012
3.10344
3.13323
3.14401
3.17595
3.18677
3.21691
3.22689
3.25399
3.26287
3.28674
3.29454
3.31538
3.32217
3.34031
3.34624
3.36212
3.36741
3.38184
3.38728
3.40398
3.41928
3.4236
3.43303
3.43598
3.44339
3.44575
3.4519
3.45388
3.45907
3.46074
3.46514
3.46655
3.47028
3.47148
3.47463
3.47563
3.47823
3.47904
3.48109
3.48169
3.48304
3.48353
3.485
3.48549
3.48689
3.48735
3.48861
3.48902
3.49013
3.4905
3.49146
3.49177
3.49259
3.49284
3.49347
3.49363
3.49389
3.49377
3.49284
3.49147
3.48472
3.4717
3.46478
3.43826
3.42395
3.36786
3.35778
3.35582
3.3554
3.3553
2.24553
2.52815
2.57612
2.73323
2.76257
2.86726
2.88767
2.96535
2.98051
3.0386
3.04923
3.08605
3.09465
3.13464
3.1433
3.18099
3.18898
3.22284
3.22995
3.25978
3.26601
3.29204
3.29748
3.32013
3.32487
3.34469
3.34892
3.36686
3.37118
3.39132
3.4096
3.41302
3.42471
3.42706
3.4363
3.43819
3.44587
3.44745
3.45393
3.45527
3.46076
3.46189
3.46655
3.46751
3.47144
3.47224
3.4755
3.47615
3.47871
3.47918
3.48085
3.48124
3.48308
3.48348
3.48522
3.48559
3.48717
3.4875
3.48889
3.48918
3.49038
3.49063
3.49165
3.49185
3.49265
3.49278
3.49313
3.49304
3.49198
3.49094
3.48334
3.4675
3.462
3.42919
3.41766
3.34577
3.33767
3.33633
3.33605
3.33599
2.06667
2.43545
2.45837
2.65564
2.66944
2.80104
2.81065
2.90852
2.91566
2.98897
2.99397
3.03999
3.04403
3.09458
3.09867
3.14626
3.15003
3.19277
3.19612
3.23375
3.23669
3.26953
3.27209
3.30067
3.3029
3.32789
3.32988
3.35243
3.35444
3.37873
3.40053
3.40211
3.41677
3.41787
3.42951
3.4304
3.44008
3.44083
3.449
3.44963
3.45656
3.45709
3.46297
3.46342
3.46838
3.46875
3.47286
3.47317
3.47641
3.47663
3.47872
3.4789
3.48122
3.48141
3.48362
3.48379
3.48578
3.48593
3.48768
3.48782
3.48934
3.48946
3.49075
3.49084
3.49185
3.49191
3.49238
3.49234
3.49113
3.49066
3.48229
3.46288
3.46031
3.41927
3.41379
3.32112
3.31728
3.3168
3.3167
3.31668
2.06667
2.43544
2.45837
2.65564
2.66944
2.80104
2.81065
2.90852
2.91566
2.98897
2.99397
3.03998
3.04403
3.09458
3.09867
3.14626
3.15003
3.19277
3.19612
3.23375
3.23669
3.26953
3.27209
3.30067
3.3029
3.32789
3.32988
3.35243
3.35444
3.37873
3.40053
3.40211
3.41677
3.41787
3.42951
3.4304
3.44008
3.44083
3.449
3.44963
3.45656
3.45709
3.46297
3.46342
3.46838
3.46875
3.47286
3.47317
3.47641
3.47663
3.47872
3.4789
3.48122
3.48141
3.48361
3.48379
3.48578
3.48593
3.48768
3.48782
3.48934
3.48946
3.49075
3.49084
3.49185
3.49191
3.49238
3.49234
3.49113
3.49066
3.48229
3.46288
3.46031
3.41927
3.41379
3.32112
3.31728
3.31679
3.31669
3.31667
2.24553
2.52815
2.57612
2.73323
2.76257
2.86726
2.88767
2.96535
2.98051
3.0386
3.04923
3.08604
3.09465
3.13464
3.1433
3.18099
3.18898
3.22284
3.22995
3.25977
3.26601
3.29204
3.29748
3.32013
3.32487
3.34469
3.34891
3.36686
3.37117
3.39132
3.4096
3.41302
3.42471
3.42706
3.4363
3.43819
3.44587
3.44745
3.45393
3.45527
3.46076
3.46189
3.46655
3.46751
3.47144
3.47224
3.4755
3.47615
3.47871
3.47918
3.48085
3.48124
3.48308
3.48348
3.48522
3.48559
3.48717
3.4875
3.48889
3.48918
3.49038
3.49063
3.49165
3.49185
3.49265
3.49278
3.49313
3.49304
3.49198
3.49094
3.48334
3.4675
3.462
3.42919
3.41766
3.34576
3.33766
3.33633
3.33605
3.33599
2.41309
2.63024
2.6895
2.81592
2.85269
2.93684
2.9624
3.02468
3.04364
3.09012
3.10344
3.13323
3.14401
3.17595
3.18677
3.21691
3.22689
3.25399
3.26287
3.28674
3.29454
3.31538
3.32217
3.34031
3.34624
3.36212
3.3674
3.38184
3.38728
3.40397
3.41928
3.4236
3.43303
3.43598
3.44339
3.44575
3.4519
3.45388
3.45907
3.46074
3.46514
3.46655
3.47028
3.47148
3.47462
3.47563
3.47823
3.47904
3.48109
3.48169
3.48304
3.48353
3.48499
3.48549
3.48689
3.48735
3.48861
3.48902
3.49013
3.4905
3.49146
3.49177
3.49259
3.49284
3.49347
3.49363
3.49389
3.49377
3.49284
3.49147
3.48472
3.4717
3.46478
3.43826
3.42395
3.36786
3.35778
3.35582
3.35539
3.3553
2.57197
2.73865
2.80019
2.9022
2.94091
3.00877
3.03566
3.08574
3.10567
3.14297
3.15699
3.18118
3.19252
3.21811
3.22946
3.25364
3.26411
3.28586
3.29519
3.31436
3.32254
3.33927
3.34641
3.36098
3.36721
3.37996
3.38553
3.39717
3.40293
3.41669
3.42939
3.43398
3.44161
3.44471
3.45067
3.45316
3.4581
3.46018
3.46434
3.4661
3.46963
3.47112
3.47411
3.47537
3.4779
3.47895
3.48104
3.48189
3.48354
3.48416
3.48526
3.48577
3.48695
3.48747
3.48859
3.48908
3.49009
3.49052
3.49141
3.49179
3.49257
3.49289
3.49355
3.49381
3.49432
3.49448
3.49468
3.49454
3.49371
3.49222
3.48635
3.47566
3.46834
3.44684
3.43191
3.38811
3.37757
3.37525
3.37472
3.37461
2.72417
2.85126
2.90926
2.99102
3.02797
3.08233
3.10799
3.14801
3.16701
3.19675
3.21013
3.22964
3.24047
3.26083
3.27164
3.29091
3.30089
3.31823
3.32712
3.34241
3.35021
3.36355
3.37036
3.38198
3.38792
3.3981
3.40341
3.41274
3.41826
3.42945
3.43982
3.44423
3.45037
3.45333
3.4581
3.46047
3.46441
3.46639
3.46972
3.47139
3.47421
3.47563
3.47802
3.47921
3.48123
3.48223
3.4839
3.48471
3.48602
3.48662
3.4875
3.48799
3.48893
3.48943
3.49032
3.49078
3.49158
3.492
3.49271
3.49307
3.49369
3.494
3.49452
3.49477
3.49517
3.49533
3.49547
3.49533
3.49461
3.49315
3.48817
3.47948
3.47247
3.45516
3.44103
3.40703
3.39704
3.39461
3.39404
3.39391
2.8713
2.96663
3.01739
3.08162
3.11432
3.15705
3.17975
3.21112
3.22791
3.25119
3.26303
3.27845
3.28803
3.30394
3.31349
3.32855
3.33737
3.35094
3.35879
3.37076
3.37765
3.3881
3.39411
3.40321
3.40845
3.41643
3.42113
3.42847
3.43337
3.44224
3.45049
3.45442
3.45926
3.46188
3.46562
3.46771
3.4708
3.47255
3.47515
3.47663
3.47884
3.48009
3.48196
3.48302
3.4846
3.48549
3.48679
3.48751
3.48853
3.48906
3.48976
3.49019
3.49092
3.49136
3.49206
3.49247
3.4931
3.49346
3.49402
3.49434
3.49482
3.4951
3.49551
3.49573
3.49604
3.49617
3.49628
3.49615
3.49554
3.49421
3.49014
3.48323
3.47701
3.46336
3.45094
3.425
3.4162
3.4139
3.41334
3.41321
3.0146
3.08378
3.12497
3.17349
3.20028
3.23256
3.25115
3.27481
3.28855
3.30608
3.31578
3.32749
3.33534
3.3473
3.35511
3.36644
3.37366
3.38387
3.3903
3.39931
3.40495
3.41282
3.41773
3.42459
3.42888
3.43489
3.43874
3.44429
3.44831
3.45505
3.46134
3.46457
3.46824
3.47038
3.4732
3.47492
3.47724
3.47868
3.48064
3.48185
3.48351
3.48454
3.48594
3.48681
3.488
3.48872
3.48971
3.49029
3.49106
3.49149
3.49202
3.49238
3.49293
3.49329
3.49381
3.49415
3.49462
3.49492
3.49534
3.4956
3.49597
3.49619
3.4965
3.49668
3.49691
3.49702
3.4971
3.49698
3.4965
3.49539
3.49222
3.48696
3.48185
3.4715
3.46139
3.44228
3.4351
3.43311
3.43262
3.4325
3.15515
3.20206
3.23226
3.26622
3.28602
3.30863
3.32236
3.3389
3.34905
3.36129
3.36846
3.37668
3.38249
3.39083
3.39659
3.4045
3.40982
3.41696
3.4217
3.42799
3.43216
3.43765
3.44128
3.44607
3.44924
3.45344
3.45628
3.46017
3.46315
3.46788
3.4723
3.4747
3.47727
3.47886
3.48083
3.4821
3.48372
3.48478
3.48615
3.48704
3.48821
3.48896
3.48995
3.49059
3.49142
3.49195
3.49264
3.49307
3.49361
3.49393
3.4943
3.49456
3.49495
3.49521
3.49558
3.49582
3.49616
3.49638
3.49667
3.49686
3.49712
3.49728
3.4975
3.49763
3.49779
3.49787
3.49792
3.49783
3.49748
3.49665
3.49439
3.49068
3.4869
3.47963
3.4722
3.45908
3.45379
3.45227
3.45188
3.45179
3.29381
3.321
3.3394
3.35952
3.37165
3.38504
3.39345
3.40325
3.40946
3.4167
3.42109
3.42597
3.42953
3.43446
3.43798
3.44266
3.44592
3.45014
3.45304
3.45676
3.45931
3.46256
3.46479
3.46762
3.46956
3.47205
3.47378
3.47609
3.47792
3.48072
3.48335
3.48482
3.48635
3.48732
3.48849
3.48926
3.49023
3.49087
3.49168
3.49223
3.49292
3.49338
3.49396
3.49436
3.49485
3.49517
3.49558
3.49584
3.49616
3.49636
3.49658
3.49674
3.49697
3.49713
3.49734
3.4975
3.49769
3.49783
3.498
3.49812
3.49827
3.49837
3.4985
3.49858
3.49867
3.49872
3.49875
3.4987
3.49848
3.49797
3.49661
3.49441
3.49209
3.48777
3.48324
3.47556
3.47234
3.47138
3.47113
3.47108
3.43139
3.4403
3.44647
3.45314
3.45722
3.46166
3.46449
3.46773
3.46982
3.47222
3.4737
3.47532
3.47652
3.47815
3.47933
3.48088
3.48198
3.48337
3.48435
3.48558
3.48644
3.48752
3.48826
3.4892
3.48986
3.49068
3.49126
3.49203
3.49264
3.49357
3.49445
3.49494
3.49545
3.49577
3.49616
3.49642
3.49674
3.49696
3.49723
3.49741
3.49764
3.49779
3.49799
3.49812
3.49828
3.49839
3.49853
3.49861
3.49872
3.49879
3.49886
3.49891
3.49899
3.49904
3.49911
3.49917
3.49923
3.49928
3.49933
3.49937
3.49942
3.49946
3.4995
3.49953
3.49956
3.49957
3.49958
3.49956
3.49949
3.49932
3.49887
3.49813
3.49735
3.49592
3.4944
3.49187
3.49079
3.49046
3.49038
3.49036
3.43194
3.44028
3.44562
3.45066
3.4534
3.4559
3.4573
3.45865
3.45941
3.46015
3.46067
3.46134
3.46182
3.46244
3.46288
3.46344
3.46383
3.46433
3.46469
3.46513
3.46544
3.46584
3.46612
3.46646
3.46671
3.46701
3.46723
3.46751
3.46774
3.46808
3.46839
3.46856
3.46874
3.46885
3.46898
3.46906
3.46916
3.46923
3.46931
3.46937
3.46943
3.46948
3.46953
3.46957
3.46961
3.46964
3.46968
3.4697
3.46973
3.46974
3.46976
3.46977
3.46979
3.4698
3.46981
3.46982
3.46982
3.46982
3.46982
3.46982
3.4698
3.46979
3.46976
3.46972
3.46966
3.46959
3.46946
3.4693
3.46898
3.46851
3.46745
3.46599
3.46467
3.46249
3.46039
3.4571
3.4557
3.45528
3.45517
3.45514
3.2955
3.32095
3.33687
3.35206
3.3602
3.36775
3.3719
3.37598
3.37823
3.38046
3.382
3.38404
3.38547
3.38734
3.38864
3.39033
3.3915
3.39301
3.39405
3.3954
3.39633
3.39752
3.39834
3.39939
3.40012
3.40104
3.40169
3.40254
3.40321
3.40423
3.40517
3.40569
3.40622
3.40655
3.40693
3.40718
3.40749
3.40769
3.40794
3.4081
3.40831
3.40844
3.4086
3.40871
3.40885
3.40893
3.40904
3.4091
3.40918
3.40923
3.40928
3.40931
3.40936
3.40939
3.40943
3.40945
3.40947
3.40947
3.40947
3.40945
3.40941
3.40937
3.40927
3.40917
3.40898
3.40878
3.40838
3.40792
3.40695
3.40556
3.40238
3.39797
3.39404
3.38747
3.38122
3.37124
3.36706
3.36582
3.3655
3.36542
3.15803
3.202
3.22815
3.25375
3.26702
3.27973
3.28651
3.29338
3.29705
3.3008
3.3033
3.30675
3.30909
3.31226
3.31438
3.31724
3.31915
3.3217
3.32341
3.32569
3.3272
3.32922
3.33056
3.33234
3.33352
3.33508
3.33614
3.33758
3.33867
3.34039
3.34197
3.34282
3.34371
3.34424
3.34489
3.3453
3.34582
3.34615
3.34657
3.34684
3.34718
3.3474
3.34767
3.34785
3.34808
3.34822
3.3484
3.34851
3.34864
3.34871
3.3488
3.34886
3.34893
3.34898
3.34904
3.34908
3.34911
3.34912
3.34911
3.34909
3.34902
3.34895
3.34879
3.34862
3.3483
3.34797
3.34731
3.34655
3.34494
3.34267
3.33735
3.32993
3.32351
3.31244
3.30221
3.28514
3.27829
3.27632
3.27582
3.2757
3.01881
3.08377
3.11945
3.15593
3.17387
3.19195
3.20112
3.2109
3.21587
3.22119
3.22457
3.22951
3.23268
3.23722
3.2401
3.24418
3.24677
3.25043
3.25274
3.256
3.25806
3.26095
3.26276
3.2653
3.2669
3.26914
3.27057
3.27263
3.27411
3.27655
3.27881
3.27994
3.28121
3.28193
3.28286
3.28342
3.28416
3.2846
3.2852
3.28557
3.28606
3.28635
3.28675
3.28699
3.28731
3.2875
3.28776
3.28791
3.2881
3.2882
3.28832
3.2884
3.28851
3.28858
3.28866
3.28871
3.28875
3.28877
3.28876
3.28872
3.28863
3.28853
3.28831
3.28808
3.28763
3.28717
3.28624
3.28522
3.28296
3.27991
3.27241
3.26184
3.25318
3.23737
3.22346
3.19863
3.18934
3.18677
3.18613
3.18598
2.87699
2.96671
3.01072
3.05885
3.08071
3.10453
3.1157
3.12862
3.13467
3.14165
3.14578
3.15235
3.15622
3.16224
3.16576
3.17119
3.17435
3.17921
3.18203
3.18636
3.18888
3.19271
3.19493
3.19831
3.20026
3.20323
3.20498
3.2077
3.2095
3.21272
3.21568
3.21707
3.21873
3.21961
3.22085
3.22153
3.22251
3.22305
3.22385
3.22429
3.22494
3.2253
3.22583
3.22613
3.22655
3.22679
3.22713
3.22731
3.22756
3.22768
3.22784
3.22794
3.22809
3.22817
3.22828
3.22834
3.2284
3.22842
3.2284
3.22836
3.22824
3.22812
3.22782
3.22755
3.22695
3.2264
3.22517
3.22393
3.22101
3.21733
3.2076
3.19368
3.18313
3.16223
3.14515
3.1115
3.10011
3.09714
3.09641
3.09625
2.73158
2.85147
2.90183
2.96283
2.98747
3.01761
3.0302
3.04662
3.05343
3.06224
3.06689
3.07529
3.07967
3.08737
3.09135
3.09828
3.10186
3.10807
3.11127
3.1168
3.11964
3.12455
3.12706
3.13137
3.13358
3.13738
3.13935
3.14281
3.14484
3.14891
3.15262
3.15417
3.15628
3.15728
3.15885
3.15962
3.16088
3.16149
3.16251
3.16301
3.16384
3.16425
3.16492
3.16526
3.1658
3.16607
3.1665
3.1667
3.16702
3.16717
3.16737
3.16747
3.16766
3.16776
3.16791
3.16797
3.16805
3.16807
3.16805
3.16801
3.16785
3.16771
3.16734
3.16703
3.16627
3.16565
3.1641
3.16272
3.15909
3.15498
3.14295
3.12539
3.11349
3.08693
3.06751
3.02348
3.01055
3.00742
3.00668
3.00651
2.58137
2.73902
2.79251
2.86826
2.89401
2.93139
2.94456
2.96499
2.97212
2.98298
2.98786
2.99839
3.00299
3.01264
3.01683
3.02551
3.02927
3.03705
3.04041
3.04735
3.05033
3.05648
3.05911
3.06452
3.06684
3.07159
3.07366
3.07798
3.08009
3.0851
3.08964
3.09126
3.09388
3.09493
3.09689
3.0977
3.09927
3.09992
3.10119
3.10172
3.10275
3.10318
3.10403
3.10438
3.10506
3.10534
3.10588
3.1061
3.1065
3.10665
3.1069
3.10701
3.10725
3.10735
3.10753
3.1076
3.1077
3.10772
3.1077
3.10765
3.10746
3.10731
3.10685
3.10653
3.10559
3.10494
3.10303
3.10159
3.09718
3.09296
3.07852
3.05687
3.04443
3.01135
2.99085
2.93422
2.9206
2.9176
2.91692
2.91677
2.42486
2.63073
2.68229
2.77569
2.80009
2.84614
2.85863
2.8839
2.89066
2.90397
2.90859
2.92173
2.92611
2.93814
2.94212
2.95294
2.95652
2.96621
2.9694
2.97805
2.98089
2.98854
2.99105
2.99779
2.99999
3.00591
3.00788
3.01324
3.01524
3.02132
3.02679
3.02831
3.03154
3.03254
3.03498
3.03575
3.0377
3.03831
3.0399
3.0404
3.04169
3.0421
3.04315
3.04349
3.04434
3.0446
3.04528
3.04548
3.04598
3.04612
3.04643
3.04654
3.04684
3.04693
3.04716
3.04723
3.04735
3.04737
3.04735
3.04731
3.04707
3.04693
3.04636
3.04605
3.04489
3.04428
3.04194
3.04059
3.03527
3.03134
3.01437
2.98798
2.97621
2.93527
2.91563
2.84324
2.83022
2.82769
2.82714
2.82702
2.26011
2.52862
2.57041
2.68587
2.7053
2.76224
2.77218
2.80355
2.80893
2.8253
2.82899
2.84541
2.84892
2.86395
2.86714
2.88066
2.88352
2.89563
2.89818
2.90898
2.91125
2.92082
2.92283
2.93124
2.933
2.94039
2.94197
2.94863
2.95021
2.95755
2.96409
2.96529
2.9693
2.97009
2.97313
2.97375
2.97618
2.97667
2.97865
2.97905
2.98067
2.98099
2.98231
2.98257
2.98364
2.98385
2.98469
2.98485
2.98548
2.98559
2.98597
2.98606
2.98643
2.98651
2.9868
2.98685
2.98701
2.98703
2.987
2.98697
2.98668
2.98656
2.98585
2.98561
2.98417
2.98368
2.9808
2.97974
2.9733
2.97025
2.95061
2.91851
2.90915
2.85833
2.84252
2.74988
2.73943
2.7377
2.73734
2.73726
2.08463
2.43558
2.45558
2.5999
2.60901
2.68021
2.68488
2.72424
2.72677
2.74714
2.74887
2.76962
2.77127
2.79024
2.79174
2.8088
2.81015
2.82543
2.82663
2.84026
2.84133
2.8534
2.85434
2.86496
2.86579
2.87511
2.87585
2.88422
2.88496
2.89383
2.9016
2.90215
2.90718
2.90755
2.91138
2.91167
2.91474
2.91497
2.91747
2.91766
2.91969
2.91984
2.9215
2.92163
2.92297
2.92307
2.92413
2.92421
2.925
2.92505
2.92553
2.92557
2.92604
2.92608
2.92645
2.92647
2.92668
2.92668
2.92666
2.92664
2.92627
2.92622
2.92533
2.92521
2.92341
2.92319
2.9196
2.9191
2.9112
2.90982
2.88734
2.84812
2.84375
2.78
2.77249
2.65323
2.64828
2.64766
2.64753
2.6475
)
;

boundaryField
{
    F1_1
    {
        type            fixedValue;
        value           nonuniform List<scalar> 
80
(
1.9901
2.39619
2.39619
2.56073
2.56073
2.6429
2.6429
2.69051
2.69051
2.7207
2.7207
2.73809
2.73809
2.75716
2.75716
2.77535
2.77535
2.79208
2.79208
2.8072
2.8072
2.8207
2.8207
2.83262
2.83262
2.84312
2.84312
2.85255
2.85255
2.86227
2.87071
2.87071
2.87638
2.87638
2.88071
2.88071
2.88419
2.88419
2.88701
2.88701
2.88931
2.88931
2.89119
2.89119
2.89271
2.89271
2.89391
2.89391
2.8948
2.8948
2.89534
2.89534
2.89588
2.89588
2.8963
2.8963
2.89653
2.89653
2.89649
2.89649
2.89608
2.89608
2.89506
2.89506
2.89301
2.89301
2.88894
2.88894
2.88003
2.88003
2.85605
2.81224
2.81224
2.73971
2.73971
2.60262
2.60262
2.60262
2.60262
2.60262
)
;
    }
    F1_2
    {
        type            fixedValue;
        value           nonuniform List<scalar> 
80
(
1.96985
2.39601
2.39601
2.62051
2.62051
2.77037
2.77037
2.88191
2.88191
2.96552
2.96552
3.01779
3.01779
3.07548
3.07548
3.12977
3.12977
3.17852
3.17852
3.22143
3.22143
3.25888
3.25888
3.29146
3.29146
3.31994
3.31994
3.34562
3.34562
3.37249
3.39639
3.39639
3.41306
3.41306
3.42633
3.42633
3.43737
3.43737
3.44668
3.44668
3.45458
3.45458
3.46128
3.46128
3.46693
3.46693
3.47162
3.47162
3.47532
3.47532
3.47769
3.47769
3.48034
3.48034
3.48285
3.48285
3.48511
3.48511
3.48711
3.48711
3.48885
3.48885
3.49032
3.49032
3.49147
3.49147
3.49201
3.49201
3.49068
3.49068
3.48199
3.46024
3.46024
3.4136
3.4136
3.30702
3.30702
3.30702
3.30702
3.30702
)
;
    }
    F1_3
    {
        type            fixedValue;
        value           nonuniform List<scalar> 
80
(
1.96985
2.396
2.396
2.62051
2.62051
2.77037
2.77037
2.88191
2.88191
2.96552
2.96552
3.01779
3.01779
3.07548
3.07548
3.12977
3.12977
3.17851
3.17851
3.22143
3.22143
3.25887
3.25887
3.29146
3.29146
3.31994
3.31994
3.34562
3.34562
3.37248
3.39639
3.39639
3.41306
3.41306
3.42633
3.42633
3.43737
3.43737
3.44668
3.44668
3.45458
3.45458
3.46128
3.46128
3.46693
3.46693
3.47162
3.47162
3.47532
3.47532
3.47769
3.47769
3.48034
3.48034
3.48285
3.48285
3.48511
3.48511
3.48711
3.48711
3.48885
3.48885
3.49032
3.49032
3.49147
3.49147
3.49201
3.49201
3.49068
3.49068
3.48199
3.46024
3.46024
3.41359
3.41359
3.30702
3.30702
3.30702
3.30702
3.30702
)
;
    }
    F1_4
    {
        type            fixedValue;
        value           nonuniform List<scalar> 
80
(
1.98986
2.39567
2.39567
2.55962
2.55962
2.64053
2.64053
2.68533
2.68533
2.70843
2.70843
2.7321
2.7321
2.75373
2.75373
2.77319
2.77319
2.79061
2.79061
2.80615
2.80615
2.81991
2.81991
2.83201
2.83201
2.84263
2.84263
2.85217
2.85217
2.86198
2.8705
2.8705
2.87621
2.87621
2.88058
2.88058
2.88408
2.88408
2.88692
2.88692
2.88924
2.88924
2.89113
2.89113
2.89266
2.89266
2.89387
2.89387
2.89477
2.89477
2.89531
2.89531
2.89586
2.89586
2.89628
2.89628
2.89651
2.89651
2.89648
2.89648
2.89607
2.89607
2.89505
2.89505
2.893
2.893
2.88894
2.88894
2.88002
2.88002
2.85605
2.81223
2.81223
2.73971
2.73971
2.60262
2.60262
2.60262
2.60262
2.60262
)
;
    }
    F2_1
    {
        type            fixedValue;
        value           uniform 3.5;
    }
    F2_2
    {
        type            fixedValue;
        value           uniform 3.5;
    }
    F2_3
    {
        type            fixedValue;
        value           uniform 3.5;
    }
    F2_4
    {
        type            fixedValue;
        value           uniform 3.5;
    }
    defaultFaces
    {
        type            empty;
    }
}


// ************************************************************************* //
